
     Program PROJWFC v.5.4.0 starts on  7Feb2018 at 18: 7:37 

     This program is part of the open-source Quantum ESPRESSO suite
     for quantum simulation of materials; please cite
         "P. Giannozzi et al., J. Phys.:Condens. Matter 21 395502 (2009);
          URL http://www.quantum-espresso.org", 
     in publications or presentations arising from this work. More details at
     http://www.quantum-espresso.org/quote

     Parallel version (MPI & OpenMP), running on       1 processor cores
     Number of MPI processes:                 1
     Threads/MPI process:                     1

     Reading data from directory:
     /short/y35/tjf502/QE-5.4.0-bw/tempdir/ni.save

   Info: using nr1, nr2, nr3 values from input

   Info: using nr1, nr2, nr3 values from input

     IMPORTANT: XC functional enforced from input :
     Exchange-correlation      =  SLA  PZ   NOGX NOGC ( 1  1  0  0 0 0)
     Any further DFT definition will be discarded
     Please, verify this is what you really want

               file Ni.pz-nd-rrkjus.UPF: wavefunction(s)  4S renormalized
 
     G-vector sticks info
     --------------------
     sticks:   dense  smooth     PW     G-vecs:    dense   smooth      PW
     Sum         421     139     55                 5601     1067     283
 
     Generating pointlists ...
     new r_m :   0.2917 (alat units)  1.8901 (a.u.) for type    1

     Check: negative/imaginary core charge=   -0.000015    0.000000

     Gaussian broadening (read from input): ngauss,degauss=   0    0.036748


     Calling projwave .... 

     Atomic states used for projection
     (read from pseudopotential files):

     state #   1: atom   1 (Ni ), wfc  1 (l=0 m= 1)
     state #   2: atom   1 (Ni ), wfc  2 (l=2 m= 1)
     state #   3: atom   1 (Ni ), wfc  2 (l=2 m= 2)
     state #   4: atom   1 (Ni ), wfc  2 (l=2 m= 3)
     state #   5: atom   1 (Ni ), wfc  2 (l=2 m= 4)
     state #   6: atom   1 (Ni ), wfc  2 (l=2 m= 5)

 k =   1.0000000000  0.0000000000  0.0000000000
==== e(   1) =    10.17277 eV ==== 
     psi = 0.462*[#   2]+0.462*[#   5]+0.071*[#   1]+
    |psi|^2 = 0.996
==== e(   2) =    10.69295 eV ==== 
     psi = 0.332*[#   3]+0.332*[#   4]+0.332*[#   6]+
    |psi|^2 = 0.996
==== e(   3) =    14.79023 eV ==== 
     psi = 0.499*[#   2]+0.499*[#   5]+
    |psi|^2 = 0.999
==== e(   4) =    14.91994 eV ==== 
     psi = 0.333*[#   3]+0.333*[#   4]+0.333*[#   6]+
    |psi|^2 = 0.998
==== e(   5) =    14.91994 eV ==== 
     psi = 0.333*[#   3]+0.333*[#   4]+0.333*[#   6]+
    |psi|^2 = 0.998
==== e(   6) =    17.87150 eV ==== 
     psi = 
    |psi|^2 = 0.000
==== e(   7) =    25.26635 eV ==== 
     psi = 0.765*[#   1]+0.036*[#   2]+0.036*[#   5]+
    |psi|^2 = 0.837
==== e(   8) =    30.89314 eV ==== 
     psi = 
    |psi|^2 = 0.000
==== e(   9) =    30.89314 eV ==== 
     psi = 
    |psi|^2 = 0.000

 k =   0.9750000000  0.0000000000  0.0000000000
==== e(   1) =    10.17389 eV ==== 
     psi = 0.462*[#   2]+0.462*[#   5]+0.072*[#   1]+
    |psi|^2 = 0.996
==== e(   2) =    10.69576 eV ==== 
     psi = 0.332*[#   3]+0.332*[#   4]+0.332*[#   6]+
    |psi|^2 = 0.996
==== e(   3) =    14.78894 eV ==== 
     psi = 0.499*[#   2]+0.499*[#   5]+
    |psi|^2 = 0.999
==== e(   4) =    14.91520 eV ==== 
     psi = 0.333*[#   3]+0.333*[#   4]+0.333*[#   6]+
    |psi|^2 = 0.998
==== e(   5) =    14.91520 eV ==== 
     psi = 0.333*[#   3]+0.333*[#   4]+0.333*[#   6]+
    |psi|^2 = 0.998
==== e(   6) =    17.82346 eV ==== 
     psi = 0.046*[#   1]+0.002*[#   2]+0.002*[#   5]+
    |psi|^2 = 0.050
==== e(   7) =    25.32898 eV ==== 
     psi = 0.723*[#   1]+0.035*[#   2]+0.035*[#   5]+
    |psi|^2 = 0.792
==== e(   8) =    30.90689 eV ==== 
     psi = 
    |psi|^2 = 0.000
==== e(   9) =    30.90689 eV ==== 
     psi = 
    |psi|^2 = 0.000

 k =   0.9500000000  0.0000000000  0.0000000000
==== e(   1) =    10.17713 eV ==== 
     psi = 0.460*[#   2]+0.460*[#   5]+0.076*[#   1]+
    |psi|^2 = 0.996
==== e(   2) =    10.70417 eV ==== 
     psi = 0.332*[#   3]+0.332*[#   4]+0.332*[#   6]+
    |psi|^2 = 0.996
==== e(   3) =    14.78509 eV ==== 
     psi = 0.499*[#   2]+0.499*[#   5]+
    |psi|^2 = 0.999
==== e(   4) =    14.90107 eV ==== 
     psi = 0.333*[#   3]+0.333*[#   4]+0.333*[#   6]+
    |psi|^2 = 0.998
==== e(   5) =    14.90107 eV ==== 
     psi = 0.333*[#   3]+0.333*[#   4]+0.333*[#   6]+
    |psi|^2 = 0.998
==== e(   6) =    17.68436 eV ==== 
     psi = 0.165*[#   1]+0.008*[#   2]+0.008*[#   5]+
    |psi|^2 = 0.181
==== e(   7) =    25.51195 eV ==== 
     psi = 0.614*[#   1]+0.031*[#   2]+0.031*[#   5]+
    |psi|^2 = 0.676
==== e(   8) =    30.94809 eV ==== 
     psi = 
    |psi|^2 = 0.000
==== e(   9) =    30.94809 eV ==== 
     psi = 
    |psi|^2 = 0.000

 k =   0.9250000000  0.0000000000  0.0000000000
==== e(   1) =    10.18181 eV ==== 
     psi = 0.456*[#   2]+0.456*[#   5]+0.083*[#   1]+
    |psi|^2 = 0.996
==== e(   2) =    10.71793 eV ==== 
     psi = 0.332*[#   3]+0.332*[#   4]+0.332*[#   6]+
    |psi|^2 = 0.996
==== e(   3) =    14.77870 eV ==== 
     psi = 0.499*[#   2]+0.499*[#   5]+
    |psi|^2 = 0.999
==== e(   4) =    14.87772 eV ==== 
     psi = 0.333*[#   3]+0.333*[#   4]+0.333*[#   6]+
    |psi|^2 = 0.998
==== e(   5) =    14.87772 eV ==== 
     psi = 0.333*[#   3]+0.333*[#   4]+0.333*[#   6]+
    |psi|^2 = 0.998
==== e(   6) =    17.46729 eV ==== 
     psi = 0.315*[#   1]+0.016*[#   2]+0.016*[#   5]+
    |psi|^2 = 0.347
==== e(   7) =    25.80097 eV ==== 
     psi = 0.477*[#   1]+0.026*[#   2]+0.026*[#   5]+
    |psi|^2 = 0.530
==== e(   8) =    31.01651 eV ==== 
     psi = 
    |psi|^2 = 0.000
==== e(   9) =    31.01651 eV ==== 
     psi = 
    |psi|^2 = 0.000

 k =   0.9000000000  0.0000000000  0.0000000000
==== e(   1) =    10.18778 eV ==== 
     psi = 0.452*[#   2]+0.452*[#   5]+0.092*[#   1]+
    |psi|^2 = 0.996
==== e(   2) =    10.73737 eV ==== 
     psi = 0.332*[#   3]+0.332*[#   4]+0.332*[#   6]+
    |psi|^2 = 0.996
==== e(   3) =    14.76983 eV ==== 
     psi = 0.499*[#   2]+0.499*[#   5]+
    |psi|^2 = 0.999
==== e(   4) =    14.84549 eV ==== 
     psi = 0.333*[#   3]+0.333*[#   4]+0.333*[#   6]+
    |psi|^2 = 0.998
==== e(   5) =    14.84549 eV ==== 
     psi = 0.333*[#   3]+0.333*[#   4]+0.333*[#   6]+
    |psi|^2 = 0.998
==== e(   6) =    17.18950 eV ==== 
     psi = 0.457*[#   1]+0.026*[#   2]+0.026*[#   5]+
    |psi|^2 = 0.508
==== e(   7) =    26.18133 eV ==== 
     psi = 0.346*[#   1]+0.022*[#   2]+0.022*[#   5]+
    |psi|^2 = 0.389
==== e(   8) =    31.11234 eV ==== 
     psi = 
    |psi|^2 = 0.000
==== e(   9) =    31.11234 eV ==== 
     psi = 
    |psi|^2 = 0.000

 k =   0.8750000000  0.0000000000  0.0000000000
==== e(   1) =    10.19392 eV ==== 
     psi = 0.445*[#   2]+0.445*[#   5]+0.105*[#   1]+
    |psi|^2 = 0.996
==== e(   2) =    10.76222 eV ==== 
     psi = 0.332*[#   3]+0.332*[#   4]+0.332*[#   6]+
    |psi|^2 = 0.996
==== e(   3) =    14.75851 eV ==== 
     psi = 0.499*[#   2]+0.499*[#   5]+
    |psi|^2 = 0.999
==== e(   4) =    14.80481 eV ==== 
     psi = 0.333*[#   3]+0.333*[#   4]+0.333*[#   6]+
    |psi|^2 = 0.998
==== e(   5) =    14.80481 eV ==== 
     psi = 0.333*[#   3]+0.333*[#   4]+0.333*[#   6]+
    |psi|^2 = 0.998
==== e(   6) =    16.86822 eV ==== 
     psi = 0.570*[#   1]+0.037*[#   2]+0.037*[#   5]+
    |psi|^2 = 0.644
==== e(   7) =    26.63559 eV ==== 
     psi = 0.239*[#   1]+0.017*[#   2]+0.017*[#   5]+
    |psi|^2 = 0.274
==== e(   8) =    31.23411 eV ==== 
     psi = 
    |psi|^2 = 0.000
==== e(   9) =    31.23411 eV ==== 
     psi = 
    |psi|^2 = 0.000

 k =   0.8500000000  0.0000000000  0.0000000000
==== e(   1) =    10.19898 eV ==== 
     psi = 0.437*[#   2]+0.437*[#   5]+0.121*[#   1]+
    |psi|^2 = 0.996
==== e(   2) =    10.79236 eV ==== 
     psi = 0.332*[#   3]+0.332*[#   4]+0.332*[#   6]+
    |psi|^2 = 0.996
==== e(   3) =    14.74485 eV ==== 
     psi = 0.499*[#   2]+0.499*[#   5]+
    |psi|^2 = 0.999
==== e(   4) =    14.75620 eV ==== 
     psi = 0.333*[#   3]+0.333*[#   4]+0.333*[#   6]+
    |psi|^2 = 0.998
==== e(   5) =    14.75620 eV ==== 
     psi = 0.333*[#   3]+0.333*[#   4]+0.333*[#   6]+
    |psi|^2 = 0.998
==== e(   6) =    16.51890 eV ==== 
     psi = 0.650*[#   1]+0.049*[#   2]+0.049*[#   5]+
    |psi|^2 = 0.748
==== e(   7) =    27.14916 eV ==== 
     psi = 0.160*[#   1]+0.013*[#   2]+0.013*[#   5]+
    |psi|^2 = 0.187
==== e(   8) =    31.38166 eV ==== 
     psi = 
    |psi|^2 = 0.000
==== e(   9) =    31.38166 eV ==== 
     psi = 
    |psi|^2 = 0.000

 k =   0.8250000000  0.0000000000  0.0000000000
==== e(   1) =    10.20128 eV ==== 
     psi = 0.427*[#   2]+0.427*[#   5]+0.142*[#   1]+
    |psi|^2 = 0.996
==== e(   2) =    10.82765 eV ==== 
     psi = 0.332*[#   3]+0.332*[#   4]+0.332*[#   6]+
    |psi|^2 = 0.996
==== e(   3) =    14.70029 eV ==== 
     psi = 0.333*[#   3]+0.333*[#   4]+0.333*[#   6]+
    |psi|^2 = 0.999
==== e(   4) =    14.70029 eV ==== 
     psi = 0.333*[#   3]+0.333*[#   4]+0.333*[#   6]+
    |psi|^2 = 0.999
==== e(   5) =    14.72891 eV ==== 
     psi = 0.499*[#   2]+0.499*[#   5]+
    |psi|^2 = 0.999
==== e(   6) =    16.15450 eV ==== 
     psi = 0.699*[#   1]+0.062*[#   2]+0.062*[#   5]+
    |psi|^2 = 0.824
==== e(   7) =    27.71013 eV ==== 
     psi = 0.104*[#   1]+0.011*[#   2]+0.011*[#   5]+
    |psi|^2 = 0.125
==== e(   8) =    31.55429 eV ==== 
     psi = 
    |psi|^2 = 0.000
==== e(   9) =    31.55429 eV ==== 
     psi = 
    |psi|^2 = 0.000

 k =   0.8000000000  0.0000000000  0.0000000000
==== e(   1) =    10.19874 eV ==== 
     psi = 0.413*[#   2]+0.413*[#   5]+0.169*[#   1]+
    |psi|^2 = 0.996
==== e(   2) =    10.86791 eV ==== 
     psi = 0.332*[#   3]+0.332*[#   4]+0.332*[#   6]+
    |psi|^2 = 0.996
==== e(   3) =    14.63775 eV ==== 
     psi = 0.333*[#   3]+0.333*[#   4]+0.333*[#   6]+
    |psi|^2 = 0.999
==== e(   4) =    14.63775 eV ==== 
     psi = 0.333*[#   3]+0.333*[#   4]+0.333*[#   6]+
    |psi|^2 = 0.999
==== e(   5) =    14.71082 eV ==== 
     psi = 0.499*[#   2]+0.499*[#   5]+
    |psi|^2 = 0.999
==== e(   6) =    15.78576 eV ==== 
     psi = 0.722*[#   1]+0.078*[#   2]+0.078*[#   5]+
    |psi|^2 = 0.878
==== e(   7) =    28.30910 eV ==== 
     psi = 0.066*[#   1]+0.008*[#   2]+0.008*[#   5]+
    |psi|^2 = 0.083
==== e(   8) =    31.75124 eV ==== 
     psi = 
    |psi|^2 = 0.000
==== e(   9) =    31.75124 eV ==== 
     psi = 
    |psi|^2 = 0.000

 k =   0.7750000000  0.0000000000  0.0000000000
==== e(   1) =    10.18875 eV ==== 
     psi = 0.397*[#   2]+0.397*[#   5]+0.202*[#   1]+
    |psi|^2 = 0.996
==== e(   2) =    10.91296 eV ==== 
     psi = 0.332*[#   3]+0.332*[#   4]+0.332*[#   6]+
    |psi|^2 = 0.996
==== e(   3) =    14.56930 eV ==== 
     psi = 0.333*[#   3]+0.333*[#   4]+0.333*[#   6]+
    |psi|^2 = 0.999
==== e(   4) =    14.56930 eV ==== 
     psi = 0.333*[#   3]+0.333*[#   4]+0.333*[#   6]+
    |psi|^2 = 0.999
==== e(   5) =    14.69070 eV ==== 
     psi = 0.499*[#   2]+0.499*[#   5]+
    |psi|^2 = 0.999
==== e(   6) =    15.42174 eV ==== 
     psi = 0.723*[#   1]+0.096*[#   2]+0.096*[#   5]+
    |psi|^2 = 0.915
==== e(   7) =    28.93865 eV ==== 
     psi = 0.042*[#   1]+0.006*[#   2]+0.006*[#   5]+
    |psi|^2 = 0.054
==== e(   8) =    31.97171 eV ==== 
     psi = 
    |psi|^2 = 0.000
==== e(   9) =    31.97171 eV ==== 
     psi = 
    |psi|^2 = 0.000

 k =   0.7500000000  0.0000000000  0.0000000000
==== e(   1) =    10.16819 eV ==== 
     psi = 0.377*[#   2]+0.377*[#   5]+0.243*[#   1]+
    |psi|^2 = 0.996
==== e(   2) =    10.96256 eV ==== 
     psi = 0.332*[#   3]+0.332*[#   4]+0.332*[#   6]+
    |psi|^2 = 0.996
==== e(   3) =    14.49569 eV ==== 
     psi = 0.333*[#   3]+0.333*[#   4]+0.333*[#   6]+
    |psi|^2 = 0.999
==== e(   4) =    14.49569 eV ==== 
     psi = 0.333*[#   3]+0.333*[#   4]+0.333*[#   6]+
    |psi|^2 = 0.999
==== e(   5) =    14.66867 eV ==== 
     psi = 0.499*[#   2]+0.499*[#   5]+
    |psi|^2 = 0.999
==== e(   6) =    15.07039 eV ==== 
     psi = 0.705*[#   1]+0.118*[#   2]+0.118*[#   5]+
    |psi|^2 = 0.941
==== e(   7) =    29.59285 eV ==== 
     psi = 0.026*[#   1]+0.005*[#   2]+0.005*[#   5]+
    |psi|^2 = 0.036
==== e(   8) =    32.21482 eV ==== 
     psi = 
    |psi|^2 = 0.000
==== e(   9) =    32.21482 eV ==== 
     psi = 
    |psi|^2 = 0.000

 k =   0.7250000000  0.0000000000  0.0000000000
==== e(   1) =    10.13344 eV ==== 
     psi = 0.352*[#   2]+0.352*[#   5]+0.292*[#   1]+
    |psi|^2 = 0.996
==== e(   2) =    11.01649 eV ==== 
     psi = 0.332*[#   3]+0.332*[#   4]+0.332*[#   6]+
    |psi|^2 = 0.997
==== e(   3) =    14.41769 eV ==== 
     psi = 0.333*[#   3]+0.333*[#   4]+0.333*[#   6]+
    |psi|^2 = 0.999
==== e(   4) =    14.41769 eV ==== 
     psi = 0.333*[#   3]+0.333*[#   4]+0.333*[#   6]+
    |psi|^2 = 0.999
==== e(   5) =    14.64489 eV ==== 
     psi = 0.499*[#   2]+0.499*[#   5]+
    |psi|^2 = 0.999
==== e(   6) =    14.73886 eV ==== 
     psi = 0.671*[#   1]+0.144*[#   2]+0.144*[#   5]+
    |psi|^2 = 0.959
==== e(   7) =    30.26673 eV ==== 
     psi = 0.015*[#   1]+0.004*[#   2]+0.004*[#   5]+
    |psi|^2 = 0.023
==== e(   8) =    32.47970 eV ==== 
     psi = 
    |psi|^2 = 0.000
==== e(   9) =    32.47970 eV ==== 
     psi = 
    |psi|^2 = 0.000

 k =   0.7000000000  0.0000000000  0.0000000000
==== e(   1) =    10.08056 eV ==== 
     psi = 0.350*[#   1]+0.323*[#   2]+0.323*[#   5]+
    |psi|^2 = 0.996
==== e(   2) =    11.07446 eV ==== 
     psi = 0.332*[#   3]+0.332*[#   4]+0.332*[#   6]+
    |psi|^2 = 0.997
==== e(   3) =    14.33607 eV ==== 
     psi = 0.333*[#   3]+0.333*[#   4]+0.333*[#   6]+
    |psi|^2 = 0.999
==== e(   4) =    14.33607 eV ==== 
     psi = 0.333*[#   3]+0.333*[#   4]+0.333*[#   6]+
    |psi|^2 = 0.999
==== e(   5) =    14.43372 eV ==== 
     psi = 0.624*[#   1]+0.174*[#   2]+0.174*[#   5]+
    |psi|^2 = 0.971
==== e(   6) =    14.61951 eV ==== 
     psi = 0.499*[#   2]+0.499*[#   5]+
    |psi|^2 = 0.999
==== e(   7) =    30.95597 eV ==== 
     psi = 0.009*[#   1]+0.003*[#   2]+0.003*[#   5]+
    |psi|^2 = 0.015
==== e(   8) =    32.76544 eV ==== 
     psi = 
    |psi|^2 = 0.000
==== e(   9) =    32.76544 eV ==== 
     psi = 
    |psi|^2 = 0.000

 k =   0.6750000000  0.0000000000  0.0000000000
==== e(   1) =    10.00563 eV ==== 
     psi = 0.417*[#   1]+0.289*[#   2]+0.289*[#   5]+
    |psi|^2 = 0.996
==== e(   2) =    11.13617 eV ==== 
     psi = 0.332*[#   3]+0.332*[#   4]+0.332*[#   6]+
    |psi|^2 = 0.997
==== e(   3) =    14.16079 eV ==== 
     psi = 0.564*[#   1]+0.208*[#   2]+0.208*[#   5]+
    |psi|^2 = 0.980
==== e(   4) =    14.25158 eV ==== 
     psi = 0.333*[#   3]+0.333*[#   4]+0.333*[#   6]+
    |psi|^2 = 0.999
==== e(   5) =    14.25158 eV ==== 
     psi = 0.333*[#   3]+0.333*[#   4]+0.333*[#   6]+
    |psi|^2 = 0.999
==== e(   6) =    14.59270 eV ==== 
     psi = 0.499*[#   2]+0.499*[#   5]+
    |psi|^2 = 0.999
==== e(   7) =    31.65655 eV ==== 
     psi = 0.005*[#   1]+0.002*[#   2]+0.002*[#   5]+
    |psi|^2 = 0.010
==== e(   8) =    33.07114 eV ==== 
     psi = 
    |psi|^2 = 0.000
==== e(   9) =    33.07114 eV ==== 
     psi = 
    |psi|^2 = 0.000

 k =   0.6500000000  0.0000000000  0.0000000000
==== e(   1) =     9.90534 eV ==== 
     psi = 0.491*[#   1]+0.253*[#   2]+0.253*[#   5]+
    |psi|^2 = 0.996
==== e(   2) =    11.20132 eV ==== 
     psi = 0.332*[#   3]+0.332*[#   4]+0.332*[#   6]+
    |psi|^2 = 0.997
==== e(   3) =    13.92479 eV ==== 
     psi = 0.495*[#   1]+0.245*[#   2]+0.245*[#   5]+
    |psi|^2 = 0.986
==== e(   4) =    14.16495 eV ==== 
     psi = 0.333*[#   3]+0.333*[#   4]+0.333*[#   6]+
    |psi|^2 = 0.999
==== e(   5) =    14.16495 eV ==== 
     psi = 0.333*[#   3]+0.333*[#   4]+0.333*[#   6]+
    |psi|^2 = 0.999
==== e(   6) =    14.56463 eV ==== 
     psi = 0.499*[#   2]+0.499*[#   5]+
    |psi|^2 = 0.999
==== e(   7) =    32.36450 eV ==== 
     psi = 0.003*[#   1]+0.002*[#   2]+0.002*[#   5]+
    |psi|^2 = 0.006
==== e(   8) =    33.39591 eV ==== 
     psi = 
    |psi|^2 = 0.000
==== e(   9) =    33.39591 eV ==== 
     psi = 
    |psi|^2 = 0.000

 k =   0.6250000000  0.0000000000  0.0000000000
==== e(   1) =     9.77683 eV ==== 
     psi = 0.568*[#   1]+0.214*[#   2]+0.214*[#   5]+
    |psi|^2 = 0.996
==== e(   2) =    11.26954 eV ==== 
     psi = 0.332*[#   3]+0.332*[#   4]+0.332*[#   6]+
    |psi|^2 = 0.997
==== e(   3) =    13.72865 eV ==== 
     psi = 0.422*[#   1]+0.284*[#   2]+0.284*[#   5]+
    |psi|^2 = 0.990
==== e(   4) =    14.07687 eV ==== 
     psi = 0.333*[#   3]+0.333*[#   4]+0.333*[#   6]+
    |psi|^2 = 0.999
==== e(   5) =    14.07687 eV ==== 
     psi = 0.333*[#   3]+0.333*[#   4]+0.333*[#   6]+
    |psi|^2 = 0.999
==== e(   6) =    14.53548 eV ==== 
     psi = 0.499*[#   2]+0.499*[#   5]+
    |psi|^2 = 0.999
==== e(   7) =    33.06356 eV ==== 
     psi = 0.001*[#   1]+0.001*[#   2]+0.001*[#   5]+
    |psi|^2 = 0.004
==== e(   8) =    33.73804 eV ==== 
     psi = 
    |psi|^2 = 0.000
==== e(   9) =    33.73804 eV ==== 
     psi = 
    |psi|^2 = 0.000

 k =   0.6000000000  0.0000000000  0.0000000000
==== e(   1) =     9.62160 eV ==== 
     psi = 0.643*[#   1]+0.177*[#   2]+0.177*[#   5]+
    |psi|^2 = 0.996
==== e(   2) =    11.34048 eV ==== 
     psi = 0.332*[#   3]+0.332*[#   4]+0.332*[#   6]+
    |psi|^2 = 0.997
==== e(   3) =    13.57342 eV ==== 
     psi = 0.349*[#   1]+0.322*[#   2]+0.322*[#   5]+
    |psi|^2 = 0.993
==== e(   4) =    13.98804 eV ==== 
     psi = 0.333*[#   3]+0.333*[#   4]+0.333*[#   6]+
    |psi|^2 = 0.999
==== e(   5) =    13.98804 eV ==== 
     psi = 0.333*[#   3]+0.333*[#   4]+0.333*[#   6]+
    |psi|^2 = 0.999
==== e(   6) =    14.50545 eV ==== 
     psi = 0.499*[#   2]+0.499*[#   5]+
    |psi|^2 = 0.999
==== e(   7) =    33.77062 eV ==== 
     psi = 0.001*[#   2]+0.001*[#   5]+
    |psi|^2 = 0.003
==== e(   8) =    34.09794 eV ==== 
     psi = 
    |psi|^2 = 0.000
==== e(   9) =    34.09794 eV ==== 
     psi = 
    |psi|^2 = 0.000

 k =   0.5750000000  0.0000000000  0.0000000000
==== e(   1) =     9.44073 eV ==== 
     psi = 0.714*[#   1]+0.142*[#   2]+0.142*[#   5]+
    |psi|^2 = 0.997
==== e(   2) =    11.41374 eV ==== 
     psi = 0.333*[#   3]+0.333*[#   4]+0.333*[#   6]+
    |psi|^2 = 0.998
==== e(   3) =    13.45759 eV ==== 
     psi = 0.357*[#   2]+0.357*[#   5]+0.280*[#   1]+
    |psi|^2 = 0.995
==== e(   4) =    13.89906 eV ==== 
     psi = 0.333*[#   3]+0.333*[#   4]+0.333*[#   6]+
    |psi|^2 = 0.999
==== e(   5) =    13.89906 eV ==== 
     psi = 0.333*[#   3]+0.333*[#   4]+0.333*[#   6]+
    |psi|^2 = 0.999
==== e(   6) =    14.47472 eV ==== 
     psi = 0.499*[#   2]+0.499*[#   5]+
    |psi|^2 = 0.999
==== e(   7) =    34.47097 eV ==== 
     psi = 
    |psi|^2 = 0.002
==== e(   8) =    34.47418 eV ==== 
     psi = 
    |psi|^2 = 0.000
==== e(   9) =    34.47418 eV ==== 
     psi = 
    |psi|^2 = 0.000

 k =   0.5500000000  0.0000000000  0.0000000000
==== e(   1) =     9.23786 eV ==== 
     psi = 0.775*[#   1]+0.111*[#   2]+0.111*[#   5]+
    |psi|^2 = 0.997
==== e(   2) =    11.48892 eV ==== 
     psi = 0.333*[#   3]+0.333*[#   4]+0.333*[#   6]+
    |psi|^2 = 0.998
==== e(   3) =    13.37778 eV ==== 
     psi = 0.388*[#   2]+0.388*[#   5]+0.220*[#   1]+
    |psi|^2 = 0.997
==== e(   4) =    13.81052 eV ==== 
     psi = 0.333*[#   3]+0.333*[#   4]+0.333*[#   6]+
    |psi|^2 = 0.999
==== e(   5) =    13.81052 eV ==== 
     psi = 0.333*[#   3]+0.333*[#   4]+0.333*[#   6]+
    |psi|^2 = 0.999
==== e(   6) =    14.44349 eV ==== 
     psi = 0.499*[#   2]+0.499*[#   5]+
    |psi|^2 = 0.999
==== e(   7) =    34.86590 eV ==== 
     psi = 
    |psi|^2 = 0.000
==== e(   8) =    34.86590 eV ==== 
     psi = 
    |psi|^2 = 0.000
==== e(   9) =    35.15908 eV ==== 
     psi = 
    |psi|^2 = 0.001

 k =   0.5250000000  0.0000000000  0.0000000000
==== e(   1) =     9.01775 eV ==== 
     psi = 0.827*[#   1]+0.085*[#   2]+0.085*[#   5]+
    |psi|^2 = 0.997
==== e(   2) =    11.56557 eV ==== 
     psi = 0.333*[#   3]+0.333*[#   4]+0.333*[#   6]+
    |psi|^2 = 0.998
==== e(   3) =    13.32941 eV ==== 
     psi = 0.414*[#   2]+0.414*[#   5]+0.169*[#   1]+
    |psi|^2 = 0.998
==== e(   4) =    13.72296 eV ==== 
     psi = 0.333*[#   3]+0.333*[#   4]+0.333*[#   6]+
    |psi|^2 = 0.999
==== e(   5) =    13.72296 eV ==== 
     psi = 0.333*[#   3]+0.333*[#   4]+0.333*[#   6]+
    |psi|^2 = 0.999
==== e(   6) =    14.41195 eV ==== 
     psi = 0.499*[#   2]+0.499*[#   5]+
    |psi|^2 = 0.999
==== e(   7) =    35.27226 eV ==== 
     psi = 
    |psi|^2 = 0.000
==== e(   8) =    35.27226 eV ==== 
     psi = 
    |psi|^2 = 0.000
==== e(   9) =    35.82899 eV ==== 
     psi = 
    |psi|^2 = 0.001

 k =   0.5000000000  0.0000000000  0.0000000000
==== e(   1) =     8.78551 eV ==== 
     psi = 0.869*[#   1]+0.064*[#   2]+0.064*[#   5]+
    |psi|^2 = 0.997
==== e(   2) =    11.64325 eV ==== 
     psi = 0.333*[#   3]+0.333*[#   4]+0.333*[#   6]+
    |psi|^2 = 0.998
==== e(   3) =    13.30739 eV ==== 
     psi = 0.436*[#   2]+0.436*[#   5]+0.127*[#   1]+
    |psi|^2 = 0.998
==== e(   4) =    13.63689 eV ==== 
     psi = 0.333*[#   3]+0.333*[#   4]+0.333*[#   6]+
    |psi|^2 = 0.999
==== e(   5) =    13.63689 eV ==== 
     psi = 0.333*[#   3]+0.333*[#   4]+0.333*[#   6]+
    |psi|^2 = 0.999
==== e(   6) =    14.38030 eV ==== 
     psi = 0.499*[#   2]+0.499*[#   5]+
    |psi|^2 = 0.999
==== e(   7) =    35.69241 eV ==== 
     psi = 
    |psi|^2 = 0.000
==== e(   8) =    35.69241 eV ==== 
     psi = 
    |psi|^2 = 0.000
==== e(   9) =    36.47473 eV ==== 
     psi = 
    |psi|^2 = 0.000

 k =   0.4750000000  0.0000000000  0.0000000000
==== e(   1) =     8.54605 eV ==== 
     psi = 0.903*[#   1]+0.048*[#   2]+0.048*[#   5]+
    |psi|^2 = 0.998
==== e(   2) =    11.72150 eV ==== 
     psi = 0.333*[#   3]+0.333*[#   4]+0.333*[#   6]+
    |psi|^2 = 0.998
==== e(   3) =    13.30675 eV ==== 
     psi = 0.452*[#   2]+0.452*[#   5]+0.095*[#   1]+
    |psi|^2 = 0.999
==== e(   4) =    13.55276 eV ==== 
     psi = 0.333*[#   3]+0.333*[#   4]+0.333*[#   6]+
    |psi|^2 = 0.999
==== e(   5) =    13.55276 eV ==== 
     psi = 0.333*[#   3]+0.333*[#   4]+0.333*[#   6]+
    |psi|^2 = 0.999
==== e(   6) =    14.34873 eV ==== 
     psi = 0.500*[#   2]+0.500*[#   5]+
    |psi|^2 = 0.999
==== e(   7) =    36.12549 eV ==== 
     psi = 
    |psi|^2 = 0.000
==== e(   8) =    36.12549 eV ==== 
     psi = 
    |psi|^2 = 0.000
==== e(   9) =    37.09094 eV ==== 
     psi = 
    |psi|^2 = 0.000

 k =   0.4500000000  0.0000000000  0.0000000000
==== e(   1) =     8.30378 eV ==== 
     psi = 0.928*[#   1]+0.035*[#   2]+0.035*[#   5]+
    |psi|^2 = 0.998
==== e(   2) =    11.79983 eV ==== 
     psi = 0.333*[#   3]+0.333*[#   4]+0.333*[#   6]+
    |psi|^2 = 0.998
==== e(   3) =    13.32299 eV ==== 
     psi = 0.465*[#   2]+0.465*[#   5]+0.069*[#   1]+
    |psi|^2 = 0.999
==== e(   4) =    13.47099 eV ==== 
     psi = 0.333*[#   3]+0.333*[#   4]+0.333*[#   6]+
    |psi|^2 = 0.999
==== e(   5) =    13.47099 eV ==== 
     psi = 0.333*[#   3]+0.333*[#   4]+0.333*[#   6]+
    |psi|^2 = 0.999
==== e(   6) =    14.31745 eV ==== 
     psi = 0.500*[#   2]+0.500*[#   5]+
    |psi|^2 = 0.999
==== e(   7) =    36.57067 eV ==== 
     psi = 
    |psi|^2 = 0.000
==== e(   8) =    36.57067 eV ==== 
     psi = 
    |psi|^2 = 0.000
==== e(   9) =    37.67376 eV ==== 
     psi = 
    |psi|^2 = 0.000

 k =   0.4250000000  0.0000000000  0.0000000000
==== e(   1) =     8.06244 eV ==== 
     psi = 0.948*[#   1]+0.025*[#   2]+0.025*[#   5]+
    |psi|^2 = 0.998
==== e(   2) =    11.87775 eV ==== 
     psi = 0.333*[#   3]+0.333*[#   4]+0.333*[#   6]+
    |psi|^2 = 0.999
==== e(   3) =    13.35219 eV ==== 
     psi = 0.475*[#   2]+0.475*[#   5]+0.050*[#   1]+
    |psi|^2 = 0.999
==== e(   4) =    13.39196 eV ==== 
     psi = 0.333*[#   3]+0.333*[#   4]+0.333*[#   6]+
    |psi|^2 = 1.000
==== e(   5) =    13.39196 eV ==== 
     psi = 0.333*[#   3]+0.333*[#   4]+0.333*[#   6]+
    |psi|^2 = 1.000
==== e(   6) =    14.28663 eV ==== 
     psi = 0.500*[#   2]+0.500*[#   5]+
    |psi|^2 = 0.999
==== e(   7) =    37.02705 eV ==== 
     psi = 
    |psi|^2 = 0.000
==== e(   8) =    37.02705 eV ==== 
     psi = 
    |psi|^2 = 0.000
==== e(   9) =    37.80137 eV ==== 
     psi = 
    |psi|^2 = 0.001

 k =   0.4000000000  0.0000000000  0.0000000000
==== e(   1) =     7.82516 eV ==== 
     psi = 0.962*[#   1]+0.018*[#   2]+0.018*[#   5]+
    |psi|^2 = 0.998
==== e(   2) =    11.95477 eV ==== 
     psi = 0.333*[#   3]+0.333*[#   4]+0.333*[#   6]+
    |psi|^2 = 0.999
==== e(   3) =    13.31601 eV ==== 
     psi = 0.333*[#   3]+0.333*[#   4]+0.333*[#   6]+
    |psi|^2 = 1.000
==== e(   4) =    13.31601 eV ==== 
     psi = 0.333*[#   3]+0.333*[#   4]+0.333*[#   6]+
    |psi|^2 = 1.000
==== e(   5) =    13.39102 eV ==== 
     psi = 0.482*[#   2]+0.482*[#   5]+0.036*[#   1]+
    |psi|^2 = 0.999
==== e(   6) =    14.25647 eV ==== 
     psi = 0.500*[#   2]+0.500*[#   5]+
    |psi|^2 = 0.999
==== e(   7) =    37.49371 eV ==== 
     psi = 
    |psi|^2 = 0.000
==== e(   8) =    37.49371 eV ==== 
     psi = 
    |psi|^2 = 0.000
==== e(   9) =    37.93497 eV ==== 
     psi = 
    |psi|^2 = 0.001

 k =   0.3750000000  0.0000000000  0.0000000000
==== e(   1) =     7.59449 eV ==== 
     psi = 0.973*[#   1]+0.013*[#   2]+0.013*[#   5]+
    |psi|^2 = 0.998
==== e(   2) =    12.03038 eV ==== 
     psi = 0.333*[#   3]+0.333*[#   4]+0.333*[#   6]+
    |psi|^2 = 0.999
==== e(   3) =    13.24343 eV ==== 
     psi = 0.333*[#   3]+0.333*[#   4]+0.333*[#   6]+
    |psi|^2 = 1.000
==== e(   4) =    13.24343 eV ==== 
     psi = 0.333*[#   3]+0.333*[#   4]+0.333*[#   6]+
    |psi|^2 = 1.000
==== e(   5) =    13.43672 eV ==== 
     psi = 0.487*[#   2]+0.487*[#   5]+0.025*[#   1]+
    |psi|^2 = 1.000
==== e(   6) =    14.22714 eV ==== 
     psi = 0.500*[#   2]+0.500*[#   5]+
    |psi|^2 = 0.999
==== e(   7) =    37.96969 eV ==== 
     psi = 
    |psi|^2 = 0.000
==== e(   8) =    37.96969 eV ==== 
     psi = 
    |psi|^2 = 0.000
==== e(   9) =    38.07444 eV ==== 
     psi = 
    |psi|^2 = 0.001

 k =   0.3500000000  0.0000000000  0.0000000000
==== e(   1) =     7.37251 eV ==== 
     psi = 0.981*[#   1]+0.009*[#   2]+0.009*[#   5]+
    |psi|^2 = 0.998
==== e(   2) =    12.10333 eV ==== 
     psi = 0.333*[#   3]+0.333*[#   4]+0.333*[#   6]+
    |psi|^2 = 0.999
==== e(   3) =    13.17431 eV ==== 
     psi = 0.333*[#   3]+0.333*[#   4]+0.333*[#   6]+
    |psi|^2 = 1.000
==== e(   4) =    13.17431 eV ==== 
     psi = 0.333*[#   3]+0.333*[#   4]+0.333*[#   6]+
    |psi|^2 = 1.000
==== e(   5) =    13.48692 eV ==== 
     psi = 0.491*[#   2]+0.491*[#   5]+0.018*[#   1]+
    |psi|^2 = 1.000
==== e(   6) =    14.19880 eV ==== 
     psi = 0.500*[#   2]+0.500*[#   5]+
    |psi|^2 = 0.999
==== e(   7) =    38.19604 eV ==== 
     psi = 
    |psi|^2 = 0.001
==== e(   8) =    38.44669 eV ==== 
     psi = 
    |psi|^2 = 0.000
==== e(   9) =    38.44669 eV ==== 
     psi = 
    |psi|^2 = 0.000

 k =   0.3250000000  0.0000000000  0.0000000000
==== e(   1) =     7.16092 eV ==== 
     psi = 0.986*[#   1]+0.006*[#   2]+0.006*[#   5]+
    |psi|^2 = 0.999
==== e(   2) =    12.17462 eV ==== 
     psi = 0.333*[#   3]+0.333*[#   4]+0.333*[#   6]+
    |psi|^2 = 0.999
==== e(   3) =    13.10926 eV ==== 
     psi = 0.333*[#   3]+0.333*[#   4]+0.333*[#   6]+
    |psi|^2 = 1.000
==== e(   4) =    13.10926 eV ==== 
     psi = 0.333*[#   3]+0.333*[#   4]+0.333*[#   6]+
    |psi|^2 = 1.000
==== e(   5) =    13.53979 eV ==== 
     psi = 0.494*[#   2]+0.494*[#   5]+0.012*[#   1]+
    |psi|^2 = 1.000
==== e(   6) =    14.17165 eV ==== 
     psi = 0.500*[#   2]+0.500*[#   5]+
    |psi|^2 = 0.999
==== e(   7) =    38.34479 eV ==== 
     psi = 
    |psi|^2 = 0.001
==== e(   8) =    38.93707 eV ==== 
     psi = 
    |psi|^2 = 0.000
==== e(   9) =    38.93707 eV ==== 
     psi = 
    |psi|^2 = 0.000

 k =   0.3000000000  0.0000000000  0.0000000000
==== e(   1) =     6.96111 eV ==== 
     psi = 0.990*[#   1]+0.004*[#   2]+0.004*[#   5]+
    |psi|^2 = 0.999
==== e(   2) =    12.24301 eV ==== 
     psi = 0.333*[#   3]+0.333*[#   4]+0.333*[#   6]+
    |psi|^2 = 0.999
==== e(   3) =    13.04833 eV ==== 
     psi = 0.333*[#   3]+0.333*[#   4]+0.333*[#   6]+
    |psi|^2 = 1.000
==== e(   4) =    13.04833 eV ==== 
     psi = 0.333*[#   3]+0.333*[#   4]+0.333*[#   6]+
    |psi|^2 = 1.000
==== e(   5) =    13.59365 eV ==== 
     psi = 0.496*[#   2]+0.496*[#   5]+0.008*[#   1]+
    |psi|^2 = 1.000
==== e(   6) =    14.14584 eV ==== 
     psi = 0.500*[#   2]+0.500*[#   5]+
    |psi|^2 = 0.999
==== e(   7) =    38.49758 eV ==== 
     psi = 
    |psi|^2 = 0.001
==== e(   8) =    39.43317 eV ==== 
     psi = 
    |psi|^2 = 0.000
==== e(   9) =    39.43317 eV ==== 
     psi = 
    |psi|^2 = 0.000

 k =   0.2750000000  0.0000000000  0.0000000000
==== e(   1) =     6.77421 eV ==== 
     psi = 0.993*[#   1]+0.003*[#   2]+0.003*[#   5]+
    |psi|^2 = 0.999
==== e(   2) =    12.30800 eV ==== 
     psi = 0.333*[#   3]+0.333*[#   4]+0.333*[#   6]+
    |psi|^2 = 0.999
==== e(   3) =    12.99168 eV ==== 
     psi = 0.333*[#   3]+0.333*[#   4]+0.333*[#   6]+
    |psi|^2 = 1.000
==== e(   4) =    12.99168 eV ==== 
     psi = 0.333*[#   3]+0.333*[#   4]+0.333*[#   6]+
    |psi|^2 = 1.000
==== e(   5) =    13.64715 eV ==== 
     psi = 0.497*[#   2]+0.497*[#   5]+0.005*[#   1]+
    |psi|^2 = 1.000
==== e(   6) =    14.12152 eV ==== 
     psi = 0.500*[#   2]+0.500*[#   5]+
    |psi|^2 = 0.999
==== e(   7) =    38.65330 eV ==== 
     psi = 
    |psi|^2 = 0.001
==== e(   8) =    39.93347 eV ==== 
     psi = 
    |psi|^2 = 0.000
==== e(   9) =    39.93347 eV ==== 
     psi = 
    |psi|^2 = 0.000

 k =   0.2500000000  0.0000000000  0.0000000000
==== e(   1) =     6.60115 eV ==== 
     psi = 0.995*[#   1]+0.002*[#   2]+0.002*[#   5]+
    |psi|^2 = 0.999
==== e(   2) =    12.36935 eV ==== 
     psi = 0.333*[#   3]+0.333*[#   4]+0.333*[#   6]+
    |psi|^2 = 0.999
==== e(   3) =    12.93963 eV ==== 
     psi = 0.333*[#   3]+0.333*[#   4]+0.333*[#   6]+
    |psi|^2 = 1.000
==== e(   4) =    12.93963 eV ==== 
     psi = 0.333*[#   3]+0.333*[#   4]+0.333*[#   6]+
    |psi|^2 = 1.000
==== e(   5) =    13.69914 eV ==== 
     psi = 0.498*[#   2]+0.498*[#   5]+0.003*[#   1]+
    |psi|^2 = 1.000
==== e(   6) =    14.09882 eV ==== 
     psi = 0.500*[#   2]+0.500*[#   5]+
    |psi|^2 = 0.999
==== e(   7) =    38.81204 eV ==== 
     psi = 
    |psi|^2 = 0.000
==== e(   8) =    40.43863 eV ==== 
     psi = 
    |psi|^2 = 0.000
==== e(   9) =    40.43863 eV ==== 
     psi = 
    |psi|^2 = 0.000

 k =   0.2250000000  0.0000000000  0.0000000000
==== e(   1) =     6.44269 eV ==== 
     psi = 0.997*[#   1]+0.001*[#   2]+0.001*[#   5]+
    |psi|^2 = 0.999
==== e(   2) =    12.42616 eV ==== 
     psi = 0.333*[#   3]+0.333*[#   4]+0.333*[#   6]+
    |psi|^2 = 1.000
==== e(   3) =    12.89204 eV ==== 
     psi = 0.333*[#   3]+0.333*[#   4]+0.333*[#   6]+
    |psi|^2 = 1.000
==== e(   4) =    12.89204 eV ==== 
     psi = 0.333*[#   3]+0.333*[#   4]+0.333*[#   6]+
    |psi|^2 = 1.000
==== e(   5) =    13.74866 eV ==== 
     psi = 0.499*[#   2]+0.499*[#   5]+0.002*[#   1]+
    |psi|^2 = 1.000
==== e(   6) =    14.07787 eV ==== 
     psi = 0.500*[#   2]+0.500*[#   5]+
    |psi|^2 = 0.999
==== e(   7) =    38.96835 eV ==== 
     psi = 
    |psi|^2 = 0.000
==== e(   8) =    40.94104 eV ==== 
     psi = 
    |psi|^2 = 0.000
==== e(   9) =    40.94104 eV ==== 
     psi = 
    |psi|^2 = 0.000

 k =   0.2000000000  0.0000000000  0.0000000000
==== e(   1) =     6.29947 eV ==== 
     psi = 0.997*[#   1]+
    |psi|^2 = 0.999
==== e(   2) =    12.47824 eV ==== 
     psi = 0.333*[#   3]+0.333*[#   4]+0.333*[#   6]+
    |psi|^2 = 1.000
==== e(   3) =    12.84918 eV ==== 
     psi = 0.333*[#   3]+0.333*[#   4]+0.333*[#   6]+
    |psi|^2 = 1.000
==== e(   4) =    12.84918 eV ==== 
     psi = 0.333*[#   3]+0.333*[#   4]+0.333*[#   6]+
    |psi|^2 = 1.000
==== e(   5) =    13.79488 eV ==== 
     psi = 0.499*[#   2]+0.499*[#   5]+0.001*[#   1]+
    |psi|^2 = 1.000
==== e(   6) =    14.05880 eV ==== 
     psi = 0.500*[#   2]+0.500*[#   5]+
    |psi|^2 = 0.999
==== e(   7) =    39.12237 eV ==== 
     psi = 
    |psi|^2 = 0.000
==== e(   8) =    41.44056 eV ==== 
     psi = 
    |psi|^2 = 0.000
==== e(   9) =    41.44056 eV ==== 
     psi = 
    |psi|^2 = 0.000

 k =   0.1750000000  0.0000000000  0.0000000000
==== e(   1) =     6.17203 eV ==== 
     psi = 0.998*[#   1]+
    |psi|^2 = 0.999
==== e(   2) =    12.52514 eV ==== 
     psi = 0.333*[#   3]+0.333*[#   4]+0.333*[#   6]+
    |psi|^2 = 1.000
==== e(   3) =    12.81095 eV ==== 
     psi = 0.333*[#   3]+0.333*[#   4]+0.333*[#   6]+
    |psi|^2 = 1.000
==== e(   4) =    12.81095 eV ==== 
     psi = 0.333*[#   3]+0.333*[#   4]+0.333*[#   6]+
    |psi|^2 = 1.000
==== e(   5) =    13.83705 eV ==== 
     psi = 0.499*[#   2]+0.499*[#   5]+
    |psi|^2 = 1.000
==== e(   6) =    14.04172 eV ==== 
     psi = 0.500*[#   2]+0.500*[#   5]+
    |psi|^2 = 0.999
==== e(   7) =    39.26810 eV ==== 
     psi = 
    |psi|^2 = 0.000
==== e(   8) =    41.92581 eV ==== 
     psi = 
    |psi|^2 = 0.000
==== e(   9) =    41.92581 eV ==== 
     psi = 
    |psi|^2 = 0.000

 k =   0.1500000000  0.0000000000  0.0000000000
==== e(   1) =     6.06079 eV ==== 
     psi = 0.998*[#   1]+
    |psi|^2 = 0.999
==== e(   2) =    12.56661 eV ==== 
     psi = 0.333*[#   3]+0.333*[#   4]+0.333*[#   6]+
    |psi|^2 = 1.000
==== e(   3) =    12.77780 eV ==== 
     psi = 0.333*[#   3]+0.333*[#   4]+0.333*[#   6]+
    |psi|^2 = 1.000
==== e(   4) =    12.77780 eV ==== 
     psi = 0.333*[#   3]+0.333*[#   4]+0.333*[#   6]+
    |psi|^2 = 1.000
==== e(   5) =    13.87473 eV ==== 
     psi = 0.500*[#   2]+0.500*[#   5]+
    |psi|^2 = 0.999
==== e(   6) =    14.02671 eV ==== 
     psi = 0.500*[#   2]+0.500*[#   5]+
    |psi|^2 = 0.999
==== e(   7) =    39.40892 eV ==== 
     psi = 
    |psi|^2 = 0.000
==== e(   8) =    42.40565 eV ==== 
     psi = 
    |psi|^2 = 0.000
==== e(   9) =    42.40565 eV ==== 
     psi = 
    |psi|^2 = 0.000

 k =   0.1250000000  0.0000000000  0.0000000000
==== e(   1) =     5.96611 eV ==== 
     psi = 0.999*[#   1]+
    |psi|^2 = 0.999
==== e(   2) =    12.60227 eV ==== 
     psi = 0.333*[#   3]+0.333*[#   4]+0.333*[#   6]+
    |psi|^2 = 1.000
==== e(   3) =    12.74972 eV ==== 
     psi = 0.333*[#   3]+0.333*[#   4]+0.333*[#   6]+
    |psi|^2 = 1.000
==== e(   4) =    12.74972 eV ==== 
     psi = 0.333*[#   3]+0.333*[#   4]+0.333*[#   6]+
    |psi|^2 = 1.000
==== e(   5) =    13.90749 eV ==== 
     psi = 0.500*[#   2]+0.500*[#   5]+
    |psi|^2 = 0.999
==== e(   6) =    14.01387 eV ==== 
     psi = 0.500*[#   2]+0.500*[#   5]+
    |psi|^2 = 0.999
==== e(   7) =    39.53809 eV ==== 
     psi = 
    |psi|^2 = 0.000
==== e(   8) =    42.86693 eV ==== 
     psi = 
    |psi|^2 = 0.000
==== e(   9) =    42.86693 eV ==== 
     psi = 
    |psi|^2 = 0.000

 k =   0.1000000000  0.0000000000  0.0000000000
==== e(   1) =     5.88828 eV ==== 
     psi = 0.999*[#   1]+
    |psi|^2 = 0.999
==== e(   2) =    12.63185 eV ==== 
     psi = 0.333*[#   3]+0.333*[#   4]+0.333*[#   6]+
    |psi|^2 = 1.000
==== e(   3) =    12.72659 eV ==== 
     psi = 0.333*[#   3]+0.333*[#   4]+0.333*[#   6]+
    |psi|^2 = 1.000
==== e(   4) =    12.72659 eV ==== 
     psi = 0.333*[#   3]+0.333*[#   4]+0.333*[#   6]+
    |psi|^2 = 1.000
==== e(   5) =    13.93470 eV ==== 
     psi = 0.500*[#   2]+0.500*[#   5]+
    |psi|^2 = 0.999
==== e(   6) =    14.00326 eV ==== 
     psi = 0.500*[#   2]+0.500*[#   5]+
    |psi|^2 = 0.999
==== e(   7) =    39.65166 eV ==== 
     psi = 
    |psi|^2 = 0.000
==== e(   8) =    43.29658 eV ==== 
     psi = 
    |psi|^2 = 0.000
==== e(   9) =    43.29658 eV ==== 
     psi = 
    |psi|^2 = 0.000

 k =   0.0750000000  0.0000000000  0.0000000000
==== e(   1) =     5.82753 eV ==== 
     psi = 0.999*[#   1]+
    |psi|^2 = 0.999
==== e(   2) =    12.65510 eV ==== 
     psi = 0.333*[#   3]+0.333*[#   4]+0.333*[#   6]+
    |psi|^2 = 1.000
==== e(   3) =    12.70856 eV ==== 
     psi = 0.333*[#   3]+0.333*[#   4]+0.333*[#   6]+
    |psi|^2 = 1.000
==== e(   4) =    12.70856 eV ==== 
     psi = 0.333*[#   3]+0.333*[#   4]+0.333*[#   6]+
    |psi|^2 = 1.000
==== e(   5) =    13.95618 eV ==== 
     psi = 0.500*[#   2]+0.500*[#   5]+
    |psi|^2 = 0.999
==== e(   6) =    13.99495 eV ==== 
     psi = 0.500*[#   2]+0.500*[#   5]+
    |psi|^2 = 0.999
==== e(   7) =    39.74558 eV ==== 
     psi = 
    |psi|^2 = 0.000
==== e(   8) =    43.67938 eV ==== 
     psi = 
    |psi|^2 = 0.000
==== e(   9) =    43.67938 eV ==== 
     psi = 
    |psi|^2 = 0.000

 k =   0.0500000000  0.0000000000  0.0000000000
==== e(   1) =     5.78401 eV ==== 
     psi = 0.999*[#   1]+
    |psi|^2 = 0.999
==== e(   2) =    12.67184 eV ==== 
     psi = 0.333*[#   3]+0.333*[#   4]+0.333*[#   6]+
    |psi|^2 = 1.000
==== e(   3) =    12.69565 eV ==== 
     psi = 0.333*[#   3]+0.333*[#   4]+0.333*[#   6]+
    |psi|^2 = 1.000
==== e(   4) =    12.69565 eV ==== 
     psi = 0.333*[#   3]+0.333*[#   4]+0.333*[#   6]+
    |psi|^2 = 1.000
==== e(   5) =    13.97168 eV ==== 
     psi = 0.500*[#   2]+0.500*[#   5]+
    |psi|^2 = 0.999
==== e(   6) =    13.98898 eV ==== 
     psi = 0.500*[#   2]+0.500*[#   5]+
    |psi|^2 = 0.999
==== e(   7) =    39.81599 eV ==== 
     psi = 
    |psi|^2 = 0.000
==== e(   8) =    43.99118 eV ==== 
     psi = 
    |psi|^2 = 0.000
==== e(   9) =    43.99118 eV ==== 
     psi = 
    |psi|^2 = 0.000

 k =   0.0250000000  0.0000000000  0.0000000000
==== e(   1) =     5.75785 eV ==== 
     psi = 0.999*[#   1]+
    |psi|^2 = 0.999
==== e(   2) =    12.68194 eV ==== 
     psi = 0.333*[#   3]+0.333*[#   4]+0.333*[#   6]+
    |psi|^2 = 1.000
==== e(   3) =    12.68790 eV ==== 
     psi = 0.333*[#   3]+0.333*[#   4]+0.333*[#   6]+
    |psi|^2 = 1.000
==== e(   4) =    12.68790 eV ==== 
     psi = 0.333*[#   3]+0.333*[#   4]+0.333*[#   6]+
    |psi|^2 = 1.000
==== e(   5) =    13.98105 eV ==== 
     psi = 0.500*[#   2]+0.500*[#   5]+
    |psi|^2 = 0.999
==== e(   6) =    13.98538 eV ==== 
     psi = 0.500*[#   2]+0.500*[#   5]+
    |psi|^2 = 0.999
==== e(   7) =    39.85969 eV ==== 
     psi = 
    |psi|^2 = 0.000
==== e(   8) =    44.20008 eV ==== 
     psi = 
    |psi|^2 = 0.000
==== e(   9) =    44.20008 eV ==== 
     psi = 
    |psi|^2 = 0.000

 k =   0.0000000000  0.0000000000  0.0000000000
==== e(   1) =     5.74912 eV ==== 
     psi = 0.999*[#   1]+
    |psi|^2 = 0.999
==== e(   2) =    12.68531 eV ==== 
     psi = 0.333*[#   3]+0.333*[#   4]+0.333*[#   6]+
    |psi|^2 = 1.000
==== e(   3) =    12.68531 eV ==== 
     psi = 0.333*[#   3]+0.333*[#   4]+0.333*[#   6]+
    |psi|^2 = 1.000
==== e(   4) =    12.68531 eV ==== 
     psi = 0.333*[#   3]+0.333*[#   4]+0.333*[#   6]+
    |psi|^2 = 1.000
==== e(   5) =    13.98418 eV ==== 
     psi = 0.500*[#   2]+0.500*[#   5]+
    |psi|^2 = 0.999
==== e(   6) =    13.98418 eV ==== 
     psi = 0.500*[#   2]+0.500*[#   5]+
    |psi|^2 = 0.999
==== e(   7) =    39.87451 eV ==== 
     psi = 
    |psi|^2 = 0.000
==== e(   8) =    44.27442 eV ==== 
     psi = 
    |psi|^2 = 0.000
==== e(   9) =    44.27442 eV ==== 
     psi = 
    |psi|^2 = 0.000

 k =   0.0178571420  0.0178571420  0.0000000000
==== e(   1) =     5.75803 eV ==== 
     psi = 0.999*[#   1]+
    |psi|^2 = 0.999
==== e(   2) =    12.68256 eV ==== 
     psi = 0.333*[#   3]+0.333*[#   4]+0.333*[#   6]+
    |psi|^2 = 1.000
==== e(   3) =    12.68726 eV ==== 
     psi = 0.333*[#   3]+0.333*[#   4]+0.333*[#   6]+
    |psi|^2 = 1.000
==== e(   4) =    12.68795 eV ==== 
     psi = 0.333*[#   3]+0.333*[#   4]+0.333*[#   6]+
    |psi|^2 = 1.000
==== e(   5) =    13.98209 eV ==== 
     psi = 0.500*[#   2]+0.500*[#   5]+
    |psi|^2 = 0.999
==== e(   6) =    13.98430 eV ==== 
     psi = 0.500*[#   2]+0.500*[#   5]+
    |psi|^2 = 0.999
==== e(   7) =    39.85910 eV ==== 
     psi = 
    |psi|^2 = 0.000
==== e(   8) =    44.13601 eV ==== 
     psi = 
    |psi|^2 = 0.000
==== e(   9) =    44.19973 eV ==== 
     psi = 
    |psi|^2 = 0.000

 k =   0.0357142850  0.0357142850  0.0000000000
==== e(   1) =     5.78472 eV ==== 
     psi = 0.999*[#   1]+
    |psi|^2 = 0.999
==== e(   2) =    12.67436 eV ==== 
     psi = 0.333*[#   3]+0.333*[#   4]+0.333*[#   6]+
    |psi|^2 = 1.000
==== e(   3) =    12.69308 eV ==== 
     psi = 0.333*[#   3]+0.333*[#   4]+0.333*[#   6]+
    |psi|^2 = 1.000
==== e(   4) =    12.69578 eV ==== 
     psi = 0.333*[#   3]+0.333*[#   4]+0.333*[#   6]+
    |psi|^2 = 1.000
==== e(   5) =    13.97585 eV ==== 
     psi = 0.500*[#   2]+0.500*[#   5]+
    |psi|^2 = 0.999
==== e(   6) =    13.98473 eV ==== 
     psi = 0.500*[#   2]+0.500*[#   5]+
    |psi|^2 = 0.999
==== e(   7) =    39.81027 eV ==== 
     psi = 
    |psi|^2 = 0.000
==== e(   8) =    43.76418 eV ==== 
     psi = 
    |psi|^2 = 0.000
==== e(   9) =    44.00178 eV ==== 
     psi = 
    |psi|^2 = 0.000

 k =   0.0535714280  0.0535714280  0.0000000000
==== e(   1) =     5.82910 eV ==== 
     psi = 0.999*[#   1]+
    |psi|^2 = 0.999
==== e(   2) =    12.66082 eV ==== 
     psi = 0.333*[#   3]+0.333*[#   4]+0.333*[#   6]+
    |psi|^2 = 1.000
==== e(   3) =    12.70277 eV ==== 
     psi = 0.333*[#   3]+0.333*[#   4]+0.333*[#   6]+
    |psi|^2 = 1.000
==== e(   4) =    12.70860 eV ==== 
     psi = 0.333*[#   3]+0.333*[#   4]+0.333*[#   6]+
    |psi|^2 = 1.000
==== e(   5) =    13.96557 eV ==== 
     psi = 0.500*[#   2]+0.500*[#   5]+
    |psi|^2 = 0.999
==== e(   6) =    13.98560 eV ==== 
     psi = 0.500*[#   2]+0.500*[#   5]+
    |psi|^2 = 0.999
==== e(   7) =    39.72047 eV ==== 
     psi = 
    |psi|^2 = 0.000
==== e(   8) =    43.24202 eV ==== 
     psi = 
    |psi|^2 = 0.000
==== e(   9) =    43.73768 eV ==== 
     psi = 
    |psi|^2 = 0.000

 k =   0.0714285710  0.0714285710  0.0000000000
==== e(   1) =     5.89106 eV ==== 
     psi = 0.999*[#   1]+
    |psi|^2 = 0.999
==== e(   2) =    12.64216 eV ==== 
     psi = 0.333*[#   3]+0.333*[#   4]+0.333*[#   6]+
    |psi|^2 = 1.000
==== e(   3) =    12.71627 eV ==== 
     psi = 0.333*[#   3]+0.333*[#   4]+0.333*[#   6]+
    |psi|^2 = 1.000
==== e(   4) =    12.72605 eV ==== 
     psi = 0.333*[#   3]+0.333*[#   4]+0.333*[#   6]+
    |psi|^2 = 1.000
==== e(   5) =    13.95141 eV ==== 
     psi = 0.500*[#   2]+0.500*[#   5]+
    |psi|^2 = 0.999
==== e(   6) =    13.98718 eV ==== 
     psi = 0.499*[#   2]+0.499*[#   5]+
    |psi|^2 = 0.999
==== e(   7) =    39.57837 eV ==== 
     psi = 
    |psi|^2 = 0.000
==== e(   8) =    42.63538 eV ==== 
     psi = 
    |psi|^2 = 0.000
==== e(   9) =    43.46397 eV ==== 
     psi = 
    |psi|^2 = 0.000

 k =   0.0892857140  0.0892857140  0.0000000000
==== e(   1) =     5.97039 eV ==== 
     psi = 0.998*[#   1]+
    |psi|^2 = 0.999
==== e(   2) =    12.61864 eV ==== 
     psi = 0.333*[#   3]+0.333*[#   4]+0.333*[#   6]+
    |psi|^2 = 1.000
==== e(   3) =    12.73355 eV ==== 
     psi = 0.333*[#   3]+0.333*[#   4]+0.333*[#   6]+
    |psi|^2 = 1.000
==== e(   4) =    12.74760 eV ==== 
     psi = 0.332*[#   3]+0.332*[#   4]+0.332*[#   6]+0.001*[#   2]+0.001*[#   5]+
    |psi|^2 = 1.000
==== e(   5) =    13.93359 eV ==== 
     psi = 0.500*[#   2]+0.500*[#   5]+
    |psi|^2 = 0.999
==== e(   6) =    13.98987 eV ==== 
     psi = 0.498*[#   2]+0.498*[#   5]+
    |psi|^2 = 0.999
==== e(   7) =    39.37197 eV ==== 
     psi = 
    |psi|^2 = 0.000
==== e(   8) =    41.98399 eV ==== 
     psi = 
    |psi|^2 = 0.000
==== e(   9) =    43.22381 eV ==== 
     psi = 
    |psi|^2 = 0.000

 k =   0.1071428570  0.1071428570  0.0000000000
==== e(   1) =     6.06685 eV ==== 
     psi = 0.998*[#   1]+
    |psi|^2 = 0.999
==== e(   2) =    12.59063 eV ==== 
     psi = 0.333*[#   3]+0.333*[#   4]+0.333*[#   6]+
    |psi|^2 = 1.000
==== e(   3) =    12.75454 eV ==== 
     psi = 0.333*[#   3]+0.333*[#   4]+0.333*[#   6]+
    |psi|^2 = 1.000
==== e(   4) =    12.77256 eV ==== 
     psi = 0.331*[#   3]+0.331*[#   4]+0.331*[#   6]+0.003*[#   2]+0.003*[#   5]+
    |psi|^2 = 1.000
==== e(   5) =    13.91241 eV ==== 
     psi = 0.500*[#   2]+0.500*[#   5]+
    |psi|^2 = 0.999
==== e(   6) =    13.99421 eV ==== 
     psi = 0.497*[#   2]+0.497*[#   5]+0.002*[#   3]+0.002*[#   4]+0.002*[#   6]+
    |psi|^2 = 0.999
==== e(   7) =    39.09341 eV ==== 
     psi = 
    |psi|^2 = 0.000
==== e(   8) =    41.31047 eV ==== 
     psi = 
    |psi|^2 = 0.000
==== e(   9) =    43.04466 eV ==== 
     psi = 
    |psi|^2 = 0.000

 k =   0.1250000000  0.1250000000  0.0000000000
==== e(   1) =     6.18012 eV ==== 
     psi = 0.998*[#   1]+
    |psi|^2 = 0.999
==== e(   2) =    12.55880 eV ==== 
     psi = 0.333*[#   3]+0.333*[#   4]+0.333*[#   6]+
    |psi|^2 = 1.000
==== e(   3) =    12.77918 eV ==== 
     psi = 0.333*[#   3]+0.333*[#   4]+0.333*[#   6]+
    |psi|^2 = 1.000
==== e(   4) =    12.80020 eV ==== 
     psi = 0.329*[#   3]+0.329*[#   4]+0.329*[#   6]+0.005*[#   2]+0.005*[#   5]+
    |psi|^2 = 1.000
==== e(   5) =    13.88824 eV ==== 
     psi = 0.500*[#   2]+0.500*[#   5]+
    |psi|^2 = 0.999
==== e(   6) =    14.00092 eV ==== 
     psi = 0.494*[#   2]+0.494*[#   5]+0.004*[#   3]+0.004*[#   4]+0.004*[#   6]+
    |psi|^2 = 0.999
==== e(   7) =    38.75254 eV ==== 
     psi = 
    |psi|^2 = 0.000
==== e(   8) =    40.63073 eV ==== 
     psi = 
    |psi|^2 = 0.000
==== e(   9) =    42.93960 eV ==== 
     psi = 
    |psi|^2 = 0.000

 k =   0.1428571420  0.1428571420  0.0000000000
==== e(   1) =     6.30983 eV ==== 
     psi = 0.997*[#   1]+
    |psi|^2 = 0.999
==== e(   2) =    12.52282 eV ==== 
     psi = 0.333*[#   3]+0.333*[#   4]+0.333*[#   6]+
    |psi|^2 = 1.000
==== e(   3) =    12.80727 eV ==== 
     psi = 0.333*[#   3]+0.333*[#   4]+0.333*[#   6]+
    |psi|^2 = 1.000
==== e(   4) =    12.82891 eV ==== 
     psi = 0.326*[#   3]+0.326*[#   4]+0.326*[#   6]+0.010*[#   2]+0.010*[#   5]+
          +0.001*[#   1]+
    |psi|^2 = 1.000
==== e(   5) =    13.86130 eV ==== 
     psi = 0.500*[#   2]+0.500*[#   5]+
    |psi|^2 = 1.000
==== e(   6) =    14.01085 eV ==== 
     psi = 0.490*[#   2]+0.490*[#   5]+0.006*[#   3]+0.006*[#   4]+0.006*[#   6]+
    |psi|^2 = 0.999
==== e(   7) =    38.33504 eV ==== 
     psi = 
    |psi|^2 = 0.000
==== e(   8) =    39.94520 eV ==== 
     psi = 
    |psi|^2 = 0.000
==== e(   9) =    42.90334 eV ==== 
     psi = 
    |psi|^2 = 0.000

 k =   0.1607142850  0.1607142850  0.0000000000
==== e(   1) =     6.45554 eV ==== 
     psi = 0.996*[#   1]+
    |psi|^2 = 0.999
==== e(   2) =    12.48400 eV ==== 
     psi = 0.333*[#   3]+0.333*[#   4]+0.333*[#   6]+
    |psi|^2 = 0.999
==== e(   3) =    12.83884 eV ==== 
     psi = 0.333*[#   3]+0.333*[#   4]+0.333*[#   6]+
    |psi|^2 = 1.000
==== e(   4) =    12.85785 eV ==== 
     psi = 0.322*[#   3]+0.322*[#   4]+0.322*[#   6]+0.016*[#   2]+0.016*[#   5]+
          +0.002*[#   1]+
    |psi|^2 = 1.000
==== e(   5) =    13.83223 eV ==== 
     psi = 0.500*[#   2]+0.500*[#   5]+
    |psi|^2 = 1.000
==== e(   6) =    14.02517 eV ==== 
     psi = 0.483*[#   2]+0.483*[#   5]+0.011*[#   3]+0.011*[#   4]+0.011*[#   6]+
    |psi|^2 = 0.999
==== e(   7) =    37.86827 eV ==== 
     psi = 
    |psi|^2 = 0.001
==== e(   8) =    39.26481 eV ==== 
     psi = 
    |psi|^2 = 0.000
==== e(   9) =    42.93354 eV ==== 
     psi = 
    |psi|^2 = 0.000

 k =   0.1785714280  0.1785714280  0.0000000000
==== e(   1) =     6.61673 eV ==== 
     psi = 0.995*[#   1]+0.001*[#   3]+0.001*[#   4]+0.001*[#   6]+
    |psi|^2 = 0.999
==== e(   2) =    12.44265 eV ==== 
     psi = 0.333*[#   3]+0.333*[#   4]+0.333*[#   6]+
    |psi|^2 = 0.999
==== e(   3) =    12.87371 eV ==== 
     psi = 0.333*[#   3]+0.333*[#   4]+0.333*[#   6]+
    |psi|^2 = 1.000
==== e(   4) =    12.88536 eV ==== 
     psi = 0.316*[#   3]+0.316*[#   4]+0.316*[#   6]+0.025*[#   2]+0.025*[#   5]+
          +0.002*[#   1]+
    |psi|^2 = 1.000
==== e(   5) =    13.80140 eV ==== 
     psi = 0.500*[#   2]+0.500*[#   5]+
    |psi|^2 = 1.000
==== e(   6) =    14.04512 eV ==== 
     psi = 0.474*[#   2]+0.474*[#   5]+0.016*[#   3]+0.016*[#   4]+0.016*[#   6]+
          +0.002*[#   1]+
    |psi|^2 = 0.999
==== e(   7) =    37.36380 eV ==== 
     psi = 
    |psi|^2 = 0.001
==== e(   8) =    38.59169 eV ==== 
     psi = 
    |psi|^2 = 0.000
==== e(   9) =    43.01852 eV ==== 
     psi = 
    |psi|^2 = 0.000

 k =   0.1964285710  0.1964285710  0.0000000000
==== e(   1) =     6.79278 eV ==== 
     psi = 0.993*[#   1]+0.002*[#   3]+0.002*[#   4]+0.002*[#   6]+
    |psi|^2 = 0.999
==== e(   2) =    12.39963 eV ==== 
     psi = 0.333*[#   3]+0.333*[#   4]+0.333*[#   6]+
    |psi|^2 = 0.999
==== e(   3) =    12.90974 eV ==== 
     psi = 0.307*[#   3]+0.307*[#   4]+0.307*[#   6]+0.037*[#   2]+0.037*[#   5]+
          +0.003*[#   1]+
    |psi|^2 = 1.000
==== e(   4) =    12.91169 eV ==== 
     psi = 0.333*[#   3]+0.333*[#   4]+0.333*[#   6]+
    |psi|^2 = 1.000
==== e(   5) =    13.76918 eV ==== 
     psi = 0.500*[#   2]+0.500*[#   5]+
    |psi|^2 = 1.000
==== e(   6) =    14.07213 eV ==== 
     psi = 0.462*[#   2]+0.462*[#   5]+0.024*[#   3]+0.024*[#   4]+0.024*[#   6]+
          +0.003*[#   1]+
    |psi|^2 = 0.999
==== e(   7) =    36.84027 eV ==== 
     psi = 
    |psi|^2 = 0.001
==== e(   8) =    37.92851 eV ==== 
     psi = 
    |psi|^2 = 0.000
==== e(   9) =    43.14914 eV ==== 
     psi = 
    |psi|^2 = 0.000

 k =   0.2142857140  0.2142857140  0.0000000000
==== e(   1) =     6.98301 eV ==== 
     psi = 0.990*[#   1]+0.002*[#   3]+0.002*[#   4]+0.002*[#   6]+
    |psi|^2 = 0.999
==== e(   2) =    12.35504 eV ==== 
     psi = 0.333*[#   3]+0.333*[#   4]+0.333*[#   6]+
    |psi|^2 = 0.999
==== e(   3) =    12.92954 eV ==== 
     psi = 0.296*[#   3]+0.296*[#   4]+0.296*[#   6]+0.053*[#   2]+0.053*[#   5]+
          +0.004*[#   1]+
    |psi|^2 = 1.000
==== e(   4) =    12.95277 eV ==== 
     psi = 0.333*[#   3]+0.333*[#   4]+0.333*[#   6]+
    |psi|^2 = 1.000
==== e(   5) =    13.73628 eV ==== 
     psi = 0.500*[#   2]+0.500*[#   5]+
    |psi|^2 = 1.000
==== e(   6) =    14.10761 eV ==== 
     psi = 0.446*[#   2]+0.446*[#   5]+0.035*[#   3]+0.035*[#   4]+0.035*[#   6]+
          +0.004*[#   1]+
    |psi|^2 = 0.999
==== e(   7) =    36.29110 eV ==== 
     psi = 
    |psi|^2 = 0.001
==== e(   8) =    37.27580 eV ==== 
     psi = 
    |psi|^2 = 0.000
==== e(   9) =    43.31820 eV ==== 
     psi = 
    |psi|^2 = 0.000

 k =   0.2321428570  0.2321428570  0.0000000000
==== e(   1) =     7.18660 eV ==== 
     psi = 0.986*[#   1]+0.003*[#   3]+0.003*[#   4]+0.003*[#   6]+0.001*[#   2]+
          +0.001*[#   5]+
    |psi|^2 = 0.999
==== e(   2) =    12.30977 eV ==== 
     psi = 0.333*[#   3]+0.333*[#   4]+0.333*[#   6]+
    |psi|^2 = 0.999
==== e(   3) =    12.94319 eV ==== 
     psi = 0.283*[#   3]+0.283*[#   4]+0.283*[#   6]+0.072*[#   2]+0.072*[#   5]+
          +0.006*[#   1]+
    |psi|^2 = 1.000
==== e(   4) =    12.99672 eV ==== 
     psi = 0.333*[#   3]+0.333*[#   4]+0.333*[#   6]+
    |psi|^2 = 1.000
==== e(   5) =    13.70311 eV ==== 
     psi = 0.500*[#   2]+0.500*[#   5]+
    |psi|^2 = 1.000
==== e(   6) =    14.15289 eV ==== 
     psi = 0.426*[#   2]+0.426*[#   5]+0.047*[#   3]+0.047*[#   4]+0.047*[#   6]+
          +0.007*[#   1]+
    |psi|^2 = 0.999
==== e(   7) =    35.73100 eV ==== 
     psi = 
    |psi|^2 = 0.001
==== e(   8) =    36.63563 eV ==== 
     psi = 
    |psi|^2 = 0.000
==== e(   9) =    43.52007 eV ==== 
     psi = 
    |psi|^2 = 0.000

 k =   0.2500000000  0.2500000000  0.0000000000
==== e(   1) =     7.40264 eV ==== 
     psi = 0.981*[#   1]+0.005*[#   3]+0.005*[#   4]+0.005*[#   6]+0.002*[#   2]+
          +0.002*[#   5]+
    |psi|^2 = 0.999
==== e(   2) =    12.26448 eV ==== 
     psi = 0.333*[#   3]+0.333*[#   4]+0.333*[#   6]+
    |psi|^2 = 0.999
==== e(   3) =    12.94952 eV ==== 
     psi = 0.268*[#   3]+0.268*[#   4]+0.268*[#   6]+0.094*[#   2]+0.094*[#   5]+
          +0.007*[#   1]+
    |psi|^2 = 0.999
==== e(   4) =    13.04338 eV ==== 
     psi = 0.333*[#   3]+0.333*[#   4]+0.333*[#   6]+
    |psi|^2 = 1.000
==== e(   5) =    13.67018 eV ==== 
     psi = 0.500*[#   2]+0.500*[#   5]+
    |psi|^2 = 1.000
==== e(   6) =    14.20906 eV ==== 
     psi = 0.404*[#   2]+0.404*[#   5]+0.060*[#   3]+0.060*[#   4]+0.060*[#   6]+
          +0.011*[#   1]+
    |psi|^2 = 0.999
==== e(   7) =    35.16478 eV ==== 
     psi = 
    |psi|^2 = 0.001
==== e(   8) =    36.00899 eV ==== 
     psi = 
    |psi|^2 = 0.000
==== e(   9) =    43.75061 eV ==== 
     psi = 
    |psi|^2 = 0.000

 k =   0.2678571420  0.2678571420  0.0000000000
==== e(   1) =     7.63007 eV ==== 
     psi = 0.974*[#   1]+0.007*[#   3]+0.007*[#   4]+0.007*[#   6]+0.002*[#   2]+
          +0.002*[#   5]+
    |psi|^2 = 0.999
==== e(   2) =    12.21983 eV ==== 
     psi = 0.333*[#   3]+0.333*[#   4]+0.333*[#   6]+
    |psi|^2 = 0.998
==== e(   3) =    12.94776 eV ==== 
     psi = 0.252*[#   3]+0.252*[#   4]+0.252*[#   6]+0.118*[#   2]+0.118*[#   5]+
          +0.008*[#   1]+
    |psi|^2 = 0.999
==== e(   4) =    13.09258 eV ==== 
     psi = 0.333*[#   3]+0.333*[#   4]+0.333*[#   6]+
    |psi|^2 = 1.000
==== e(   5) =    13.63801 eV ==== 
     psi = 0.500*[#   2]+0.500*[#   5]+
    |psi|^2 = 1.000
==== e(   6) =    14.27689 eV ==== 
     psi = 0.379*[#   2]+0.379*[#   5]+0.075*[#   3]+0.075*[#   4]+0.075*[#   6]+
          +0.016*[#   1]+
    |psi|^2 = 0.999
==== e(   7) =    34.59596 eV ==== 
     psi = 
    |psi|^2 = 0.002
==== e(   8) =    35.39673 eV ==== 
     psi = 
    |psi|^2 = 0.001
==== e(   9) =    44.00674 eV ==== 
     psi = 
    |psi|^2 = 0.000

 k =   0.2857142850  0.2857142850  0.0000000000
==== e(   1) =     7.86765 eV ==== 
     psi = 0.965*[#   1]+0.009*[#   3]+0.009*[#   4]+0.009*[#   6]+0.003*[#   2]+
          +0.003*[#   5]+
    |psi|^2 = 0.998
==== e(   2) =    12.17646 eV ==== 
     psi = 0.333*[#   3]+0.333*[#   4]+0.333*[#   6]+
    |psi|^2 = 0.998
==== e(   3) =    12.93757 eV ==== 
     psi = 0.235*[#   3]+0.235*[#   4]+0.235*[#   6]+0.142*[#   2]+0.142*[#   5]+
          +0.009*[#   1]+
    |psi|^2 = 0.999
==== e(   4) =    13.14413 eV ==== 
     psi = 0.333*[#   3]+0.333*[#   4]+0.333*[#   6]+
    |psi|^2 = 1.000
==== e(   5) =    13.60709 eV ==== 
     psi = 0.500*[#   2]+0.500*[#   5]+
    |psi|^2 = 1.000
==== e(   6) =    14.35684 eV ==== 
     psi = 0.354*[#   2]+0.354*[#   5]+0.089*[#   3]+0.089*[#   4]+0.089*[#   6]+
          +0.024*[#   1]+
    |psi|^2 = 0.999
==== e(   7) =    34.02711 eV ==== 
     psi = 
    |psi|^2 = 0.002
==== e(   8) =    34.79959 eV ==== 
     psi = 
    |psi|^2 = 0.001
==== e(   9) =    44.28612 eV ==== 
     psi = 
    |psi|^2 = 0.000

 k =   0.3035714280  0.3035714280  0.0000000000
==== e(   1) =     8.11399 eV ==== 
     psi = 0.953*[#   1]+0.012*[#   3]+0.012*[#   4]+0.012*[#   6]+0.004*[#   2]+
          +0.004*[#   5]+
    |psi|^2 = 0.998
==== e(   2) =    12.13502 eV ==== 
     psi = 0.333*[#   3]+0.333*[#   4]+0.333*[#   6]+
    |psi|^2 = 0.998
==== e(   3) =    12.91896 eV ==== 
     psi = 0.219*[#   3]+0.219*[#   4]+0.219*[#   6]+0.166*[#   2]+0.166*[#   5]+
          +0.010*[#   1]+
    |psi|^2 = 0.999
==== e(   4) =    13.19784 eV ==== 
     psi = 0.333*[#   3]+0.333*[#   4]+0.333*[#   6]+
    |psi|^2 = 1.000
==== e(   5) =    13.57793 eV ==== 
     psi = 0.500*[#   2]+0.500*[#   5]+
    |psi|^2 = 1.000
==== e(   6) =    14.44913 eV ==== 
     psi = 0.329*[#   2]+0.329*[#   5]+0.102*[#   3]+0.102*[#   4]+0.102*[#   6]+
          +0.034*[#   1]+
    |psi|^2 = 0.999
==== e(   7) =    33.46012 eV ==== 
     psi = 
    |psi|^2 = 0.002
==== e(   8) =    34.21820 eV ==== 
     psi = 
    |psi|^2 = 0.001
==== e(   9) =    43.96810 eV ==== 
     psi = 
    |psi|^2 = 0.000

 k =   0.3214285710  0.3214285710  0.0000000000
==== e(   1) =     8.36747 eV ==== 
     psi = 0.939*[#   1]+0.016*[#   3]+0.016*[#   4]+0.016*[#   6]+0.006*[#   2]+
          +0.006*[#   5]+
    |psi|^2 = 0.998
==== e(   2) =    12.09613 eV ==== 
     psi = 0.333*[#   3]+0.333*[#   4]+0.333*[#   6]+
    |psi|^2 = 0.998
==== e(   3) =    12.89226 eV ==== 
     psi = 0.203*[#   3]+0.203*[#   4]+0.203*[#   6]+0.190*[#   2]+0.190*[#   5]+
          +0.012*[#   1]+
    |psi|^2 = 0.999
==== e(   4) =    13.25350 eV ==== 
     psi = 0.333*[#   3]+0.333*[#   4]+0.333*[#   6]+
    |psi|^2 = 1.000
==== e(   5) =    13.55100 eV ==== 
     psi = 0.500*[#   2]+0.500*[#   5]+
    |psi|^2 = 1.000
==== e(   6) =    14.55393 eV ==== 
     psi = 0.304*[#   2]+0.304*[#   5]+0.114*[#   3]+0.114*[#   4]+0.114*[#   6]+
          +0.047*[#   1]+
    |psi|^2 = 0.998
==== e(   7) =    32.89640 eV ==== 
     psi = 
    |psi|^2 = 0.002
==== e(   8) =    33.65320 eV ==== 
     psi = 
    |psi|^2 = 0.002
==== e(   9) =    43.55085 eV ==== 
     psi = 
    |psi|^2 = 0.000

 k =   0.3392857140  0.3392857140  0.0000000000
==== e(   1) =     8.62625 eV ==== 
     psi = 0.920*[#   1]+0.021*[#   3]+0.021*[#   4]+0.021*[#   6]+0.007*[#   2]+
          +0.007*[#   5]+
    |psi|^2 = 0.998
==== e(   2) =    12.06045 eV ==== 
     psi = 0.332*[#   3]+0.332*[#   4]+0.332*[#   6]+
    |psi|^2 = 0.997
==== e(   3) =    12.85812 eV ==== 
     psi = 0.212*[#   2]+0.212*[#   5]+0.187*[#   3]+0.187*[#   4]+0.187*[#   6]+
          +0.012*[#   1]+
    |psi|^2 = 0.999
==== e(   4) =    13.31098 eV ==== 
     psi = 0.333*[#   3]+0.333*[#   4]+0.333*[#   6]+
    |psi|^2 = 1.000
==== e(   5) =    13.52683 eV ==== 
     psi = 0.500*[#   2]+0.500*[#   5]+
    |psi|^2 = 1.000
==== e(   6) =    14.67143 eV ==== 
     psi = 0.280*[#   2]+0.280*[#   5]+0.125*[#   3]+0.125*[#   4]+0.125*[#   6]+
          +0.064*[#   1]+
    |psi|^2 = 0.998
==== e(   7) =    32.33776 eV ==== 
     psi = 
    |psi|^2 = 0.003
==== e(   8) =    33.10857 eV ==== 
     psi = 0.001*[#   1]+
    |psi|^2 = 0.002
==== e(   9) =    43.14534 eV ==== 
     psi = 
    |psi|^2 = 0.000

 k =   0.3571428570  0.3571428570  0.0000000000
==== e(   1) =     8.88818 eV ==== 
     psi = 0.898*[#   1]+0.027*[#   3]+0.027*[#   4]+0.027*[#   6]+0.009*[#   2]+
          +0.009*[#   5]+
    |psi|^2 = 0.997
==== e(   2) =    12.02846 eV ==== 
     psi = 0.332*[#   3]+0.332*[#   4]+0.332*[#   6]+
    |psi|^2 = 0.997
==== e(   3) =    12.81670 eV ==== 
     psi = 0.233*[#   2]+0.233*[#   5]+0.173*[#   3]+0.173*[#   4]+0.173*[#   6]+
          +0.013*[#   1]+
    |psi|^2 = 0.998
==== e(   4) =    13.36993 eV ==== 
     psi = 0.333*[#   3]+0.333*[#   4]+0.333*[#   6]+
    |psi|^2 = 1.000
==== e(   5) =    13.50567 eV ==== 
     psi = 0.500*[#   2]+0.500*[#   5]+
    |psi|^2 = 1.000
==== e(   6) =    14.80204 eV ==== 
     psi = 0.257*[#   2]+0.257*[#   5]+0.133*[#   3]+0.133*[#   4]+0.133*[#   6]+
          +0.085*[#   1]+
    |psi|^2 = 0.997
==== e(   7) =    31.78348 eV ==== 
     psi = 0.001*[#   3]+0.001*[#   4]+0.001*[#   6]+
    |psi|^2 = 0.003
==== e(   8) =    32.57765 eV ==== 
     psi = 0.002*[#   1]+
    |psi|^2 = 0.003
==== e(   9) =    42.75151 eV ==== 
     psi = 
    |psi|^2 = 0.000

 k =   0.3750000000  0.3750000000  0.0000000000
==== e(   1) =     9.15085 eV ==== 
     psi = 0.869*[#   1]+0.035*[#   3]+0.035*[#   4]+0.035*[#   6]+0.012*[#   2]+
          +0.012*[#   5]+
    |psi|^2 = 0.997
==== e(   2) =    12.00078 eV ==== 
     psi = 0.332*[#   3]+0.332*[#   4]+0.332*[#   6]+
    |psi|^2 = 0.996
==== e(   3) =    12.76875 eV ==== 
     psi = 0.253*[#   2]+0.253*[#   5]+0.159*[#   3]+0.159*[#   4]+0.159*[#   6]+
          +0.014*[#   1]+
    |psi|^2 = 0.998
==== e(   4) =    13.43020 eV ==== 
     psi = 0.333*[#   3]+0.333*[#   4]+0.333*[#   6]+
    |psi|^2 = 1.000
==== e(   5) =    13.48801 eV ==== 
     psi = 0.500*[#   2]+0.500*[#   5]+
    |psi|^2 = 1.000
==== e(   6) =    14.94645 eV ==== 
     psi = 0.235*[#   2]+0.235*[#   5]+0.138*[#   3]+0.138*[#   4]+0.138*[#   6]+
          +0.111*[#   1]+
    |psi|^2 = 0.996
==== e(   7) =    31.23498 eV ==== 
     psi = 0.001*[#   3]+0.001*[#   4]+0.001*[#   6]+
    |psi|^2 = 0.003
==== e(   8) =    32.06487 eV ==== 
     psi = 0.003*[#   1]+
    |psi|^2 = 0.005
==== e(   9) =    42.37183 eV ==== 
     psi = 
    |psi|^2 = 0.001

 k =   0.3928571420  0.3928571420  0.0000000000
==== e(   1) =     9.41158 eV ==== 
     psi = 0.835*[#   1]+0.044*[#   3]+0.044*[#   4]+0.044*[#   6]+0.015*[#   2]+
          +0.015*[#   5]+
    |psi|^2 = 0.996
==== e(   2) =    11.97793 eV ==== 
     psi = 0.332*[#   3]+0.332*[#   4]+0.332*[#   6]+
    |psi|^2 = 0.996
==== e(   3) =    12.71483 eV ==== 
     psi = 0.271*[#   2]+0.271*[#   5]+0.147*[#   3]+0.147*[#   4]+0.147*[#   6]+
          +0.015*[#   1]+
    |psi|^2 = 0.998
==== e(   4) =    13.47418 eV ==== 
     psi = 0.500*[#   2]+0.500*[#   5]+
    |psi|^2 = 1.000
==== e(   5) =    13.49157 eV ==== 
     psi = 0.333*[#   3]+0.333*[#   4]+0.333*[#   6]+
    |psi|^2 = 1.000
==== e(   6) =    15.10567 eV ==== 
     psi = 0.214*[#   2]+0.214*[#   5]+0.142*[#   1]+0.142*[#   3]+0.142*[#   4]+
          +0.142*[#   6]+
    |psi|^2 = 0.995
==== e(   7) =    30.69272 eV ==== 
     psi = 0.001*[#   3]+0.001*[#   4]+0.001*[#   6]+
    |psi|^2 = 0.004
==== e(   8) =    31.57078 eV ==== 
     psi = 0.004*[#   1]+
    |psi|^2 = 0.006
==== e(   9) =    42.00759 eV ==== 
     psi = 
    |psi|^2 = 0.001

 k =   0.4107142850  0.4107142850  0.0000000000
==== e(   1) =     9.66736 eV ==== 
     psi = 0.795*[#   1]+0.055*[#   3]+0.055*[#   4]+0.055*[#   6]+0.018*[#   2]+
          +0.018*[#   5]+
    |psi|^2 = 0.995
==== e(   2) =    11.96042 eV ==== 
     psi = 0.332*[#   3]+0.332*[#   4]+0.332*[#   6]+
    |psi|^2 = 0.996
==== e(   3) =    12.65546 eV ==== 
     psi = 0.289*[#   2]+0.289*[#   5]+0.134*[#   3]+0.134*[#   4]+0.134*[#   6]+
          +0.016*[#   1]+
    |psi|^2 = 0.997
==== e(   4) =    13.46452 eV ==== 
     psi = 0.500*[#   2]+0.500*[#   5]+
    |psi|^2 = 1.000
==== e(   5) =    13.55382 eV ==== 
     psi = 0.333*[#   3]+0.333*[#   4]+0.333*[#   6]+
    |psi|^2 = 1.000
==== e(   6) =    15.28111 eV ==== 
     psi = 0.193*[#   2]+0.193*[#   5]+0.179*[#   1]+0.143*[#   3]+0.143*[#   4]+
          +0.143*[#   6]+
    |psi|^2 = 0.993
==== e(   7) =    30.15708 eV ==== 
     psi = 0.001*[#   3]+0.001*[#   4]+0.001*[#   6]+
    |psi|^2 = 0.004
==== e(   8) =    31.09592 eV ==== 
     psi = 0.006*[#   1]+
    |psi|^2 = 0.009
==== e(   9) =    41.65981 eV ==== 
     psi = 0.001*[#   1]+
    |psi|^2 = 0.001

 k =   0.4285714280  0.4285714280  0.0000000000
==== e(   1) =     9.91489 eV ==== 
     psi = 0.747*[#   1]+0.068*[#   3]+0.068*[#   4]+0.068*[#   6]+0.021*[#   2]+
          +0.021*[#   5]+
    |psi|^2 = 0.994
==== e(   2) =    11.94870 eV ==== 
     psi = 0.332*[#   3]+0.332*[#   4]+0.332*[#   6]+
    |psi|^2 = 0.995
==== e(   3) =    12.59116 eV ==== 
     psi = 0.306*[#   2]+0.306*[#   5]+0.123*[#   3]+0.123*[#   4]+0.123*[#   6]+
          +0.016*[#   1]+
    |psi|^2 = 0.997
==== e(   4) =    13.45930 eV ==== 
     psi = 0.500*[#   2]+0.500*[#   5]+
    |psi|^2 = 1.000
==== e(   5) =    13.61674 eV ==== 
     psi = 0.333*[#   3]+0.333*[#   4]+0.333*[#   6]+
    |psi|^2 = 1.000
==== e(   6) =    15.47445 eV ==== 
     psi = 0.222*[#   1]+0.172*[#   2]+0.172*[#   5]+0.141*[#   3]+0.141*[#   4]+
          +0.141*[#   6]+
    |psi|^2 = 0.990
==== e(   7) =    29.62835 eV ==== 
     psi = 0.002*[#   3]+0.002*[#   4]+0.002*[#   6]+
    |psi|^2 = 0.005
==== e(   8) =    30.64051 eV ==== 
     psi = 0.009*[#   1]+0.001*[#   3]+0.001*[#   4]+0.001*[#   6]+
    |psi|^2 = 0.013
==== e(   9) =    41.32881 eV ==== 
     psi = 0.002*[#   1]+
    |psi|^2 = 0.002

 k =   0.4464285710  0.4464285710  0.0000000000
==== e(   1) =    10.15121 eV ==== 
     psi = 0.693*[#   1]+0.084*[#   3]+0.084*[#   4]+0.084*[#   6]+0.024*[#   2]+
          +0.024*[#   5]+
    |psi|^2 = 0.992
==== e(   2) =    11.94323 eV ==== 
     psi = 0.331*[#   3]+0.331*[#   4]+0.331*[#   6]+
    |psi|^2 = 0.994
==== e(   3) =    12.52242 eV ==== 
     psi = 0.323*[#   2]+0.323*[#   5]+0.111*[#   3]+0.111*[#   4]+0.111*[#   6]+
          +0.017*[#   1]+
    |psi|^2 = 0.996
==== e(   4) =    13.45881 eV ==== 
     psi = 0.500*[#   2]+0.500*[#   5]+
    |psi|^2 = 1.000
==== e(   5) =    13.68009 eV ==== 
     psi = 0.333*[#   3]+0.333*[#   4]+0.333*[#   6]+
    |psi|^2 = 1.000
==== e(   6) =    15.68768 eV ==== 
     psi = 0.270*[#   1]+0.152*[#   2]+0.152*[#   5]+0.137*[#   3]+0.137*[#   4]+
          +0.137*[#   6]+
    |psi|^2 = 0.986
==== e(   7) =    29.10674 eV ==== 
     psi = 0.002*[#   3]+0.002*[#   4]+0.002*[#   6]+
    |psi|^2 = 0.005
==== e(   8) =    30.20567 eV ==== 
     psi = 0.014*[#   1]+0.001*[#   3]+0.001*[#   4]+0.001*[#   6]+
    |psi|^2 = 0.018
==== e(   9) =    41.01623 eV ==== 
     psi = 0.002*[#   1]+
    |psi|^2 = 0.003

 k =   0.4642857140  0.4642857140  0.0000000000
==== e(   1) =    10.37242 eV ==== 
     psi = 0.633*[#   1]+0.101*[#   3]+0.101*[#   4]+0.101*[#   6]+0.027*[#   2]+
          +0.027*[#   5]+
    |psi|^2 = 0.991
==== e(   2) =    11.94439 eV ==== 
     psi = 0.331*[#   3]+0.331*[#   4]+0.331*[#   6]+
    |psi|^2 = 0.994
==== e(   3) =    12.44969 eV ==== 
     psi = 0.340*[#   2]+0.340*[#   5]+0.099*[#   3]+0.099*[#   4]+0.099*[#   6]+
          +0.017*[#   1]+
    |psi|^2 = 0.995
==== e(   4) =    13.46315 eV ==== 
     psi = 0.500*[#   2]+0.500*[#   5]+
    |psi|^2 = 1.000
==== e(   5) =    13.74366 eV ==== 
     psi = 0.333*[#   3]+0.333*[#   4]+0.333*[#   6]+
    |psi|^2 = 1.000
==== e(   6) =    15.92283 eV ==== 
     psi = 0.323*[#   1]+0.132*[#   2]+0.132*[#   5]+0.131*[#   3]+0.131*[#   4]+
          +0.131*[#   6]+
    |psi|^2 = 0.980
==== e(   7) =    28.59243 eV ==== 
     psi = 0.002*[#   3]+0.002*[#   4]+0.002*[#   6]+
    |psi|^2 = 0.006
==== e(   8) =    29.79154 eV ==== 
     psi = 0.020*[#   1]+0.002*[#   3]+0.002*[#   4]+0.002*[#   6]+
    |psi|^2 = 0.025
==== e(   9) =    40.72173 eV ==== 
     psi = 0.003*[#   1]+
    |psi|^2 = 0.004

 k =   0.4821428570  0.4821428570  0.0000000000
==== e(   1) =    10.57557 eV ==== 
     psi = 0.568*[#   1]+0.121*[#   3]+0.121*[#   4]+0.121*[#   6]+0.029*[#   2]+
          +0.029*[#   5]+
    |psi|^2 = 0.989
==== e(   2) =    11.95256 eV ==== 
     psi = 0.331*[#   3]+0.331*[#   4]+0.331*[#   6]+
    |psi|^2 = 0.993
==== e(   3) =    12.37347 eV ==== 
     psi = 0.357*[#   2]+0.357*[#   5]+0.087*[#   3]+0.087*[#   4]+0.087*[#   6]+
          +0.017*[#   1]+
    |psi|^2 = 0.994
==== e(   4) =    13.47251 eV ==== 
     psi = 0.500*[#   2]+0.500*[#   5]+
    |psi|^2 = 1.000
==== e(   5) =    13.80722 eV ==== 
     psi = 0.333*[#   3]+0.333*[#   4]+0.333*[#   6]+
    |psi|^2 = 1.000
==== e(   6) =    16.18195 eV ==== 
     psi = 0.377*[#   1]+0.123*[#   3]+0.123*[#   4]+0.123*[#   6]+0.113*[#   2]+
          +0.113*[#   5]+
    |psi|^2 = 0.971
==== e(   7) =    28.08556 eV ==== 
     psi = 0.002*[#   3]+0.002*[#   4]+0.002*[#   6]+
    |psi|^2 = 0.007
==== e(   8) =    29.39851 eV ==== 
     psi = 0.028*[#   1]+0.002*[#   3]+0.002*[#   4]+0.002*[#   6]+
    |psi|^2 = 0.034
==== e(   9) =    40.24321 eV ==== 
     psi = 
    |psi|^2 = 0.000

 k =   0.5000000000  0.5000000000  0.0000000000
==== e(   1) =    10.75783 eV ==== 
     psi = 0.500*[#   1]+0.143*[#   3]+0.143*[#   4]+0.143*[#   6]+0.030*[#   2]+
          +0.030*[#   5]+
    |psi|^2 = 0.987
==== e(   2) =    11.96802 eV ==== 
     psi = 0.331*[#   3]+0.331*[#   4]+0.331*[#   6]+
    |psi|^2 = 0.992
==== e(   3) =    12.29392 eV ==== 
     psi = 0.375*[#   2]+0.375*[#   5]+0.075*[#   3]+0.075*[#   4]+0.075*[#   6]+
          +0.017*[#   1]+
    |psi|^2 = 0.993
==== e(   4) =    13.48700 eV ==== 
     psi = 0.500*[#   2]+0.500*[#   5]+
    |psi|^2 = 1.000
==== e(   5) =    13.87057 eV ==== 
     psi = 0.333*[#   3]+0.333*[#   4]+0.333*[#   6]+
    |psi|^2 = 0.999
==== e(   6) =    16.46681 eV ==== 
     psi = 0.431*[#   1]+0.113*[#   3]+0.113*[#   4]+0.113*[#   6]+0.095*[#   2]+
          +0.095*[#   5]+
    |psi|^2 = 0.960
==== e(   7) =    27.58599 eV ==== 
     psi = 0.003*[#   3]+0.003*[#   4]+0.003*[#   6]+
    |psi|^2 = 0.008
==== e(   8) =    29.02533 eV ==== 
     psi = 0.040*[#   1]+0.002*[#   3]+0.002*[#   4]+0.002*[#   6]+
    |psi|^2 = 0.047
==== e(   9) =    39.69652 eV ==== 
     psi = 
    |psi|^2 = 0.000

 k =   0.5178571420  0.5178571420  0.0000000000
==== e(   1) =    10.91733 eV ==== 
     psi = 0.432*[#   1]+0.166*[#   3]+0.166*[#   4]+0.166*[#   6]+0.029*[#   2]+
          +0.029*[#   5]+
    |psi|^2 = 0.986
==== e(   2) =    11.99121 eV ==== 
     psi = 0.330*[#   3]+0.330*[#   4]+0.330*[#   6]+
    |psi|^2 = 0.991
==== e(   3) =    12.21215 eV ==== 
     psi = 0.393*[#   2]+0.393*[#   5]+0.063*[#   3]+0.063*[#   4]+0.063*[#   6]+
          +0.017*[#   1]+
    |psi|^2 = 0.992
==== e(   4) =    13.50666 eV ==== 
     psi = 0.500*[#   2]+0.500*[#   5]+
    |psi|^2 = 1.000
==== e(   5) =    13.93350 eV ==== 
     psi = 0.333*[#   3]+0.333*[#   4]+0.333*[#   6]+
    |psi|^2 = 0.999
==== e(   6) =    16.77899 eV ==== 
     psi = 0.482*[#   1]+0.102*[#   3]+0.102*[#   4]+0.102*[#   6]+0.078*[#   2]+
          +0.078*[#   5]+
    |psi|^2 = 0.943
==== e(   7) =    27.09481 eV ==== 
     psi = 0.003*[#   3]+0.003*[#   4]+0.003*[#   6]+
    |psi|^2 = 0.008
==== e(   8) =    28.67518 eV ==== 
     psi = 0.055*[#   1]+0.003*[#   3]+0.003*[#   4]+0.003*[#   6]+
    |psi|^2 = 0.063
==== e(   9) =    39.16080 eV ==== 
     psi = 
    |psi|^2 = 0.000

 k =   0.5357142850  0.5357142850  0.0000000000
==== e(   1) =    11.05182 eV ==== 
     psi = 0.364*[#   1]+0.190*[#   3]+0.190*[#   4]+0.190*[#   6]+0.025*[#   2]+
          +0.025*[#   5]+
    |psi|^2 = 0.985
==== e(   2) =    12.02222 eV ==== 
     psi = 0.330*[#   3]+0.330*[#   4]+0.330*[#   6]+
    |psi|^2 = 0.991
==== e(   3) =    12.12843 eV ==== 
     psi = 0.411*[#   2]+0.411*[#   5]+0.050*[#   3]+0.050*[#   4]+0.050*[#   6]+
          +0.017*[#   1]+
    |psi|^2 = 0.990
==== e(   4) =    13.53151 eV ==== 
     psi = 0.500*[#   2]+0.500*[#   5]+
    |psi|^2 = 1.000
==== e(   5) =    13.99579 eV ==== 
     psi = 0.333*[#   3]+0.333*[#   4]+0.333*[#   6]+
    |psi|^2 = 0.999
==== e(   6) =    17.11905 eV ==== 
     psi = 0.527*[#   1]+0.090*[#   3]+0.090*[#   4]+0.090*[#   6]+0.063*[#   2]+
          +0.063*[#   5]+
    |psi|^2 = 0.922
==== e(   7) =    26.61079 eV ==== 
     psi = 0.003*[#   3]+0.003*[#   4]+0.003*[#   6]+
    |psi|^2 = 0.009
==== e(   8) =    28.34676 eV ==== 
     psi = 0.075*[#   1]+0.003*[#   3]+0.003*[#   4]+0.003*[#   6]+
    |psi|^2 = 0.084
==== e(   9) =    38.63657 eV ==== 
     psi = 
    |psi|^2 = 0.000

 k =   0.5535714280  0.5535714280  0.0000000000
==== e(   1) =    11.16078 eV ==== 
     psi = 0.301*[#   1]+0.215*[#   3]+0.215*[#   4]+0.215*[#   6]+0.020*[#   2]+
          +0.020*[#   5]+
    |psi|^2 = 0.984
==== e(   2) =    12.04338 eV ==== 
     psi = 0.430*[#   2]+0.430*[#   5]+0.037*[#   3]+0.037*[#   4]+0.037*[#   6]+
          +0.017*[#   1]+
    |psi|^2 = 0.988
==== e(   3) =    12.06134 eV ==== 
     psi = 0.330*[#   3]+0.330*[#   4]+0.330*[#   6]+
    |psi|^2 = 0.989
==== e(   4) =    13.56150 eV ==== 
     psi = 0.500*[#   2]+0.500*[#   5]+
    |psi|^2 = 1.000
==== e(   5) =    14.05724 eV ==== 
     psi = 0.333*[#   3]+0.333*[#   4]+0.333*[#   6]+
    |psi|^2 = 0.999
==== e(   6) =    17.48741 eV ==== 
     psi = 0.562*[#   1]+0.078*[#   3]+0.078*[#   4]+0.078*[#   6]+0.049*[#   2]+
          +0.049*[#   5]+
    |psi|^2 = 0.895
==== e(   7) =    26.13458 eV ==== 
     psi = 0.003*[#   3]+0.003*[#   4]+0.003*[#   6]+
    |psi|^2 = 0.010
==== e(   8) =    28.04006 eV ==== 
     psi = 0.100*[#   1]+0.003*[#   3]+0.003*[#   4]+0.003*[#   6]+
    |psi|^2 = 0.111
==== e(   9) =    38.12431 eV ==== 
     psi = 
    |psi|^2 = 0.000

 k =   0.5714285710  0.5714285710  0.0000000000
==== e(   1) =    11.24400 eV ==== 
     psi = 0.243*[#   1]+0.239*[#   3]+0.239*[#   4]+0.239*[#   6]+0.013*[#   2]+
          +0.013*[#   5]+
    |psi|^2 = 0.984
==== e(   2) =    11.95776 eV ==== 
     psi = 0.449*[#   2]+0.449*[#   5]+0.024*[#   3]+0.024*[#   4]+0.024*[#   6]+
          +0.016*[#   1]+
    |psi|^2 = 0.986
==== e(   3) =    12.10876 eV ==== 
     psi = 0.329*[#   3]+0.329*[#   4]+0.329*[#   6]+
    |psi|^2 = 0.988
==== e(   4) =    13.59652 eV ==== 
     psi = 0.500*[#   2]+0.500*[#   5]+
    |psi|^2 = 1.000
==== e(   5) =    14.11768 eV ==== 
     psi = 0.333*[#   3]+0.333*[#   4]+0.333*[#   6]+
    |psi|^2 = 0.999
==== e(   6) =    17.88377 eV ==== 
     psi = 0.585*[#   1]+0.067*[#   3]+0.067*[#   4]+0.067*[#   6]+0.038*[#   2]+
          +0.038*[#   5]+
    |psi|^2 = 0.861
==== e(   7) =    25.66627 eV ==== 
     psi = 0.004*[#   3]+0.004*[#   4]+0.004*[#   6]+
    |psi|^2 = 0.012
==== e(   8) =    27.75494 eV ==== 
     psi = 0.130*[#   1]+0.004*[#   3]+0.004*[#   4]+0.004*[#   6]+
    |psi|^2 = 0.143
==== e(   9) =    37.62449 eV ==== 
     psi = 
    |psi|^2 = 0.000

 k =   0.5892857140  0.5892857140  0.0000000000
==== e(   1) =    11.30176 eV ==== 
     psi = 0.262*[#   3]+0.262*[#   4]+0.262*[#   6]+0.191*[#   1]+0.005*[#   2]+
          +0.005*[#   5]+
    |psi|^2 = 0.986
==== e(   2) =    11.87248 eV ==== 
     psi = 0.466*[#   2]+0.466*[#   5]+0.016*[#   1]+0.012*[#   3]+0.012*[#   4]+
          +0.012*[#   6]+
    |psi|^2 = 0.983
==== e(   3) =    12.16463 eV ==== 
     psi = 0.329*[#   3]+0.329*[#   4]+0.329*[#   6]+
    |psi|^2 = 0.987
==== e(   4) =    13.63642 eV ==== 
     psi = 0.500*[#   2]+0.500*[#   5]+
    |psi|^2 = 0.999
==== e(   5) =    14.17690 eV ==== 
     psi = 0.333*[#   3]+0.333*[#   4]+0.333*[#   6]+
    |psi|^2 = 0.999
==== e(   6) =    18.30736 eV ==== 
     psi = 0.596*[#   1]+0.056*[#   3]+0.056*[#   4]+0.056*[#   6]+0.028*[#   2]+
          +0.028*[#   5]+
    |psi|^2 = 0.820
==== e(   7) =    25.20592 eV ==== 
     psi = 0.004*[#   3]+0.004*[#   4]+0.004*[#   6]+
    |psi|^2 = 0.013
==== e(   8) =    27.49112 eV ==== 
     psi = 0.167*[#   1]+0.004*[#   3]+0.004*[#   4]+0.004*[#   6]+0.001*[#   2]+
          +0.001*[#   5]+
    |psi|^2 = 0.181
==== e(   9) =    37.13755 eV ==== 
     psi = 
    |psi|^2 = 0.000

 k =   0.6071428570  0.6071428570  0.0000000000
==== e(   1) =    11.33471 eV ==== 
     psi = 0.280*[#   3]+0.280*[#   4]+0.280*[#   6]+0.146*[#   1]+
    |psi|^2 = 0.988
==== e(   2) =    11.78883 eV ==== 
     psi = 0.478*[#   2]+0.478*[#   5]+0.017*[#   1]+0.002*[#   3]+0.002*[#   4]+
          +0.002*[#   6]+
    |psi|^2 = 0.980
==== e(   3) =    12.22924 eV ==== 
     psi = 0.329*[#   3]+0.329*[#   4]+0.329*[#   6]+
    |psi|^2 = 0.986
==== e(   4) =    13.68113 eV ==== 
     psi = 0.500*[#   2]+0.500*[#   5]+
    |psi|^2 = 0.999
==== e(   5) =    14.23474 eV ==== 
     psi = 0.333*[#   3]+0.333*[#   4]+0.333*[#   6]+
    |psi|^2 = 0.999
==== e(   6) =    18.75719 eV ==== 
     psi = 0.592*[#   1]+0.046*[#   3]+0.046*[#   4]+0.046*[#   6]+0.020*[#   2]+
          +0.020*[#   5]+
    |psi|^2 = 0.772
==== e(   7) =    24.75477 eV ==== 
     psi = 0.005*[#   3]+0.005*[#   4]+0.005*[#   6]+
    |psi|^2 = 0.014
==== e(   8) =    27.24844 eV ==== 
     psi = 0.210*[#   1]+0.004*[#   3]+0.004*[#   4]+0.004*[#   6]+0.002*[#   2]+
          +0.002*[#   5]+
    |psi|^2 = 0.225
==== e(   9) =    36.66864 eV ==== 
     psi = 
    |psi|^2 = 0.000

 k =   0.6250000000  0.6250000000  0.0000000000
==== e(   1) =    11.34335 eV ==== 
     psi = 0.291*[#   3]+0.291*[#   4]+0.291*[#   6]+0.109*[#   1]+0.005*[#   2]+
          +0.005*[#   5]+
    |psi|^2 = 0.991
==== e(   2) =    11.70813 eV ==== 
     psi = 0.479*[#   2]+0.479*[#   5]+0.017*[#   1]+
    |psi|^2 = 0.976
==== e(   3) =    12.30229 eV ==== 
     psi = 0.328*[#   3]+0.328*[#   4]+0.328*[#   6]+
    |psi|^2 = 0.984
==== e(   4) =    13.73010 eV ==== 
     psi = 0.500*[#   2]+0.500*[#   5]+
    |psi|^2 = 0.999
==== e(   5) =    14.29104 eV ==== 
     psi = 0.333*[#   3]+0.333*[#   4]+0.333*[#   6]+
    |psi|^2 = 0.999
==== e(   6) =    19.23156 eV ==== 
     psi = 0.575*[#   1]+0.038*[#   3]+0.038*[#   4]+0.038*[#   6]+0.014*[#   2]+
          +0.014*[#   5]+
    |psi|^2 = 0.717
==== e(   7) =    24.31027 eV ==== 
     psi = 0.005*[#   3]+0.005*[#   4]+0.005*[#   6]+
    |psi|^2 = 0.016
==== e(   8) =    27.02591 eV ==== 
     psi = 0.258*[#   1]+0.004*[#   3]+0.004*[#   4]+0.004*[#   6]+0.002*[#   2]+
          +0.002*[#   5]+
    |psi|^2 = 0.275
==== e(   9) =    36.20781 eV ==== 
     psi = 
    |psi|^2 = 0.000

 k =   0.6428571420  0.6428571420  0.0000000000
==== e(   1) =    11.32864 eV ==== 
     psi = 0.286*[#   3]+0.286*[#   4]+0.286*[#   6]+0.079*[#   1]+0.028*[#   2]+
          +0.028*[#   5]+
    |psi|^2 = 0.994
==== e(   2) =    11.63207 eV ==== 
     psi = 0.459*[#   2]+0.459*[#   5]+0.018*[#   1]+0.012*[#   3]+0.012*[#   4]+
          +0.012*[#   6]+
    |psi|^2 = 0.973
==== e(   3) =    12.38401 eV ==== 
     psi = 0.327*[#   3]+0.327*[#   4]+0.327*[#   6]+
    |psi|^2 = 0.982
==== e(   4) =    13.78316 eV ==== 
     psi = 0.500*[#   2]+0.500*[#   5]+
    |psi|^2 = 0.999
==== e(   5) =    14.34562 eV ==== 
     psi = 0.333*[#   3]+0.333*[#   4]+0.333*[#   6]+
    |psi|^2 = 0.999
==== e(   6) =    19.72908 eV ==== 
     psi = 0.545*[#   1]+0.030*[#   3]+0.030*[#   4]+0.030*[#   6]+0.010*[#   2]+
          +0.010*[#   5]+
    |psi|^2 = 0.656
==== e(   7) =    23.87405 eV ==== 
     psi = 0.006*[#   3]+0.006*[#   4]+0.006*[#   6]+
    |psi|^2 = 0.018
==== e(   8) =    26.82317 eV ==== 
     psi = 0.312*[#   1]+0.004*[#   3]+0.004*[#   4]+0.004*[#   6]+0.003*[#   2]+
          +0.003*[#   5]+
    |psi|^2 = 0.330
==== e(   9) =    35.76149 eV ==== 
     psi = 
    |psi|^2 = 0.000

 k =   0.6607142850  0.6607142850  0.0000000000
==== e(   1) =    11.29199 eV ==== 
     psi = 0.263*[#   3]+0.263*[#   4]+0.263*[#   6]+0.076*[#   2]+0.076*[#   5]+
          +0.057*[#   1]+
    |psi|^2 = 0.996
==== e(   2) =    11.56117 eV ==== 
     psi = 0.413*[#   2]+0.413*[#   5]+0.043*[#   3]+0.043*[#   4]+0.043*[#   6]+
          +0.017*[#   1]+
    |psi|^2 = 0.972
==== e(   3) =    12.47429 eV ==== 
     psi = 0.327*[#   3]+0.327*[#   4]+0.327*[#   6]+
    |psi|^2 = 0.980
==== e(   4) =    13.83987 eV ==== 
     psi = 0.500*[#   2]+0.500*[#   5]+
    |psi|^2 = 0.999
==== e(   5) =    14.39835 eV ==== 
     psi = 0.333*[#   3]+0.333*[#   4]+0.333*[#   6]+
    |psi|^2 = 0.999
==== e(   6) =    20.24645 eV ==== 
     psi = 0.504*[#   1]+0.024*[#   3]+0.024*[#   4]+0.024*[#   6]+0.007*[#   2]+
          +0.007*[#   5]+
    |psi|^2 = 0.589
==== e(   7) =    23.44563 eV ==== 
     psi = 0.007*[#   3]+0.007*[#   4]+0.007*[#   6]+
    |psi|^2 = 0.020
==== e(   8) =    26.63951 eV ==== 
     psi = 0.370*[#   1]+0.004*[#   2]+0.004*[#   5]+0.004*[#   3]+0.004*[#   4]+
          +0.004*[#   6]+
    |psi|^2 = 0.390
==== e(   9) =    35.32742 eV ==== 
     psi = 
    |psi|^2 = 0.000

 k =   0.6785714280  0.6785714280  0.0000000000
==== e(   1) =    11.23746 eV ==== 
     psi = 0.223*[#   3]+0.223*[#   4]+0.223*[#   6]+0.143*[#   2]+0.143*[#   5]+
          +0.042*[#   1]+
    |psi|^2 = 0.997
==== e(   2) =    11.49533 eV ==== 
     psi = 0.348*[#   2]+0.348*[#   5]+0.087*[#   3]+0.087*[#   4]+0.087*[#   6]+
          +0.015*[#   1]+
    |psi|^2 = 0.972
==== e(   3) =    12.57329 eV ==== 
     psi = 0.326*[#   3]+0.326*[#   4]+0.326*[#   6]+
    |psi|^2 = 0.978
==== e(   4) =    13.89992 eV ==== 
     psi = 0.500*[#   2]+0.500*[#   5]+
    |psi|^2 = 0.999
==== e(   5) =    14.44908 eV ==== 
     psi = 0.333*[#   3]+0.333*[#   4]+0.333*[#   6]+
    |psi|^2 = 0.999
==== e(   6) =    20.78463 eV ==== 
     psi = 0.454*[#   1]+0.019*[#   3]+0.019*[#   4]+0.019*[#   6]+0.004*[#   2]+
          +0.004*[#   5]+
    |psi|^2 = 0.519
==== e(   7) =    23.02624 eV ==== 
     psi = 0.007*[#   3]+0.007*[#   4]+0.007*[#   6]+
    |psi|^2 = 0.022
==== e(   8) =    26.47431 eV ==== 
     psi = 0.430*[#   1]+0.006*[#   2]+0.006*[#   5]+0.004*[#   3]+0.004*[#   4]+
          +0.004*[#   6]+
    |psi|^2 = 0.453
==== e(   9) =    34.91148 eV ==== 
     psi = 
    |psi|^2 = 0.000

 k =   0.6964285710  0.6964285710  0.0000000000
==== e(   1) =    11.16986 eV ==== 
     psi = 0.213*[#   2]+0.213*[#   5]+0.179*[#   3]+0.179*[#   4]+0.179*[#   6]+
          +0.034*[#   1]+
    |psi|^2 = 0.997
==== e(   2) =    11.43220 eV ==== 
[...]
     psi = 0.392*[#   1]+0.019*[#   3]+0.019*[#   4]+0.019*[#   6]+0.004*[#   2]+
          +0.004*[#   5]+
    |psi|^2 = 0.456
==== e(   7) =    22.84987 eV ==== 
     psi = 0.012*[#   3]+0.012*[#   4]+0.012*[#   6]+
    |psi|^2 = 0.035
==== e(   8) =    26.53981 eV ==== 
     psi = 0.488*[#   1]+0.009*[#   2]+0.009*[#   5]+0.004*[#   3]+0.004*[#   4]+
          +0.004*[#   6]+
    |psi|^2 = 0.518
==== e(   9) =    34.60371 eV ==== 
     psi = 
    |psi|^2 = 0.000

 k =   0.7142857140  0.7142857140  0.0000000000
==== e(   1) =    11.55811 eV ==== 
     psi = 0.374*[#   2]+0.374*[#   5]+0.073*[#   3]+0.073*[#   4]+0.073*[#   6]+
          +0.025*[#   1]+
    |psi|^2 = 0.990
==== e(   2) =    11.81916 eV ==== 
     psi = 0.243*[#   3]+0.243*[#   4]+0.243*[#   6]+0.112*[#   2]+0.112*[#   5]+
          +0.020*[#   1]+
    |psi|^2 = 0.972
==== e(   3) =    13.33993 eV ==== 
     psi = 0.320*[#   3]+0.320*[#   4]+0.320*[#   6]+
    |psi|^2 = 0.960
==== e(   4) =    14.61728 eV ==== 
     psi = 0.499*[#   2]+0.499*[#   5]+
    |psi|^2 = 0.999
==== e(   5) =    15.28063 eV ==== 
     psi = 0.333*[#   3]+0.333*[#   4]+0.333*[#   6]+
    |psi|^2 = 0.999
==== e(   6) =    22.15013 eV ==== 
     psi = 0.333*[#   1]+0.014*[#   3]+0.014*[#   4]+0.014*[#   6]+0.003*[#   2]+
          +0.003*[#   5]+
    |psi|^2 = 0.382
==== e(   7) =    22.44614 eV ==== 
     psi = 0.013*[#   3]+0.013*[#   4]+0.013*[#   6]+
    |psi|^2 = 0.039
==== e(   8) =    26.41557 eV ==== 
     psi = 0.551*[#   1]+0.011*[#   2]+0.011*[#   5]+0.004*[#   3]+0.004*[#   4]+
          +0.004*[#   6]+
    |psi|^2 = 0.584
==== e(   9) =    34.21720 eV ==== 
     psi = 
    |psi|^2 = 0.000

 k =   0.7321428570  0.7321428570  0.0000000000
==== e(   1) =    11.45998 eV ==== 
     psi = 0.405*[#   2]+0.405*[#   5]+0.051*[#   3]+0.051*[#   4]+0.051*[#   6]+
          +0.026*[#   1]+
    |psi|^2 = 0.989
==== e(   2) =    11.77617 eV ==== 
     psi = 0.268*[#   3]+0.268*[#   4]+0.268*[#   6]+0.079*[#   2]+0.079*[#   5]+
          +0.014*[#   1]+
    |psi|^2 = 0.976
==== e(   3) =    13.46575 eV ==== 
     psi = 0.319*[#   3]+0.319*[#   4]+0.319*[#   6]+
    |psi|^2 = 0.956
==== e(   4) =    14.68698 eV ==== 
     psi = 0.499*[#   2]+0.499*[#   5]+
    |psi|^2 = 0.999
==== e(   5) =    15.32658 eV ==== 
     psi = 0.333*[#   3]+0.333*[#   4]+0.333*[#   6]+
    |psi|^2 = 0.999
==== e(   6) =    22.05036 eV ==== 
     psi = 0.014*[#   3]+0.014*[#   4]+0.014*[#   6]+
    |psi|^2 = 0.043
==== e(   7) =    22.71944 eV ==== 
     psi = 0.268*[#   1]+0.011*[#   3]+0.011*[#   4]+0.011*[#   6]+0.002*[#   2]+
          +0.002*[#   5]+
    |psi|^2 = 0.306
==== e(   8) =    26.30838 eV ==== 
     psi = 0.613*[#   1]+0.014*[#   2]+0.014*[#   5]+0.003*[#   3]+0.003*[#   4]+
          +0.003*[#   6]+
    |psi|^2 = 0.651
==== e(   9) =    33.84804 eV ==== 
     psi = 
    |psi|^2 = 0.000

 k =   0.7500000000  0.7500000000  0.0000000000
==== e(   1) =    11.36222 eV ==== 
     psi = 0.425*[#   2]+0.425*[#   5]+0.036*[#   3]+0.036*[#   4]+0.036*[#   6]+
          +0.029*[#   1]+
    |psi|^2 = 0.988
==== e(   2) =    11.72904 eV ==== 
     psi = 0.285*[#   3]+0.285*[#   4]+0.285*[#   6]+0.057*[#   2]+0.057*[#   5]+
          +0.009*[#   1]+
    |psi|^2 = 0.979
==== e(   3) =    13.60041 eV ==== 
     psi = 0.317*[#   3]+0.317*[#   4]+0.317*[#   6]+
    |psi|^2 = 0.952
==== e(   4) =    14.75781 eV ==== 
     psi = 0.499*[#   2]+0.499*[#   5]+
    |psi|^2 = 0.999
==== e(   5) =    15.36998 eV ==== 
     psi = 0.333*[#   3]+0.333*[#   4]+0.333*[#   6]+
    |psi|^2 = 0.999
==== e(   6) =    21.66391 eV ==== 
     psi = 0.016*[#   3]+0.016*[#   4]+0.016*[#   6]+
    |psi|^2 = 0.048
==== e(   7) =    23.30083 eV ==== 
     psi = 0.200*[#   1]+0.008*[#   3]+0.008*[#   4]+0.008*[#   6]+0.002*[#   2]+
          +0.002*[#   5]+
    |psi|^2 = 0.228
==== e(   8) =    26.21905 eV ==== 
     psi = 0.677*[#   1]+0.016*[#   2]+0.016*[#   5]+0.003*[#   3]+0.003*[#   4]+
          +0.003*[#   6]+
    |psi|^2 = 0.718
==== e(   9) =    33.49696 eV ==== 
     psi = 
    |psi|^2 = 0.000

 k =   0.7678571420  0.7678571420  0.0000000000
==== e(   1) =    11.26619 eV ==== 
     psi = 0.438*[#   2]+0.438*[#   5]+0.033*[#   1]+0.026*[#   3]+0.026*[#   4]+
          +0.026*[#   6]+
    |psi|^2 = 0.988
==== e(   2) =    11.67864 eV ==== 
     psi = 0.298*[#   3]+0.298*[#   4]+0.298*[#   6]+0.041*[#   2]+0.041*[#   5]+
          +0.006*[#   1]+
    |psi|^2 = 0.982
==== e(   3) =    13.74348 eV ==== 
     psi = 0.316*[#   3]+0.316*[#   4]+0.316*[#   6]+
    |psi|^2 = 0.947
==== e(   4) =    14.82901 eV ==== 
     psi = 0.499*[#   2]+0.499*[#   5]+
    |psi|^2 = 0.999
==== e(   5) =    15.41073 eV ==== 
     psi = 0.333*[#   3]+0.333*[#   4]+0.333*[#   6]+
    |psi|^2 = 0.999
==== e(   6) =    21.28650 eV ==== 
     psi = 0.018*[#   3]+0.018*[#   4]+0.018*[#   6]+
    |psi|^2 = 0.053
==== e(   7) =    23.88770 eV ==== 
     psi = 0.128*[#   1]+0.006*[#   3]+0.006*[#   4]+0.006*[#   6]+0.002*[#   2]+
          +0.002*[#   5]+
    |psi|^2 = 0.150
==== e(   8) =    26.15069 eV ==== 
     psi = 0.742*[#   1]+0.018*[#   2]+0.018*[#   5]+0.003*[#   3]+0.003*[#   4]+
          +0.003*[#   6]+
    |psi|^2 = 0.787
==== e(   9) =    33.16471 eV ==== 
     psi = 
    |psi|^2 = 0.000

 k =   0.7857142850  0.7857142850  0.0000000000
==== e(   1) =    11.17288 eV ==== 
     psi = 0.448*[#   2]+0.448*[#   5]+0.037*[#   1]+0.019*[#   3]+0.019*[#   4]+
          +0.019*[#   6]+
    |psi|^2 = 0.988
==== e(   2) =    11.62644 eV ==== 
     psi = 0.307*[#   3]+0.307*[#   4]+0.307*[#   6]+0.029*[#   2]+0.029*[#   5]+
          +0.003*[#   1]+
    |psi|^2 = 0.985
==== e(   3) =    13.89458 eV ==== 
     psi = 0.314*[#   3]+0.314*[#   4]+0.314*[#   6]+
    |psi|^2 = 0.942
==== e(   4) =    14.89983 eV ==== 
     psi = 0.499*[#   2]+0.499*[#   5]+
    |psi|^2 = 0.999
==== e(   5) =    15.44876 eV ==== 
     psi = 0.333*[#   3]+0.333*[#   4]+0.333*[#   6]+
    |psi|^2 = 0.999
==== e(   6) =    20.91849 eV ==== 
     psi = 0.019*[#   3]+0.019*[#   4]+0.019*[#   6]+
    |psi|^2 = 0.058
==== e(   7) =    24.46752 eV ==== 
     psi = 0.054*[#   1]+0.004*[#   3]+0.004*[#   4]+0.004*[#   6]+0.003*[#   2]+
          +0.003*[#   5]+
    |psi|^2 = 0.071
==== e(   8) =    26.11290 eV ==== 
     psi = 0.807*[#   1]+0.020*[#   2]+0.020*[#   5]+0.003*[#   3]+0.003*[#   4]+
          +0.003*[#   6]+
    |psi|^2 = 0.856
==== e(   9) =    32.85211 eV ==== 
     psi = 
    |psi|^2 = 0.000

 k =   0.8035714280  0.8035714280  0.0000000000
==== e(   1) =    11.08317 eV ==== 
     psi = 0.454*[#   2]+0.454*[#   5]+0.043*[#   1]+0.013*[#   3]+0.013*[#   4]+
          +0.013*[#   6]+
    |psi|^2 = 0.989
==== e(   2) =    11.57389 eV ==== 
     psi = 0.315*[#   3]+0.315*[#   4]+0.315*[#   6]+0.021*[#   2]+0.021*[#   5]+
          +0.002*[#   1]+
    |psi|^2 = 0.987
==== e(   3) =    14.05325 eV ==== 
     psi = 0.312*[#   3]+0.312*[#   4]+0.312*[#   6]+
    |psi|^2 = 0.937
==== e(   4) =    14.96942 eV ==== 
     psi = 0.499*[#   2]+0.499*[#   5]+
    |psi|^2 = 0.999
==== e(   5) =    15.48398 eV ==== 
     psi = 0.333*[#   3]+0.333*[#   4]+0.333*[#   6]+
    |psi|^2 = 0.999
==== e(   6) =    20.56033 eV ==== 
     psi = 0.021*[#   3]+0.021*[#   4]+0.021*[#   6]+
    |psi|^2 = 0.063
==== e(   7) =    25.00533 eV ==== 
     psi = 0.006*[#   2]+0.006*[#   5]+0.002*[#   3]+0.002*[#   4]+0.002*[#   6]+
    |psi|^2 = 0.019
==== e(   8) =    26.13756 eV ==== 
     psi = 0.850*[#   1]+0.020*[#   2]+0.020*[#   5]+0.003*[#   3]+0.003*[#   4]+
          +0.003*[#   6]+
    |psi|^2 = 0.899
==== e(   9) =    32.56001 eV ==== 
     psi = 
    |psi|^2 = 0.000

 k =   0.8214285710  0.8214285710  0.0000000000
==== e(   1) =    10.99786 eV ==== 
     psi = 0.458*[#   2]+0.458*[#   5]+0.048*[#   1]+0.009*[#   3]+0.009*[#   4]+
          +0.009*[#   6]+
    |psi|^2 = 0.989
==== e(   2) =    11.52228 eV ==== 
     psi = 0.320*[#   3]+0.320*[#   4]+0.320*[#   6]+0.014*[#   2]+0.014*[#   5]+
          +0.001*[#   1]+
    |psi|^2 = 0.988
==== e(   3) =    14.21886 eV ==== 
     psi = 0.311*[#   3]+0.311*[#   4]+0.311*[#   6]+
    |psi|^2 = 0.932
==== e(   4) =    15.03695 eV ==== 
     psi = 0.499*[#   2]+0.499*[#   5]+
    |psi|^2 = 0.999
==== e(   5) =    15.51633 eV ==== 
     psi = 0.333*[#   3]+0.333*[#   4]+0.333*[#   6]+
    |psi|^2 = 0.999
==== e(   6) =    20.21265 eV ==== 
     psi = 0.022*[#   3]+0.022*[#   4]+0.022*[#   6]+
    |psi|^2 = 0.067
==== e(   7) =    25.40127 eV ==== 
     psi = 0.107*[#   1]+0.015*[#   2]+0.015*[#   5]+
    |psi|^2 = 0.138
==== e(   8) =    26.32112 eV ==== 
     psi = 0.733*[#   1]+0.013*[#   2]+0.013*[#   5]+0.003*[#   3]+0.003*[#   4]+
          +0.003*[#   6]+
    |psi|^2 = 0.770
==== e(   9) =    32.28926 eV ==== 
     psi = 
    |psi|^2 = 0.000

 k =   0.8392857140  0.8392857140  0.0000000000
==== e(   1) =    10.91774 eV ==== 
     psi = 0.460*[#   2]+0.460*[#   5]+0.053*[#   1]+0.006*[#   3]+0.006*[#   4]+
          +0.006*[#   6]+
    |psi|^2 = 0.990
==== e(   2) =    11.47277 eV ==== 
     psi = 0.324*[#   3]+0.324*[#   4]+0.324*[#   6]+0.009*[#   2]+0.009*[#   5]+
    |psi|^2 = 0.990
==== e(   3) =    14.39054 eV ==== 
     psi = 0.309*[#   3]+0.309*[#   4]+0.309*[#   6]+
    |psi|^2 = 0.927
==== e(   4) =    15.10155 eV ==== 
     psi = 0.499*[#   2]+0.499*[#   5]+
    |psi|^2 = 0.999
==== e(   5) =    15.54576 eV ==== 
     psi = 0.333*[#   3]+0.333*[#   4]+0.333*[#   6]+
    |psi|^2 = 0.999
==== e(   6) =    19.87628 eV ==== 
     psi = 0.024*[#   3]+0.024*[#   4]+0.024*[#   6]+
    |psi|^2 = 0.072
==== e(   7) =    25.56777 eV ==== 
     psi = 0.371*[#   1]+0.025*[#   2]+0.025*[#   5]+
    |psi|^2 = 0.420
==== e(   8) =    26.74719 eV ==== 
     psi = 0.458*[#   1]+0.006*[#   2]+0.006*[#   5]+0.003*[#   3]+0.003*[#   4]+
          +0.003*[#   6]+
    |psi|^2 = 0.479
==== e(   9) =    32.04076 eV ==== 
     psi = 
    |psi|^2 = 0.000

 k =   0.8571428570  0.8571428570  0.0000000000
==== e(   1) =    10.84360 eV ==== 
     psi = 0.461*[#   2]+0.461*[#   5]+0.058*[#   1]+0.003*[#   3]+0.003*[#   4]+
          +0.003*[#   6]+
    |psi|^2 = 0.991
==== e(   2) =    11.42632 eV ==== 
     psi = 0.326*[#   3]+0.326*[#   4]+0.326*[#   6]+0.006*[#   2]+0.006*[#   5]+
    |psi|^2 = 0.991
==== e(   3) =    14.56712 eV ==== 
     psi = 0.308*[#   3]+0.308*[#   4]+0.308*[#   6]+
    |psi|^2 = 0.924
==== e(   4) =    15.16233 eV ==== 
     psi = 0.499*[#   2]+0.499*[#   5]+
    |psi|^2 = 0.999
==== e(   5) =    15.57220 eV ==== 
     psi = 0.333*[#   3]+0.333*[#   4]+0.333*[#   6]+
    |psi|^2 = 0.999
==== e(   6) =    19.55241 eV ==== 
     psi = 0.025*[#   3]+0.025*[#   4]+0.025*[#   6]+
    |psi|^2 = 0.075
==== e(   7) =    25.60753 eV ==== 
     psi = 0.536*[#   1]+0.030*[#   2]+0.030*[#   5]+
    |psi|^2 = 0.596
==== e(   8) =    27.30829 eV ==== 
     psi = 0.282*[#   1]+0.003*[#   2]+0.003*[#   5]+0.002*[#   3]+0.002*[#   4]+
          +0.002*[#   6]+
    |psi|^2 = 0.295
==== e(   9) =    31.81538 eV ==== 
     psi = 
    |psi|^2 = 0.000

 k =   0.8750000000  0.8750000000  0.0000000000
==== e(   1) =    10.77659 eV ==== 
     psi = 0.461*[#   2]+0.461*[#   5]+0.063*[#   1]+0.002*[#   3]+0.002*[#   4]+
          +0.002*[#   6]+
    |psi|^2 = 0.991
==== e(   2) =    11.38387 eV ==== 
     psi = 0.328*[#   3]+0.328*[#   4]+0.328*[#   6]+0.003*[#   2]+0.003*[#   5]+
    |psi|^2 = 0.992
==== e(   3) =    14.74694 eV ==== 
     psi = 0.307*[#   3]+0.307*[#   4]+0.307*[#   6]+
    |psi|^2 = 0.922
==== e(   4) =    15.21844 eV ==== 
     psi = 0.499*[#   2]+0.499*[#   5]+
    |psi|^2 = 0.999
==== e(   5) =    15.59564 eV ==== 
     psi = 0.333*[#   3]+0.333*[#   4]+0.333*[#   6]+
    |psi|^2 = 0.999
==== e(   6) =    19.24267 eV ==== 
     psi = 0.026*[#   3]+0.026*[#   4]+0.026*[#   6]+
    |psi|^2 = 0.077
==== e(   7) =    25.60960 eV ==== 
     psi = 0.623*[#   1]+0.033*[#   2]+0.033*[#   5]+
    |psi|^2 = 0.689
==== e(   8) =    27.91086 eV ==== 
     psi = 0.185*[#   1]+0.002*[#   3]+0.002*[#   4]+0.002*[#   6]+0.002*[#   2]+
          +0.002*[#   5]+
    |psi|^2 = 0.193
==== e(   9) =    31.61401 eV ==== 
     psi = 
    |psi|^2 = 0.000

 k =   0.8928571420  0.8928571420  0.0000000000
==== e(   1) =    10.71660 eV ==== 
     psi = 0.461*[#   2]+0.461*[#   5]+0.067*[#   1]+0.001*[#   3]+0.001*[#   4]+
          +0.001*[#   6]+
    |psi|^2 = 0.992
==== e(   2) =    11.34580 eV ==== 
     psi = 0.330*[#   3]+0.330*[#   4]+0.330*[#   6]+0.002*[#   2]+0.002*[#   5]+
    |psi|^2 = 0.992
==== e(   3) =    14.92760 eV ==== 
     psi = 0.308*[#   3]+0.308*[#   4]+0.308*[#   6]+
    |psi|^2 = 0.924
==== e(   4) =    15.26905 eV ==== 
     psi = 0.499*[#   2]+0.499*[#   5]+
    |psi|^2 = 0.999
==== e(   5) =    15.61601 eV ==== 
     psi = 0.333*[#   3]+0.333*[#   4]+0.333*[#   6]+
    |psi|^2 = 0.999
==== e(   6) =    18.94941 eV ==== 
     psi = 0.025*[#   3]+0.025*[#   4]+0.025*[#   6]+
    |psi|^2 = 0.075
==== e(   7) =    25.59865 eV ==== 
     psi = 0.673*[#   1]+0.036*[#   2]+0.036*[#   5]+
    |psi|^2 = 0.744
==== e(   8) =    28.51873 eV ==== 
     psi = 0.125*[#   1]+0.001*[#   3]+0.001*[#   4]+0.001*[#   6]+
    |psi|^2 = 0.130
==== e(   9) =    31.43747 eV ==== 
     psi = 
    |psi|^2 = 0.000

 k =   0.9107142850  0.9107142850  0.0000000000
==== e(   1) =    10.66468 eV ==== 
     psi = 0.460*[#   2]+0.460*[#   5]+0.071*[#   1]+
    |psi|^2 = 0.992
==== e(   2) =    11.31280 eV ==== 
     psi = 0.330*[#   3]+0.330*[#   4]+0.330*[#   6]+
    |psi|^2 = 0.993
==== e(   3) =    15.10558 eV ==== 
     psi = 0.310*[#   3]+0.310*[#   4]+0.310*[#   6]+
    |psi|^2 = 0.929
==== e(   4) =    15.31336 eV ==== 
     psi = 0.499*[#   2]+0.499*[#   5]+
    |psi|^2 = 0.999
==== e(   5) =    15.63330 eV ==== 
     psi = 0.333*[#   3]+0.333*[#   4]+0.333*[#   6]+
    |psi|^2 = 0.999
==== e(   6) =    18.67618 eV ==== 
     psi = 0.023*[#   3]+0.023*[#   4]+0.023*[#   6]+
    |psi|^2 = 0.070
==== e(   7) =    25.58522 eV ==== 
     psi = 0.705*[#   1]+0.038*[#   2]+0.038*[#   5]+
    |psi|^2 = 0.780
==== e(   8) =    29.11164 eV ==== 
     psi = 0.083*[#   1]+
    |psi|^2 = 0.087
==== e(   9) =    31.28655 eV ==== 
     psi = 
    |psi|^2 = 0.000

 k =   0.9285714280  0.9285714280  0.0000000000
==== e(   1) =    10.62140 eV ==== 
     psi = 0.459*[#   2]+0.459*[#   5]+0.074*[#   1]+
    |psi|^2 = 0.993
==== e(   2) =    11.28528 eV ==== 
     psi = 0.331*[#   3]+0.331*[#   4]+0.331*[#   6]+
    |psi|^2 = 0.993
==== e(   3) =    15.27559 eV ==== 
     psi = 0.313*[#   3]+0.313*[#   4]+0.313*[#   6]+
    |psi|^2 = 0.939
==== e(   4) =    15.35068 eV ==== 
     psi = 0.499*[#   2]+0.499*[#   5]+
    |psi|^2 = 0.999
==== e(   5) =    15.64747 eV ==== 
     psi = 0.333*[#   3]+0.333*[#   4]+0.333*[#   6]+
    |psi|^2 = 0.999
==== e(   6) =    18.42823 eV ==== 
     psi = 0.020*[#   3]+0.020*[#   4]+0.020*[#   6]+
    |psi|^2 = 0.060
==== e(   7) =    25.57263 eV ==== 
     psi = 0.726*[#   1]+0.039*[#   2]+0.039*[#   5]+
    |psi|^2 = 0.804
==== e(   8) =    29.66985 eV ==== 
     psi = 0.053*[#   1]+
    |psi|^2 = 0.055
==== e(   9) =    31.16197 eV ==== 
     psi = 
    |psi|^2 = 0.000

 k =   0.9464285710  0.9464285710  0.0000000000
==== e(   1) =    10.58802 eV ==== 
     psi = 0.459*[#   2]+0.459*[#   5]+0.076*[#   1]+
    |psi|^2 = 0.993
==== e(   2) =    11.26379 eV ==== 
     psi = 0.331*[#   3]+0.331*[#   4]+0.331*[#   6]+
    |psi|^2 = 0.993
==== e(   3) =    15.38040 eV ==== 
     psi = 0.499*[#   2]+0.499*[#   5]+
    |psi|^2 = 0.999
==== e(   4) =    15.42974 eV ==== 
     psi = 0.318*[#   3]+0.318*[#   4]+0.318*[#   6]+
    |psi|^2 = 0.954
==== e(   5) =    15.65852 eV ==== 
     psi = 0.333*[#   3]+0.333*[#   4]+0.333*[#   6]+
    |psi|^2 = 0.999
==== e(   6) =    18.21333 eV ==== 
     psi = 0.015*[#   3]+0.015*[#   4]+0.015*[#   6]+
    |psi|^2 = 0.045
==== e(   7) =    25.56468 eV ==== 
     psi = 0.740*[#   1]+0.040*[#   2]+0.040*[#   5]+
    |psi|^2 = 0.820
==== e(   8) =    30.16831 eV ==== 
     psi = 0.030*[#   1]+
    |psi|^2 = 0.032
==== e(   9) =    31.06408 eV ==== 
     psi = 
    |psi|^2 = 0.000

 k =   0.9642857140  0.9642857140  0.0000000000
==== e(   1) =    10.56360 eV ==== 
     psi = 0.458*[#   2]+0.458*[#   5]+0.078*[#   1]+
    |psi|^2 = 0.993
==== e(   2) =    11.24823 eV ==== 
     psi = 0.331*[#   3]+0.331*[#   4]+0.331*[#   6]+
    |psi|^2 = 0.993
==== e(   3) =    15.40201 eV ==== 
     psi = 0.499*[#   2]+0.499*[#   5]+
    |psi|^2 = 0.999
==== e(   4) =    15.55674 eV ==== 
     psi = 0.325*[#   3]+0.325*[#   4]+0.325*[#   6]+
    |psi|^2 = 0.974
==== e(   5) =    15.66642 eV ==== 
     psi = 0.333*[#   3]+0.333*[#   4]+0.333*[#   6]+
    |psi|^2 = 0.999
==== e(   6) =    18.04304 eV ==== 
     psi = 0.008*[#   3]+0.008*[#   4]+0.008*[#   6]+
    |psi|^2 = 0.025
==== e(   7) =    25.55785 eV ==== 
     psi = 0.748*[#   1]+0.041*[#   2]+0.041*[#   5]+
    |psi|^2 = 0.830
==== e(   8) =    30.57300 eV ==== 
     psi = 0.014*[#   1]+
    |psi|^2 = 0.015
==== e(   9) =    30.99399 eV ==== 
     psi = 
    |psi|^2 = 0.000

 k =   0.9821428570  0.9821428570  0.0000000000
==== e(   1) =    10.54863 eV ==== 
     psi = 0.457*[#   2]+0.457*[#   5]+0.079*[#   1]+
    |psi|^2 = 0.994
==== e(   2) =    11.23875 eV ==== 
     psi = 0.331*[#   3]+0.331*[#   4]+0.331*[#   6]+
    |psi|^2 = 0.994
==== e(   3) =    15.41513 eV ==== 
     psi = 0.499*[#   2]+0.499*[#   5]+
    |psi|^2 = 0.999
==== e(   4) =    15.64228 eV ==== 
     psi = 0.330*[#   3]+0.330*[#   4]+0.330*[#   6]+
    |psi|^2 = 0.991
==== e(   5) =    15.67117 eV ==== 
     psi = 0.333*[#   3]+0.333*[#   4]+0.333*[#   6]+
    |psi|^2 = 0.999
==== e(   6) =    17.93153 eV ==== 
     psi = 0.002*[#   3]+0.002*[#   4]+0.002*[#   6]+
    |psi|^2 = 0.007
==== e(   7) =    25.55293 eV ==== 
     psi = 0.753*[#   1]+0.041*[#   2]+0.041*[#   5]+
    |psi|^2 = 0.836
==== e(   8) =    30.84236 eV ==== 
     psi = 0.004*[#   1]+
    |psi|^2 = 0.004
==== e(   9) =    30.95179 eV ==== 
     psi = 
    |psi|^2 = 0.000

 k =   1.0000000000  1.0000000000  0.0000000000
==== e(   1) =    10.54362 eV ==== 
     psi = 0.457*[#   2]+0.457*[#   5]+0.079*[#   1]+
    |psi|^2 = 0.994
==== e(   2) =    11.23558 eV ==== 
     psi = 0.331*[#   3]+0.331*[#   4]+0.331*[#   6]+
    |psi|^2 = 0.994
==== e(   3) =    15.41953 eV ==== 
     psi = 0.499*[#   2]+0.499*[#   5]+
    |psi|^2 = 0.999
==== e(   4) =    15.67275 eV ==== 
     psi = 0.333*[#   3]+0.333*[#   4]+0.333*[#   6]+
    |psi|^2 = 0.999
==== e(   5) =    15.67275 eV ==== 
     psi = 0.333*[#   3]+0.333*[#   4]+0.333*[#   6]+
    |psi|^2 = 0.999
==== e(   6) =    17.89241 eV ==== 
     psi = 
    |psi|^2 = 0.000
==== e(   7) =    25.55128 eV ==== 
     psi = 0.755*[#   1]+0.042*[#   2]+0.042*[#   5]+
    |psi|^2 = 0.838
==== e(   8) =    30.93770 eV ==== 
     psi = 
    |psi|^2 = 0.000
==== e(   9) =    30.93770 eV ==== 
     psi = 
    |psi|^2 = 0.000

Lowdin Charges: 

     Atom #   1: total charge =  10.1879, s =  1.0453, p =  0.0000, d =  9.1426, 
                 spin up      =   5.4006, s =  0.5207, 
                 spin up      =   5.4006, p =  0.0000, pz=  0.0000, px=  0.0000, py=  0.0000, 
                 spin up      =   5.4006, d =  4.8799, dz2=  0.9748, dxz=  0.9768, dyz=  0.9768, dx2-y2=  0.9748, dxy=  0.9768, 
                 spin down    =   4.7873, s =  0.5245, 
                 spin down    =   4.7873, p =  0.0000, pz=  0.0000, px=  0.0000, py=  0.0000, 
                 spin down    =   4.7873, d =  4.2627, dz2=  0.8985, dxz=  0.8219, dyz=  0.8219, dx2-y2=  0.8985, dxy=  0.8219, 
                 polarization =   0.6133, s = -0.0038, p =  0.0000, d =  0.6172, 
     Spilling Parameter:  -0.0188
 
     PROJWFC      :     2.20s CPU        21.31s WALL

 
   This run was terminated on:  18: 7:58   7Feb2018            

=------------------------------------------------------------------------------=
   JOB DONE.
=------------------------------------------------------------------------------=
