
     Program PWSCF v.5.4.0 starts on  7Feb2018 at 18: 9:46 

     This program is part of the open-source Quantum ESPRESSO suite
     for quantum simulation of materials; please cite
         "P. Giannozzi et al., J. Phys.:Condens. Matter 21 395502 (2009);
          URL http://www.quantum-espresso.org", 
     in publications or presentations arising from this work. More details at
     http://www.quantum-espresso.org/quote

     Parallel version (MPI & OpenMP), running on       1 processor cores
     Number of MPI processes:                 1
     Threads/MPI process:                     1
     Waiting for input...
     Reading input from standard input
     Message from routine read_cards :
     DEPRECATED: no units specified in ATOMIC_POSITIONS card
     Message from routine read_cards :
     ATOMIC_POSITIONS: units set to alat

     Current dimensions of program PWSCF are:
     Max number of different atomic species (ntypx) = 10
     Max number of k-points (npk) =  40000
     Max angular momentum in pseudopotentials (lmaxx) =  3
               file Ni.pz-nd-rrkjus.UPF: wavefunction(s)  4S renormalized

     Subspace diagonalization in iterative solution of the eigenvalue problem:
     a serial algorithm will be used

 
     G-vector sticks info
     --------------------
     sticks:   dense  smooth     PW     G-vecs:    dense   smooth      PW
     Sum         421     139     55                 5601     1067     283
 


     bravais-lattice index     =            2
     lattice parameter (alat)  =       6.4800  a.u.
     unit-cell volume          =      68.0244 (a.u.)^3
     number of atoms/cell      =            1
     number of atomic types    =            1
     number of electrons       =        10.00
     number of Kohn-Sham states=            9
     kinetic-energy cutoff     =      24.0000  Ry
     charge density cutoff     =     288.0000  Ry
     convergence threshold     =      1.0E-10
     mixing beta               =       0.7000
     number of iterations used =            8  plain     mixing
     Exchange-correlation      =  SLA  PZ   NOGX NOGC ( 1  1  0  0 0 0)

     celldm(1)=   6.480000  celldm(2)=   0.000000  celldm(3)=   0.000000
     celldm(4)=   0.000000  celldm(5)=   0.000000  celldm(6)=   0.000000

     crystal axes: (cart. coord. in units of alat)
               a(1) = (  -0.500000   0.000000   0.500000 )  
               a(2) = (   0.000000   0.500000   0.500000 )  
               a(3) = (  -0.500000   0.500000   0.000000 )  

     reciprocal axes: (cart. coord. in units 2 pi/alat)
               b(1) = ( -1.000000 -1.000000  1.000000 )  
               b(2) = (  1.000000  1.000000  1.000000 )  
               b(3) = ( -1.000000  1.000000 -1.000000 )  


     PseudoPot. # 1 for Ni read from file:
     /short/y35/tjf502/QE-5.4.0-bw/pseudo/Ni.pz-nd-rrkjus.UPF
     MD5 check sum: bf64e4f20c74808dea28321d1ca350c3
     Pseudo is Ultrasoft + core correction, Zval = 10.0
     Generated by new atomic code, or converted to UPF format
     Using radial grid of 1203 points,  6 beta functions with: 
                l(1) =   0
                l(2) =   0
                l(3) =   1
                l(4) =   1
                l(5) =   2
                l(6) =   2
     Q(r) pseudized with 0 coefficients 


     atomic species   valence    mass     pseudopotential
        Ni            10.00    58.69000     Ni( 1.00)

     48 Sym. Ops., with inversion, found



   Cartesian axes

     site n.     atom                  positions (alat units)
         1           Ni  tau(   1) = (   0.0000000   0.0000000   0.0000000  )

     number of k points=    29  Methfessel-Paxton smearing, width (Ry)=  0.0200
                       cart. coord. in units 2pi/alat
        k(    1) = (   0.0000000   0.0000000   0.0000000), wk =   0.0039062
        k(    2) = (  -0.1250000   0.1250000  -0.1250000), wk =   0.0312500
        k(    3) = (  -0.2500000   0.2500000  -0.2500000), wk =   0.0312500
        k(    4) = (  -0.3750000   0.3750000  -0.3750000), wk =   0.0312500
        k(    5) = (   0.5000000  -0.5000000   0.5000000), wk =   0.0156250
        k(    6) = (   0.0000000   0.2500000   0.0000000), wk =   0.0234375
        k(    7) = (  -0.1250000   0.3750000  -0.1250000), wk =   0.0937500
        k(    8) = (  -0.2500000   0.5000000  -0.2500000), wk =   0.0937500
        k(    9) = (   0.6250000  -0.3750000   0.6250000), wk =   0.0937500
        k(   10) = (   0.5000000  -0.2500000   0.5000000), wk =   0.0937500
        k(   11) = (   0.3750000  -0.1250000   0.3750000), wk =   0.0937500
        k(   12) = (   0.2500000   0.0000000   0.2500000), wk =   0.0468750
        k(   13) = (   0.0000000   0.5000000   0.0000000), wk =   0.0234375
        k(   14) = (  -0.1250000   0.6250000  -0.1250000), wk =   0.0937500
        k(   15) = (   0.7500000  -0.2500000   0.7500000), wk =   0.0937500
        k(   16) = (   0.6250000  -0.1250000   0.6250000), wk =   0.0937500
        k(   17) = (   0.5000000   0.0000000   0.5000000), wk =   0.0468750
        k(   18) = (   0.0000000   0.7500000   0.0000000), wk =   0.0234375
        k(   19) = (   0.8750000  -0.1250000   0.8750000), wk =   0.0937500
        k(   20) = (   0.7500000   0.0000000   0.7500000), wk =   0.0468750
        k(   21) = (   0.0000000  -1.0000000   0.0000000), wk =   0.0117188
        k(   22) = (  -0.2500000   0.5000000   0.0000000), wk =   0.0937500
        k(   23) = (   0.6250000  -0.3750000   0.8750000), wk =   0.1875000
        k(   24) = (   0.5000000  -0.2500000   0.7500000), wk =   0.0937500
        k(   25) = (   0.7500000  -0.2500000   1.0000000), wk =   0.0937500
        k(   26) = (   0.6250000  -0.1250000   0.8750000), wk =   0.1875000
        k(   27) = (   0.5000000   0.0000000   0.7500000), wk =   0.0937500
        k(   28) = (  -0.2500000  -1.0000000   0.0000000), wk =   0.0468750
        k(   29) = (  -0.5000000  -1.0000000   0.0000000), wk =   0.0234375

     Dense  grid:     5601 G-vectors     FFT dimensions: (  25,  25,  25)

     Smooth grid:     1067 G-vectors     FFT dimensions: (  15,  15,  15)

     Largest allocated arrays     est. size (Mb)     dimensions
        Kohn-Sham Wavefunctions         0.02 Mb     (     144,    9)
        NL pseudopotentials             0.04 Mb     (     144,   18)
        Each V/rho on FFT grid          0.24 Mb     (   15625)
        Each G-vector array             0.04 Mb     (    5601)
        G-vector shells                 0.00 Mb     (     104)
     Largest temporary arrays     est. size (Mb)     dimensions
        Auxiliary wavefunctions         0.08 Mb     (     144,   36)
        Each subspace H/S matrix        0.02 Mb     (      36,   36)
        Each <psi_i|beta_j> matrix      0.00 Mb     (      18,    9)
        Arrays for rho mixing           1.91 Mb     (   15625,    8)

     Check: negative/imaginary core charge=   -0.000015    0.000000

     Initial potential from superposition of free atoms

     starting charge    9.99966, renormalised to   10.00000
     Starting wfc are    6 randomized atomic wfcs +    3 random wfc

     total cpu time spent up to now is        0.5 secs

     Self-consistent Calculation

     iteration #  1     ecut=    24.00 Ry     beta=0.70
     Davidson diagonalization with overlap
     ethr =  1.00E-02,  avg # of iterations =  4.4

     total cpu time spent up to now is        0.7 secs

     total energy              =     -85.54919741 Ry
     Harris-Foulkes estimate   =     -85.80464717 Ry
     estimated scf accuracy    <       0.33121565 Ry

     iteration #  2     ecut=    24.00 Ry     beta=0.70
     Davidson diagonalization with overlap
     ethr =  3.31E-03,  avg # of iterations =  2.0

     total cpu time spent up to now is        0.9 secs

     total energy              =     -85.61683919 Ry
     Harris-Foulkes estimate   =     -85.86450393 Ry
     estimated scf accuracy    <       0.55544239 Ry

     iteration #  3     ecut=    24.00 Ry     beta=0.70
     Davidson diagonalization with overlap
     ethr =  3.31E-03,  avg # of iterations =  1.5

     total cpu time spent up to now is        1.0 secs

     total energy              =     -85.71671305 Ry
     Harris-Foulkes estimate   =     -85.71671113 Ry
     estimated scf accuracy    <       0.00008358 Ry

     iteration #  4     ecut=    24.00 Ry     beta=0.70
     Davidson diagonalization with overlap
     ethr =  8.36E-07,  avg # of iterations =  3.6

     total cpu time spent up to now is        1.2 secs

     total energy              =     -85.71727740 Ry
     Harris-Foulkes estimate   =     -85.71727919 Ry
     estimated scf accuracy    <       0.00001193 Ry

     iteration #  5     ecut=    24.00 Ry     beta=0.70
     Davidson diagonalization with overlap
     ethr =  1.19E-07,  avg # of iterations =  1.0

     total cpu time spent up to now is        1.4 secs

     total energy              =     -85.71727717 Ry
     Harris-Foulkes estimate   =     -85.71727792 Ry
     estimated scf accuracy    <       0.00000208 Ry

     iteration #  6     ecut=    24.00 Ry     beta=0.70
     Davidson diagonalization with overlap
     ethr =  2.08E-08,  avg # of iterations =  1.3

     total cpu time spent up to now is        1.5 secs

     total energy              =     -85.71727724 Ry
     Harris-Foulkes estimate   =     -85.71727723 Ry
     estimated scf accuracy    <       0.00000001 Ry

     iteration #  7     ecut=    24.00 Ry     beta=0.70
     Davidson diagonalization with overlap
     ethr =  1.38E-10,  avg # of iterations =  2.5

     total cpu time spent up to now is        1.6 secs

     total energy              =     -85.71727725 Ry
     Harris-Foulkes estimate   =     -85.71727725 Ry
     estimated scf accuracy    <          5.0E-09 Ry

     iteration #  8     ecut=    24.00 Ry     beta=0.70
     Davidson diagonalization with overlap
     ethr =  4.98E-11,  avg # of iterations =  1.0

     total cpu time spent up to now is        1.8 secs

     total energy              =     -85.71727725 Ry
     Harris-Foulkes estimate   =     -85.71727725 Ry
     estimated scf accuracy    <          3.1E-10 Ry

     iteration #  9     ecut=    24.00 Ry     beta=0.70
     Davidson diagonalization with overlap
     ethr =  3.07E-12,  avg # of iterations =  1.2

     total cpu time spent up to now is        1.9 secs

     End of self-consistent calculation

          k = 0.0000 0.0000 0.0000 (   137 PWs)   bands (ev):

     5.7640  13.0168  13.0168  13.0168  14.2881  14.2881  39.8591  44.2856
    44.2856

          k =-0.1250 0.1250-0.1250 (   138 PWs)   bands (ev):

     6.4057  12.8455  13.1535  13.1535  14.2390  14.2390  37.3002  41.0711
    43.4721

          k =-0.2500 0.2500-0.2500 (   138 PWs)   bands (ev):

     8.1304  12.6121  13.2534  13.2534  14.3863  14.3863  30.7200  40.0641
    42.4138

          k =-0.3750 0.3750-0.3750 (   144 PWs)   bands (ev):

     9.8365  13.0814  13.0814  13.3953  14.8603  14.8603  24.8502  38.8353
    41.7055

          k = 0.5000-0.5000 0.5000 (   138 PWs)   bands (ev):

    10.2306  12.9802  12.9802  14.9661  15.1047  15.1047  21.7343  38.3053
    41.4394

          k = 0.0000 0.2500 0.0000 (   137 PWs)   bands (ev):

     6.6162  12.6908  13.2747  13.2747  13.9944  14.4046  38.8387  40.4896
    40.4896

          k =-0.1250 0.3750-0.1250 (   140 PWs)   bands (ev):

     7.9834  12.3681  13.3300  13.4926  14.0682  14.5744  33.3126  38.5158
    38.8327

          k =-0.2500 0.5000-0.2500 (   142 PWs)   bands (ev):

     9.8290  12.4035  12.9818  13.4147  14.9539  15.0734  27.0160  37.3869
    37.6984

          k = 0.6250-0.3750 0.6250 (   134 PWs)   bands (ev):

    10.5696  12.6572  13.2547  13.3928  15.1214  16.8581  22.3278  35.7383
    38.2648

          k = 0.5000-0.2500 0.5000 (   134 PWs)   bands (ev):

    10.4863  12.7670  13.1829  13.2548  14.7889  16.4130  23.5837  34.7028
    39.8558

          k = 0.3750-0.1250 0.3750 (   140 PWs)   bands (ev):

     9.2799  12.4121  13.0789  13.4423  14.1619  15.1991  29.0342  34.7059
    41.7940

          k = 0.2500 0.0000 0.2500 (   141 PWs)   bands (ev):

     7.4203  12.5768  13.2703  13.3825  13.9653  14.5239  35.2370  36.0537
    43.7512

          k = 0.0000 0.5000 0.0000 (   133 PWs)   bands (ev):

     8.8183  11.9432  13.5615  13.9840  13.9840  14.6907  35.7444  35.7445
    36.5117

          k =-0.1250 0.6250-0.1250 (   137 PWs)   bands (ev):

    10.1442  11.6657  13.2769  14.1369  14.9998  15.2432  30.0593  33.5406
    34.3361

          k = 0.7500-0.2500 0.7500 (   132 PWs)   bands (ev):

    11.0384  11.7643  13.0151  13.9726  15.1638  17.9744  24.4740  30.8583
    34.5647

          k = 0.6250-0.1250 0.6250 (   129 PWs)   bands (ev):

    11.3778  12.0176  12.7511  13.8322  14.8119  19.2818  22.9867  29.1544
    36.4804

          k = 0.5000 0.0000 0.5000 (   138 PWs)   bands (ev):

    10.8711  12.2509  12.5527  13.7747  14.2276  16.7328  27.6950  29.0992
    39.7541

          k = 0.0000 0.7500 0.0000 (   129 PWs)   bands (ev):

    10.3182  11.2443  14.8629  14.8629  14.9839  15.1703  29.6831  32.2493
    32.2493

          k = 0.8750-0.1250 0.8750 (   131 PWs)   bands (ev):

    10.6113  11.1840  14.2668  14.7855  15.2191  18.1450  26.8827  28.1699
    31.9107

          k = 0.7500 0.0000 0.7500 (   134 PWs)   bands (ev):

    11.1512  11.4871  13.3322  14.4628  15.0034  21.5483  23.1943  26.1049
    33.4561

          k = 0.0000-1.0000 0.0000 (   126 PWs)   bands (ev):

    10.3610  10.9679  15.1075  15.2999  15.2999  17.8816  25.4082  30.9152
    30.9152

          k =-0.2500 0.5000 0.0000 (   137 PWs)   bands (ev):

     9.4684  12.0581  13.0034  13.9985  14.0822  15.2393  31.6243  32.3000
    38.0094

          k = 0.6250-0.3750 0.8750 (   136 PWs)   bands (ev):

    10.8971  12.1255  12.6067  13.8329  14.7409  16.8494  25.9106  31.7149
    35.0128

          k = 0.5000-0.2500 0.7500 (   132 PWs)   bands (ev):

    11.2112  12.1106  12.8608  13.6865  15.0122  19.0805  22.0953  32.2762
    33.2908

          k = 0.7500-0.2500 1.0000 (   129 PWs)   bands (ev):

    10.8280  11.5070  13.2131  14.6613  14.8584  17.1880  28.9125  29.5351
    30.6281

          k = 0.6250-0.1250 0.8750 (   132 PWs)   bands (ev):

    11.3191  11.6969  12.8289  14.2926  15.1215  20.5896  24.0225  27.9089
    30.2343

          k = 0.5000 0.0000 0.7500 (   134 PWs)   bands (ev):

    11.6695  11.9581  12.2769  14.1253  14.8663  19.7144  24.8248  27.2587
    32.1374

          k =-0.2500-1.0000 0.0000 (   130 PWs)   bands (ev):

    10.7930  11.2825  13.8420  14.7228  15.3005  20.0315  25.5886  27.8275
    28.9519

          k =-0.5000-1.0000 0.0000 (   144 PWs)   bands (ev):

    11.3606  12.2446  12.2446  14.1953  15.3011  23.6622  23.6622  26.0401
    27.2669

     the Fermi energy is    15.1160 ev

!    total energy              =     -85.71727725 Ry
     Harris-Foulkes estimate   =     -85.71727725 Ry
     estimated scf accuracy    <          3.7E-11 Ry

     The total energy is the sum of the following terms:

     one-electron contribution =       0.28473046 Ry
     hartree contribution      =      14.35438025 Ry
     xc contribution           =     -29.60082972 Ry
     ewald contribution        =     -70.75404435 Ry
     smearing contrib. (-TS)   =      -0.00151390 Ry

     convergence has been achieved in   9 iterations

     Writing output data file ni.save
 
     init_run     :      0.10s CPU      0.38s WALL (       1 calls)
     electrons    :      0.54s CPU      1.43s WALL (       1 calls)

     Called by init_run:
     wfcinit      :      0.01s CPU      0.03s WALL (       1 calls)
     potinit      :      0.00s CPU      0.00s WALL (       1 calls)

     Called by electrons:
     c_bands      :      0.30s CPU      0.89s WALL (       9 calls)
     sum_band     :      0.20s CPU      0.35s WALL (       9 calls)
     v_of_rho     :      0.00s CPU      0.01s WALL (      10 calls)
     newd         :      0.03s CPU      0.18s WALL (      10 calls)
     mix_rho      :      0.00s CPU      0.01s WALL (       9 calls)

     Called by c_bands:
     init_us_2    :      0.01s CPU      0.03s WALL (     551 calls)
     cegterg      :      0.28s CPU      0.77s WALL (     261 calls)

     Called by sum_band:
     sum_band:bec :      0.00s CPU      0.00s WALL (     261 calls)
     addusdens    :      0.11s CPU      0.19s WALL (       9 calls)

     Called by *egterg:
     h_psi        :      0.21s CPU      0.57s WALL (     829 calls)
     s_psi        :      0.01s CPU      0.02s WALL (     829 calls)
     g_psi        :      0.00s CPU      0.01s WALL (     539 calls)
     cdiaghg      :      0.04s CPU      0.14s WALL (     800 calls)

     Called by h_psi:
     add_vuspsi   :      0.01s CPU      0.02s WALL (     829 calls)

     General routines
     calbec       :      0.01s CPU      0.02s WALL (    1090 calls)
     fft          :      0.00s CPU      0.02s WALL (      86 calls)
     ffts         :      0.00s CPU      0.00s WALL (      19 calls)
     fftw         :      0.20s CPU      0.50s WALL (   14269 calls)
     interpolate  :      0.00s CPU      0.01s WALL (      19 calls)
     davcio       :      0.00s CPU      0.00s WALL (      29 calls)
 
     Parallel routines
     fft_scatter  :      0.02s CPU      0.05s WALL (   14374 calls)
 
     PWSCF        :     0.68s CPU         2.06s WALL

 
   This run was terminated on:  18: 9:48   7Feb2018            

=------------------------------------------------------------------------------=
   JOB DONE.
=------------------------------------------------------------------------------=
