
     Program PWSCF v.5.4.0 starts on  7Feb2018 at 18: 8:54 

     This program is part of the open-source Quantum ESPRESSO suite
     for quantum simulation of materials; please cite
         "P. Giannozzi et al., J. Phys.:Condens. Matter 21 395502 (2009);
          URL http://www.quantum-espresso.org", 
     in publications or presentations arising from this work. More details at
     http://www.quantum-espresso.org/quote

     Parallel version (MPI & OpenMP), running on       1 processor cores
     Number of MPI processes:                 1
     Threads/MPI process:                     1
     Waiting for input...
     Reading input from standard input
     Message from routine read_cards :
     DEPRECATED: no units specified in ATOMIC_POSITIONS card
     Message from routine read_cards :
     ATOMIC_POSITIONS: units set to alat

     Current dimensions of program PWSCF are:
     Max number of different atomic species (ntypx) = 10
     Max number of k-points (npk) =  40000
     Max angular momentum in pseudopotentials (lmaxx) =  3
               file Ni.pz-nd-rrkjus.UPF: wavefunction(s)  4S renormalized

     Subspace diagonalization in iterative solution of the eigenvalue problem:
     a serial algorithm will be used

 
     G-vector sticks info
     --------------------
     sticks:   dense  smooth     PW     G-vecs:    dense   smooth      PW
     Sum         421     139     55                 5601     1067     283
 
     Generating pointlists ...
     new r_m :   0.2917 (alat units)  1.8901 (a.u.) for type    1


     bravais-lattice index     =            2
     lattice parameter (alat)  =       6.4800  a.u.
     unit-cell volume          =      68.0244 (a.u.)^3
     number of atoms/cell      =            1
     number of atomic types    =            1
     number of electrons       =        10.00
     number of Kohn-Sham states=            9
     kinetic-energy cutoff     =      24.0000  Ry
     charge density cutoff     =     288.0000  Ry
     convergence threshold     =      1.0E-10
     mixing beta               =       0.7000
     number of iterations used =            8  plain     mixing
     Exchange-correlation      =  SLA  PZ   NOGX NOGC ( 1  1  0  0 0 0)

     celldm(1)=   6.480000  celldm(2)=   0.000000  celldm(3)=   0.000000
     celldm(4)=   0.000000  celldm(5)=   0.000000  celldm(6)=   0.000000

     crystal axes: (cart. coord. in units of alat)
               a(1) = (  -0.500000   0.000000   0.500000 )  
               a(2) = (   0.000000   0.500000   0.500000 )  
               a(3) = (  -0.500000   0.500000   0.000000 )  

     reciprocal axes: (cart. coord. in units 2 pi/alat)
               b(1) = ( -1.000000 -1.000000  1.000000 )  
               b(2) = (  1.000000  1.000000  1.000000 )  
               b(3) = ( -1.000000  1.000000 -1.000000 )  


     PseudoPot. # 1 for Ni read from file:
     /short/y35/tjf502/QE-5.4.0-bw/pseudo/Ni.pz-nd-rrkjus.UPF
     MD5 check sum: bf64e4f20c74808dea28321d1ca350c3
     Pseudo is Ultrasoft + core correction, Zval = 10.0
     Generated by new atomic code, or converted to UPF format
     Using radial grid of 1203 points,  6 beta functions with: 
                l(1) =   0
                l(2) =   0
                l(3) =   1
                l(4) =   1
                l(5) =   2
                l(6) =   2
     Q(r) pseudized with 0 coefficients 


     atomic species   valence    mass     pseudopotential
        Ni            10.00    58.69000     Ni( 1.00)

     Starting magnetic structure 
     atomic species   magnetization
        Ni           0.800

     48 Sym. Ops., with inversion, found



   Cartesian axes

     site n.     atom                  positions (alat units)
         1           Ni  tau(   1) = (   0.0000000   0.0000000   0.0000000  )

     number of k points=    29  Methfessel-Paxton smearing, width (Ry)=  0.0200
                       cart. coord. in units 2pi/alat
        k(    1) = (   0.0000000   0.0000000   0.0000000), wk =   0.0019531
        k(    2) = (  -0.1250000   0.1250000  -0.1250000), wk =   0.0156250
        k(    3) = (  -0.2500000   0.2500000  -0.2500000), wk =   0.0156250
        k(    4) = (  -0.3750000   0.3750000  -0.3750000), wk =   0.0156250
        k(    5) = (   0.5000000  -0.5000000   0.5000000), wk =   0.0078125
        k(    6) = (   0.0000000   0.2500000   0.0000000), wk =   0.0117188
        k(    7) = (  -0.1250000   0.3750000  -0.1250000), wk =   0.0468750
        k(    8) = (  -0.2500000   0.5000000  -0.2500000), wk =   0.0468750
        k(    9) = (   0.6250000  -0.3750000   0.6250000), wk =   0.0468750
        k(   10) = (   0.5000000  -0.2500000   0.5000000), wk =   0.0468750
        k(   11) = (   0.3750000  -0.1250000   0.3750000), wk =   0.0468750
        k(   12) = (   0.2500000   0.0000000   0.2500000), wk =   0.0234375
        k(   13) = (   0.0000000   0.5000000   0.0000000), wk =   0.0117188
        k(   14) = (  -0.1250000   0.6250000  -0.1250000), wk =   0.0468750
        k(   15) = (   0.7500000  -0.2500000   0.7500000), wk =   0.0468750
        k(   16) = (   0.6250000  -0.1250000   0.6250000), wk =   0.0468750
        k(   17) = (   0.5000000   0.0000000   0.5000000), wk =   0.0234375
        k(   18) = (   0.0000000   0.7500000   0.0000000), wk =   0.0117188
        k(   19) = (   0.8750000  -0.1250000   0.8750000), wk =   0.0468750
        k(   20) = (   0.7500000   0.0000000   0.7500000), wk =   0.0234375
        k(   21) = (   0.0000000  -1.0000000   0.0000000), wk =   0.0058594
        k(   22) = (  -0.2500000   0.5000000   0.0000000), wk =   0.0468750
        k(   23) = (   0.6250000  -0.3750000   0.8750000), wk =   0.0937500
        k(   24) = (   0.5000000  -0.2500000   0.7500000), wk =   0.0468750
        k(   25) = (   0.7500000  -0.2500000   1.0000000), wk =   0.0468750
        k(   26) = (   0.6250000  -0.1250000   0.8750000), wk =   0.0937500
        k(   27) = (   0.5000000   0.0000000   0.7500000), wk =   0.0468750
        k(   28) = (  -0.2500000  -1.0000000   0.0000000), wk =   0.0234375
        k(   29) = (  -0.5000000  -1.0000000   0.0000000), wk =   0.0117188

     Dense  grid:     5601 G-vectors     FFT dimensions: (  25,  25,  25)

     Smooth grid:     1067 G-vectors     FFT dimensions: (  15,  15,  15)

     Largest allocated arrays     est. size (Mb)     dimensions
        Kohn-Sham Wavefunctions         0.02 Mb     (     144,    9)
        NL pseudopotentials             0.04 Mb     (     144,   18)
        Each V/rho on FFT grid          0.48 Mb     (   15625,   2)
        Each G-vector array             0.04 Mb     (    5601)
        G-vector shells                 0.00 Mb     (     104)
     Largest temporary arrays     est. size (Mb)     dimensions
        Auxiliary wavefunctions         0.08 Mb     (     144,   36)
        Each subspace H/S matrix        0.02 Mb     (      36,   36)
        Each <psi_i|beta_j> matrix      0.00 Mb     (      18,    9)
        Arrays for rho mixing           1.91 Mb     (   15625,    8)

     Check: negative/imaginary core charge=   -0.000015    0.000000

     Initial potential from superposition of free atoms

     starting charge    9.99966, renormalised to   10.00000
     Starting wfc are    6 randomized atomic wfcs +    3 random wfc

     total cpu time spent up to now is        0.5 secs

     Self-consistent Calculation

     iteration #  1     ecut=    24.00 Ry     beta=0.70
     Davidson diagonalization with overlap
     ethr =  1.00E-02,  avg # of iterations =  4.3

     total cpu time spent up to now is        0.9 secs

     total energy              =     -85.29733736 Ry
     Harris-Foulkes estimate   =     -85.18747457 Ry
     estimated scf accuracy    <       1.12078584 Ry

     total magnetization       =     1.97 Bohr mag/cell
     absolute magnetization    =     1.98 Bohr mag/cell

     iteration #  2     ecut=    24.00 Ry     beta=0.70
     Davidson diagonalization with overlap
     ethr =  1.00E-02,  avg # of iterations =  1.9

     total cpu time spent up to now is        1.1 secs

     total energy              =     -85.49740356 Ry
     Harris-Foulkes estimate   =     -85.82763923 Ry
     estimated scf accuracy    <       1.04581812 Ry

     total magnetization       =     0.66 Bohr mag/cell
     absolute magnetization    =     0.78 Bohr mag/cell

     iteration #  3     ecut=    24.00 Ry     beta=0.70
     Davidson diagonalization with overlap
     ethr =  1.00E-02,  avg # of iterations =  1.1

     total cpu time spent up to now is        1.4 secs

     total energy              =     -85.70111228 Ry
     Harris-Foulkes estimate   =     -85.67244167 Ry
     estimated scf accuracy    <       0.05520326 Ry

     total magnetization       =     1.12 Bohr mag/cell
     absolute magnetization    =     1.20 Bohr mag/cell

     iteration #  4     ecut=    24.00 Ry     beta=0.70
     Davidson diagonalization with overlap
     ethr =  5.52E-04,  avg # of iterations =  1.1

     total cpu time spent up to now is        1.6 secs

     total energy              =     -85.72162401 Ry
     Harris-Foulkes estimate   =     -85.72091369 Ry
     estimated scf accuracy    <       0.00222541 Ry

     total magnetization       =     0.70 Bohr mag/cell
     absolute magnetization    =     0.81 Bohr mag/cell

     iteration #  5     ecut=    24.00 Ry     beta=0.70
     Davidson diagonalization with overlap
     ethr =  2.23E-05,  avg # of iterations =  1.9

     total cpu time spent up to now is        1.9 secs

     total energy              =     -85.72198214 Ry
     Harris-Foulkes estimate   =     -85.72183386 Ry
     estimated scf accuracy    <       0.00019399 Ry

     total magnetization       =     0.71 Bohr mag/cell
     absolute magnetization    =     0.78 Bohr mag/cell

     iteration #  6     ecut=    24.00 Ry     beta=0.70
     Davidson diagonalization with overlap
     ethr =  1.94E-06,  avg # of iterations =  1.9

     total cpu time spent up to now is        2.1 secs

     total energy              =     -85.72203198 Ry
     Harris-Foulkes estimate   =     -85.72204676 Ry
     estimated scf accuracy    <       0.00004951 Ry

     total magnetization       =     0.71 Bohr mag/cell
     absolute magnetization    =     0.76 Bohr mag/cell

     iteration #  7     ecut=    24.00 Ry     beta=0.70
     Davidson diagonalization with overlap
     ethr =  4.95E-07,  avg # of iterations =  1.4

     total cpu time spent up to now is        2.4 secs

     total energy              =     -85.72204225 Ry
     Harris-Foulkes estimate   =     -85.72204257 Ry
     estimated scf accuracy    <       0.00000081 Ry

     total magnetization       =     0.71 Bohr mag/cell
     absolute magnetization    =     0.76 Bohr mag/cell

     iteration #  8     ecut=    24.00 Ry     beta=0.70
     Davidson diagonalization with overlap
     ethr =  8.13E-09,  avg # of iterations =  2.1

     total cpu time spent up to now is        2.7 secs

     total energy              =     -85.72204265 Ry
     Harris-Foulkes estimate   =     -85.72204257 Ry
     estimated scf accuracy    <       0.00000014 Ry

     total magnetization       =     0.71 Bohr mag/cell
     absolute magnetization    =     0.76 Bohr mag/cell

     iteration #  9     ecut=    24.00 Ry     beta=0.70
     Davidson diagonalization with overlap
     ethr =  1.44E-09,  avg # of iterations =  1.0

     total cpu time spent up to now is        2.9 secs

     total energy              =     -85.72204265 Ry
     Harris-Foulkes estimate   =     -85.72204265 Ry
     estimated scf accuracy    <          6.6E-09 Ry

     total magnetization       =     0.71 Bohr mag/cell
     absolute magnetization    =     0.76 Bohr mag/cell

     iteration # 10     ecut=    24.00 Ry     beta=0.70
     Davidson diagonalization with overlap
     ethr =  6.62E-11,  avg # of iterations =  1.2

     total cpu time spent up to now is        3.2 secs

     total energy              =     -85.72204265 Ry
     Harris-Foulkes estimate   =     -85.72204265 Ry
     estimated scf accuracy    <          3.4E-10 Ry

     total magnetization       =     0.71 Bohr mag/cell
     absolute magnetization    =     0.76 Bohr mag/cell

     iteration # 11     ecut=    24.00 Ry     beta=0.70
     Davidson diagonalization with overlap
     ethr =  3.38E-12,  avg # of iterations =  1.5
 
     Magnetic moment per site:
     atom:    1    charge:    8.6856    magn:    0.7336    constr:    0.0000

     total cpu time spent up to now is        3.4 secs

     End of self-consistent calculation

 ------ SPIN UP ------------


          k = 0.0000 0.0000 0.0000 (   137 PWs)   bands (ev):

     5.7319  12.5900  12.5900  12.5900  13.8829  13.8829  39.8633  44.2589
    44.2589

          k =-0.1250 0.1250-0.1250 (   138 PWs)   bands (ev):

     6.3733  12.4298  12.7247  12.7247  13.8351  13.8351  37.2279  41.0654
    43.4105

          k =-0.2500 0.2500-0.2500 (   138 PWs)   bands (ev):

     8.0814  12.2429  12.8373  12.8373  13.9657  13.9657  30.5982  40.0632
    42.3281

          k =-0.3750 0.3750-0.3750 (   144 PWs)   bands (ev):

     9.6541  12.6844  12.6844  13.2146  14.4133  14.4133  24.6709  38.8440
    41.6243

          k = 0.5000-0.5000 0.5000 (   138 PWs)   bands (ev):

     9.9626  12.5893  12.5893  14.6474  14.6474  14.9529  21.4731  38.3185
    41.3704

          k = 0.0000 0.2500 0.0000 (   137 PWs)   bands (ev):

     6.5839  12.2765  12.8434  12.8434  13.6004  13.9970  38.7902  40.4127
    40.4127

          k =-0.1250 0.3750-0.1250 (   140 PWs)   bands (ev):

     7.9431  11.9739  12.9222  13.0646  13.6618  14.1561  33.2083  38.4323
    38.7902

          k =-0.2500 0.5000-0.2500 (   142 PWs)   bands (ev):

     9.7009  12.0885  12.5940  13.0061  14.5091  14.6888  26.8689  37.3430
    37.6168

          k = 0.6250-0.3750 0.6250 (   134 PWs)   bands (ev):

    10.2979  12.3123  12.8585  13.0929  14.6633  16.6278  22.1016  35.6758
    38.1871

          k = 0.5000-0.2500 0.5000 (   134 PWs)   bands (ev):

    10.2438  12.4065  12.8601  12.9120  14.3380  16.1029  23.3885  34.6246
    39.8235

          k = 0.3750-0.1250 0.3750 (   140 PWs)   bands (ev):

     9.2032  12.0537  12.6913  13.0334  13.7361  14.7784  28.9012  34.6198
    41.7693

          k = 0.2500 0.0000 0.2500 (   141 PWs)   bands (ev):

     7.3847  12.1738  12.8546  12.9461  13.5715  14.1075  35.1326  35.9848
    43.7366

          k = 0.0000 0.5000 0.0000 (   133 PWs)   bands (ev):

     8.7628  11.5556  13.2209  13.5376  13.5376  14.2771  35.6664  35.6664
    36.4508

          k =-0.1250 0.6250-0.1250 (   137 PWs)   bands (ev):

    10.0114  11.2973  12.9328  13.7050  14.5601  14.8820  29.9509  33.4442
    34.2653

          k = 0.7500-0.2500 0.7500 (   132 PWs)   bands (ev):

    10.7626  11.4586  12.6628  13.5613  14.7030  17.7342  24.3228  30.7478
    34.4951

          k = 0.6250-0.1250 0.6250 (   129 PWs)   bands (ev):

    11.0696  11.7333  12.3984  13.4350  14.3501  19.0726  22.8004  29.0380
    36.4023

          k = 0.5000 0.0000 0.5000 (   138 PWs)   bands (ev):

    10.7145  11.8843  12.2094  13.3904  13.7688  16.3848  27.5454  28.9927
    39.6676

          k = 0.0000 0.7500 0.0000 (   129 PWs)   bands (ev):

    10.1110  10.8794  14.3913  14.3913  14.5641  15.0291  29.5540  32.1933
    32.1933

          k = 0.8750-0.1250 0.8750 (   131 PWs)   bands (ev):

    10.3571  10.8288  13.8812  14.3585  14.7495  17.9832  26.7250  28.0786
    31.8592

          k = 0.7500 0.0000 0.7500 (   134 PWs)   bands (ev):

    10.8534  11.1662  12.9691  14.0619  14.5237  21.3975  23.0499  25.9470
    33.3922

          k = 0.0000-1.0000 0.0000 (   126 PWs)   bands (ev):

    10.1051  10.6115  14.6850  14.8124  14.8124  17.8554  25.2129  30.8748
    30.8748

          k =-0.2500 0.5000 0.0000 (   137 PWs)   bands (ev):

     9.3988  11.6769  12.6229  13.5493  13.6986  14.8220  31.4979  32.2158
    37.9359

          k = 0.6250-0.3750 0.8750 (   136 PWs)   bands (ev):

    10.6898  11.8110  12.2370  13.4322  14.2953  16.5325  25.7606  31.6172
    34.9251

          k = 0.5000-0.2500 0.7500 (   132 PWs)   bands (ev):

    10.9083  11.8125  12.5154  13.2891  14.5504  18.8942  21.8774  32.1807
    33.1977

          k = 0.7500-0.2500 1.0000 (   129 PWs)   bands (ev):

    10.6068  11.1448  12.8665  14.2637  14.3864  16.9223  28.7950  29.4334
    30.5279

          k = 0.6250-0.1250 0.8750 (   132 PWs)   bands (ev):

    11.0368  11.3600  12.4737  13.8950  14.6438  20.4099  23.8767  27.7762
    30.1405

          k = 0.5000 0.0000 0.7500 (   134 PWs)   bands (ev):

    11.4122  11.6166  11.9190  13.7359  14.3924  19.5014  24.6756  27.1329
    32.0402

          k =-0.2500-1.0000 0.0000 (   130 PWs)   bands (ev):

    10.5273  10.9275  13.4617  14.3148  14.8130  19.9022  25.4077  27.7225
    28.8784

          k =-0.5000-1.0000 0.0000 (   144 PWs)   bands (ev):

    11.0816  11.8891  11.8891  13.8064  14.8136  23.5230  23.5230  25.8869
    27.1549

 ------ SPIN DOWN ----------


          k = 0.0000 0.0000 0.0000 (   137 PWs)   bands (ev):

     5.7953  13.3663  13.3663  13.3663  14.6124  14.6124  39.8594  44.3147
    44.3147

          k =-0.1250 0.1250-0.1250 (   138 PWs)   bands (ev):

     6.4372  13.1856  13.5044  13.5044  14.5625  14.5625  37.3642  41.0815
    43.5284

          k =-0.2500 0.2500-0.2500 (   138 PWs)   bands (ev):

     8.1735  12.9153  13.5910  13.5910  14.7264  14.7264  30.8259  40.0716
    42.4898

          k =-0.3750 0.3750-0.3750 (   144 PWs)   bands (ev):

     9.9779  13.4019  13.4019  13.5540  15.2235  15.2235  25.0046  38.8360
    41.7776

          k = 0.5000-0.5000 0.5000 (   138 PWs)   bands (ev):

    10.4467  13.2956  13.2956  14.9840  15.4766  15.4766  21.9548  38.3025
    41.5015

          k = 0.0000 0.2500 0.0000 (   137 PWs)   bands (ev):

     6.6478  13.0298  13.6277  13.6277  14.3099  14.7307  38.8817  40.5586
    40.5586

          k =-0.1250 0.3750-0.1250 (   140 PWs)   bands (ev):

     8.0207  12.6904  13.6592  13.8413  14.3993  14.9109  33.4039  38.5904
    38.8735

          k =-0.2500 0.5000-0.2500 (   142 PWs)   bands (ev):

     9.9276  12.6639  13.2946  13.7450  15.3148  15.3930  27.1432  37.4294
    37.7711

          k = 0.6250-0.3750 0.6250 (   134 PWs)   bands (ev):

    10.7874  12.9242  13.5742  13.6353  15.4941  17.0654  22.5205  35.7951
    38.3339

          k = 0.5000-0.2500 0.5000 (   134 PWs)   bands (ev):

    10.6774  13.0430  13.4122  13.5727  15.1562  16.6810  23.7513  34.7725
    39.8884

          k = 0.3750-0.1250 0.3750 (   140 PWs)   bands (ev):

     9.3424  12.7057  13.3937  13.7715  14.5091  15.5425  29.1496  34.7823
    41.8211

          k = 0.2500 0.0000 0.2500 (   141 PWs)   bands (ev):

     7.4541  12.9061  13.6088  13.7397  14.2806  14.8594  35.3276  36.1163
    43.7686

          k = 0.0000 0.5000 0.0000 (   133 PWs)   bands (ev):

     8.8661  12.2600  13.8364  14.3491  14.3491  15.0216  35.8148  35.8148
    36.5680

          k =-0.1250 0.6250-0.1250 (   137 PWs)   bands (ev):

    10.2472  11.9669  13.5520  14.4863  15.3561  15.5491  30.1544  33.6245
    34.4005

          k = 0.7500-0.2500 0.7500 (   132 PWs)   bands (ev):

    11.2533  12.0142  13.2990  14.3035  15.5394  18.1832  24.6050  30.9534
    34.6277

          k = 0.6250-0.1250 0.6250 (   129 PWs)   bands (ev):

    11.6240  12.2425  13.0381  14.1505  15.1896  19.4638  23.1473  29.2547
    36.5496

          k = 0.5000 0.0000 0.5000 (   138 PWs)   bands (ev):

    10.9916  12.5489  12.8319  14.0822  14.6032  17.0253  27.8246  29.1919
    39.8298

          k = 0.0000 0.7500 0.0000 (   129 PWs)   bands (ev):

    10.4810  11.5423  15.2488  15.2488  15.2917  15.3198  29.7934  32.3016
    32.3016

          k = 0.8750-0.1250 0.8750 (   131 PWs)   bands (ev):

    10.8134  11.4741  14.5714  15.1266  15.6043  18.2933  27.0164  28.2498
    31.9590

          k = 0.7500 0.0000 0.7500 (   134 PWs)   bands (ev):

    11.3850  11.7519  13.6237  14.7834  15.3961  21.6829  23.3197  26.2376
    33.5142

          k = 0.0000-1.0000 0.0000 (   126 PWs)   bands (ev):

    10.5657  11.2590  15.4456  15.6990  15.6990  17.9084  25.5709  30.9544
    30.9544

          k =-0.2500 0.5000 0.0000 (   137 PWs)   bands (ev):

     9.5264  12.3691  13.3095  14.3660  14.3915  15.5805  31.7338  32.3752
    38.0743

          k = 0.6250-0.3750 0.8750 (   136 PWs)   bands (ev):

    11.0551  12.3843  12.9056  14.1544  15.1050  17.1192  26.0404  31.8007
    35.0889

          k = 0.5000-0.2500 0.7500 (   132 PWs)   bands (ev):

    11.4553  12.3420  13.1434  14.0056  15.3890  19.2453  22.2810  32.3605
    33.3708

          k = 0.7500-0.2500 1.0000 (   129 PWs)   bands (ev):

    11.0014  11.8024  13.4893  14.9784  15.2447  17.4201  29.0150  29.6243
    30.7141

          k = 0.6250-0.1250 0.8750 (   132 PWs)   bands (ev):

    11.5416  11.9723  13.1151  14.6105  15.5126  20.7469  24.1491  28.0224
    30.3159

          k = 0.5000 0.0000 0.7500 (   134 PWs)   bands (ev):

    11.8724  12.2341  12.5669  14.4366  15.2543  19.8987  24.9552  27.3664
    32.2216

          k =-0.2500-1.0000 0.0000 (   130 PWs)   bands (ev):

    11.0053  11.5719  14.1459  15.0491  15.6997  20.1500  25.7405  27.9196
    29.0168

          k =-0.5000-1.0000 0.0000 (   144 PWs)   bands (ev):

    11.5832  12.5325  12.5325  14.5060  15.7003  23.7844  23.7844  26.1718
    27.3608

     the Fermi energy is    15.2788 ev

!    total energy              =     -85.72204265 Ry
     Harris-Foulkes estimate   =     -85.72204265 Ry
     estimated scf accuracy    <          1.8E-12 Ry

     The total energy is the sum of the following terms:

     one-electron contribution =       0.31068481 Ry
     hartree contribution      =      14.32633747 Ry
     xc contribution           =     -29.60474757 Ry
     ewald contribution        =     -70.75404435 Ry
     smearing contrib. (-TS)   =      -0.00027301 Ry

     total magnetization       =     0.71 Bohr mag/cell
     absolute magnetization    =     0.76 Bohr mag/cell

     convergence has been achieved in  11 iterations

     Writing output data file ni.save
 
     init_run     :      0.08s CPU      0.42s WALL (       1 calls)
     electrons    :      0.85s CPU      2.93s WALL (       1 calls)

     Called by init_run:
     wfcinit      :      0.00s CPU      0.06s WALL (       1 calls)
     potinit      :      0.00s CPU      0.01s WALL (       1 calls)

     Called by electrons:
     c_bands      :      0.54s CPU      1.87s WALL (      11 calls)
     sum_band     :      0.25s CPU      0.77s WALL (      11 calls)
     v_of_rho     :      0.00s CPU      0.04s WALL (      12 calls)
     newd         :      0.07s CPU      0.23s WALL (      12 calls)
     mix_rho      :      0.00s CPU      0.01s WALL (      11 calls)

     Called by c_bands:
     init_us_2    :      0.01s CPU      0.06s WALL (    1334 calls)
     cegterg      :      0.49s CPU      1.66s WALL (     638 calls)

     Called by sum_band:
     sum_band:bec :      0.00s CPU      0.01s WALL (     638 calls)
     addusdens    :      0.17s CPU      0.38s WALL (      11 calls)

     Called by *egterg:
     h_psi        :      0.36s CPU      1.26s WALL (    1820 calls)
     s_psi        :      0.01s CPU      0.04s WALL (    1820 calls)
     g_psi        :      0.00s CPU      0.01s WALL (    1124 calls)
     cdiaghg      :      0.08s CPU      0.27s WALL (    1762 calls)

     Called by h_psi:
     add_vuspsi   :      0.01s CPU      0.04s WALL (    1820 calls)

     General routines
     calbec       :      0.01s CPU      0.05s WALL (    2458 calls)
     fft          :      0.01s CPU      0.04s WALL (     194 calls)
     ffts         :      0.00s CPU      0.00s WALL (      46 calls)
     fftw         :      0.30s CPU      1.13s WALL (   32194 calls)
     interpolate  :      0.00s CPU      0.01s WALL (      46 calls)
     davcio       :      0.00s CPU      0.01s WALL (      58 calls)
 
     Parallel routines
     fft_scatter  :      0.03s CPU      0.11s WALL (   32434 calls)
 
     PWSCF        :     0.94s CPU         3.77s WALL

 
   This run was terminated on:  18: 8:57   7Feb2018            

=------------------------------------------------------------------------------=
   JOB DONE.
=------------------------------------------------------------------------------=
