mpirun: INFO: switching to OpenMPI runtime version 1.10.2

     Program PWSCF v.5.4.0 starts on 10May2017 at 15: 1:35 

     This program is part of the open-source Quantum ESPRESSO suite
     for quantum simulation of materials; please cite
         "P. Giannozzi et al., J. Phys.:Condens. Matter 21 395502 (2009);
          URL http://www.quantum-espresso.org", 
     in publications or presentations arising from this work. More details at
     http://www.quantum-espresso.org/quote

     Parallel version (MPI & OpenMP), running on      28 processor cores
     Number of MPI processes:                28
     Threads/MPI process:                     1
     R & G space division:  proc/nbgrp/npool/nimage =      28
     Waiting for input...
     Reading input from standard input

     Current dimensions of program PWSCF are:
     Max number of different atomic species (ntypx) = 10
     Max number of k-points (npk) =  40000
     Max angular momentum in pseudopotentials (lmaxx) =  3
     WARNING: atomic wfc #  2 for atom type 3 has zero norm
     WARNING: atomic wfc #  4 for atom type 3 has zero norm
     WARNING: atomic wfc #  5 for atom type 3 has zero norm

     -------------------------------------
     Parameters for Dispersion Correction:
     -------------------------------------
       atom      VdW radius       C_6     

        Cu         2.952        374.666
        C          2.744         60.710
        O          2.536         24.284
        H          1.892          4.857

     Subspace diagonalization in iterative solution of the eigenvalue problem:
     one sub-group per band group will be used
     scalapack distributed-memory algorithm (size of sub-group:  3*  3 procs)

 
     Parallelization info
     --------------------
     sticks:   dense  smooth     PW     G-vecs:    dense   smooth      PW
     Min         408     408    108                73226    73226    9928
     Max         410     410    109                73231    73231    9931
     Sum       11433   11433   3039              2050409  2050409  278033
 


     bravais-lattice index     =            0
     lattice parameter (alat)  =      13.9425  a.u.
     unit-cell volume          =   21209.0878 (a.u.)^3
     number of atoms/cell      =          152
     number of atomic types    =            4
     number of electrons       =      1309.00
     number of Kohn-Sham states=          786
     kinetic-energy cutoff     =      80.0000  Ry
     charge density cutoff     =     320.0000  Ry
     convergence threshold     =      1.0E-08
     mixing beta               =       0.7000
     number of iterations used =            8  local-TF  mixing
     Exchange-correlation      =  SLA  PW   PBE  PBE ( 1  4  3  4 0 0)
     nstep                     =           50


     celldm(1)=  13.942539  celldm(2)=   0.000000  celldm(3)=   0.000000
     celldm(4)=   0.000000  celldm(5)=   0.000000  celldm(6)=   0.000000

     crystal axes: (cart. coord. in units of alat)
               a(1) = (   1.000000   0.000000   0.000000 )  
               a(2) = (   0.000000   2.309401   0.000000 )  
               a(3) = (   0.000000   0.000000   3.388418 )  

     reciprocal axes: (cart. coord. in units 2 pi/alat)
               b(1) = (  1.000000  0.000000  0.000000 )  
               b(2) = (  0.000000  0.433013  0.000000 )  
               b(3) = (  0.000000  0.000000  0.295123 )  


     PseudoPot. # 1 for Cu read from file:
     /home/549/hxw549/Short/pseudopotentials/Cu.pbe-n-van_ak.UPF
     MD5 check sum: 601f7c30f7467666bec936e0661ce3e1
     Pseudo is Ultrasoft + core correction, Zval = 11.0
     Generated by new atomic code, or converted to UPF format
     Using radial grid of  867 points,  6 beta functions with: 
                l(1) =   0
                l(2) =   0
                l(3) =   1
                l(4) =   1
                l(5) =   2
                l(6) =   2
     Q(r) pseudized with  8 coefficients,  rinner =    1.400   1.400   1.400
                                                       1.400   1.400

     PseudoPot. # 2 for C  read from file:
     /home/549/hxw549/Short/pseudopotentials/C.pbe-mt_gipaw.UPF
     MD5 check sum: 5ac2f21f2c440b14befe521540822c15
     Pseudo is Norm-conserving, Zval =  4.0
     Generated by new atomic code, or converted to UPF format
     Using radial grid of 1073 points,  1 beta functions with: 
                l(1) =   0

     PseudoPot. # 3 for O  read from file:
     /home/549/hxw549/Short/pseudopotentials/O.pbe-van_gipaw.UPF
     MD5 check sum: 5ce2a047509d4f331db576c963e74b29
     Pseudo is Ultrasoft, Zval =  6.0
     Generated by new atomic code, or converted to UPF format
     Using radial grid of 1095 points,  4 beta functions with: 
                l(1) =   0
                l(2) =   0
                l(3) =   1
                l(4) =   1
     Q(r) pseudized with 0 coefficients 


     PseudoPot. # 4 for H  read from file:
     /home/549/hxw549/Short/pseudopotentials/H.pbe-van_ak.UPF
     MD5 check sum: 077eb6d537518a38cb46c6de387227b7
     Pseudo is Ultrasoft, Zval =  1.0
     Generated by new atomic code, or converted to UPF format
     Using radial grid of  615 points,  1 beta functions with: 
                l(1) =   0
     Q(r) pseudized with  8 coefficients,  rinner =    0.800

     atomic species   valence    mass     pseudopotential
        Cu            11.00    63.54600     Cu( 1.00)
        C              4.00    12.01070     C ( 1.00)
        O              6.00    15.99940     O ( 1.00)
        H              1.00     1.00783     H ( 1.00)

     No symmetry found



   Cartesian axes

     site n.     atom                  positions (alat units)
         1           Cu  tau(   1) = (   0.0000055   0.0001973   0.9983229  )
         2           Cu  tau(   2) = (   0.2500180   0.2313082   0.9984177  )
         3           Cu  tau(   3) = (   0.5000175   0.0002532   0.9983610  )
         4           Cu  tau(   4) = (   0.7500218   0.2313161   0.9984096  )
         5           Cu  tau(   5) = (   0.0000319   0.4621134   0.9983210  )
         6           Cu  tau(   6) = (   0.2500197   0.6928319   0.9979420  )
         7           Cu  tau(   7) = (   0.5000271   0.4621123   0.9982190  )
         8           Cu  tau(   8) = (   0.7500538   0.6928345   0.9979299  )
         9           Cu  tau(   9) = (   0.0000435   0.9236432   0.9977520  )
        10           Cu  tau(  10) = (   0.2500495   1.1544709   0.9978961  )
        11           Cu  tau(  11) = (   0.5000354   0.9236231   0.9976994  )
        12           Cu  tau(  12) = (   0.7500238   1.1544602   0.9978863  )
        13           Cu  tau(  13) = (   0.0000214   1.3852090   0.9982504  )
        14           Cu  tau(  14) = (   0.2500314   1.6159550   0.9985312  )
        15           Cu  tau(  15) = (   0.5000370   1.3852184   0.9983090  )
        16           Cu  tau(  16) = (   0.7500079   1.6159691   0.9985266  )
        17           Cu  tau(  17) = (   0.0000215   1.8469845   0.9984429  )
        18           Cu  tau(  18) = (   0.2500193   2.0782838   0.9983175  )
        19           Cu  tau(  19) = (   0.5000015   1.8469396   0.9984818  )
        20           Cu  tau(  20) = (   0.7499972   2.0782697   0.9983181  )
        21           Cu  tau(  21) = (   0.0000545   0.2313391   1.2467521  )
        22           Cu  tau(  22) = (   0.2500625   0.0001495   1.2464217  )
        23           Cu  tau(  23) = (   0.5000583   0.2314837   1.2468210  )
        24           Cu  tau(  24) = (   0.7500292   0.0001540   1.2464226  )
        25           Cu  tau(  25) = (   0.0000793   0.6932811   1.2467216  )
        26           Cu  tau(  26) = (   0.2500948   0.4625039   1.2469218  )
        27           Cu  tau(  27) = (   0.5000788   0.6932310   1.2466592  )
        28           Cu  tau(  28) = (   0.7500432   0.4625087   1.2469119  )
        29           Cu  tau(  29) = (   0.0000770   1.1541432   1.2465742  )
        30           Cu  tau(  30) = (   0.2501221   0.9237044   1.2464676  )
        31           Cu  tau(  31) = (   0.5000851   1.1540542   1.2466610  )
        32           Cu  tau(  32) = (   0.7500443   0.9237014   1.2464627  )
        33           Cu  tau(  33) = (   0.0000601   1.6157213   1.2469099  )
        34           Cu  tau(  34) = (   0.2501130   1.3847191   1.2469820  )
        35           Cu  tau(  35) = (   0.5000609   1.6157088   1.2471004  )
        36           Cu  tau(  36) = (   0.7500327   1.3847130   1.2469875  )
        37           Cu  tau(  37) = (   0.0000411   2.0782724   1.2463022  )
        38           Cu  tau(  38) = (   0.2500603   1.8469857   1.2466074  )
        39           Cu  tau(  39) = (   0.5000448   2.0782818   1.2462858  )
        40           Cu  tau(  40) = (   0.7500371   1.8469839   1.2466026  )
        41           Cu  tau(  41) = (   0.0000984  -0.0002068   1.4956743  )
        42           Cu  tau(  42) = (   0.2502188   0.2312207   1.4959310  )
        43           Cu  tau(  43) = (   0.5001062  -0.0001334   1.4956580  )
        44           Cu  tau(  44) = (   0.7500067   0.2312410   1.4959375  )
        45           Cu  tau(  45) = (   0.0001255   0.4627081   1.4962216  )
        46           Cu  tau(  46) = (   0.2502379   0.6938230   1.4969069  )
        47           Cu  tau(  47) = (   0.5001312   0.4629948   1.4967272  )
        48           Cu  tau(  48) = (   0.7500474   0.6938193   1.4968980  )
        49           Cu  tau(  49) = (   0.0001490   0.9240029   1.4969351  )
        50           Cu  tau(  50) = (   0.2501798   1.1535955   1.4971186  )
        51           Cu  tau(  51) = (   0.5001503   0.9237084   1.4972977  )
        52           Cu  tau(  52) = (   0.7501205   1.1535701   1.4971451  )
        53           Cu  tau(  53) = (   0.0001427   1.3842310   1.4967441  )
        54           Cu  tau(  54) = (   0.2501437   1.6156244   1.4962772  )
        55           Cu  tau(  55) = (   0.5001441   1.3839669   1.4970282  )
        56           Cu  tau(  56) = (   0.7501128   1.6156344   1.4962666  )
        57           Cu  tau(  57) = (   0.0001133   1.8471126   1.4957738  )
        58           Cu  tau(  58) = (   0.2500831   2.0782999   1.4956489  )
        59           Cu  tau(  59) = (   0.5001105   1.8473280   1.4958840  )
        60           Cu  tau(  60) = (   0.7501202   2.0782927   1.4956478  )
        61           Cu  tau(  61) = (   0.0001600   0.2307212   1.7440076  )
        62           Cu  tau(  62) = (   0.2502904  -0.0004274   1.7449168  )
        63           Cu  tau(  63) = (   0.5001665   0.2306058   1.7448980  )
        64           Cu  tau(  64) = (   0.7500248  -0.0004179   1.7449035  )
        65           Cu  tau(  65) = (   0.0001856   0.6938362   1.7461672  )
        66           Cu  tau(  66) = (   0.2507695   0.4625161   1.7450141  )
        67           Cu  tau(  67) = (   0.5002052   0.6945077   1.7483107  )
        68           Cu  tau(  68) = (   0.7495869   0.4625562   1.7450642  )
        69           Cu  tau(  69) = (   0.0002259   1.1534227   1.7483920  )
        70           Cu  tau(  70) = (   0.2503561   0.9238983   1.7487437  )
        71           Cu  tau(  71) = (   0.5002009   1.1526333   1.7487538  )
        72           Cu  tau(  72) = (   0.7500558   0.9238254   1.7487800  )
        73           Cu  tau(  73) = (   0.0002029   1.6159886   1.7450781  )
        74           Cu  tau(  74) = (   0.2500688   1.3839610   1.7462046  )
        75           Cu  tau(  75) = (   0.5001918   1.6159242   1.7445460  )
        76           Cu  tau(  76) = (   0.7503557   1.3839767   1.7461476  )
        77           Cu  tau(  77) = (   0.0001642   2.0781291   1.7452523  )
        78           Cu  tau(  78) = (   0.2500004   1.8475039   1.7448310  )
        79           Cu  tau(  79) = (   0.5001634   2.0785129   1.7453477  )
        80           Cu  tau(  80) = (   0.7503575   1.8474958   1.7448367  )
        81           Cu  tau(  81) = (   0.0002054   0.0001863   1.9905826  )
        82           Cu  tau(  82) = (   0.2502389   0.2305784   1.9899700  )
        83           Cu  tau(  83) = (   0.5001690  -0.0001588   1.9924395  )
        84           Cu  tau(  84) = (   0.7501355   0.2305988   1.9899459  )
        85           Cu  tau(  85) = (   0.0002424   0.4614288   1.9881215  )
        86           Cu  tau(  86) = (   0.2521402   0.6918106   1.9932132  )
        87           Cu  tau(  87) = (   0.5001477   0.4600748   1.9926734  )
        88           Cu  tau(  88) = (   0.7482674   0.6917609   1.9934758  )
        89           Cu  tau(  89) = (   0.0002042   0.9216302   1.9966301  )
        90           Cu  tau(  90) = (   0.2504637   1.1543767   1.9965356  )
        91           Cu  tau(  91) = (   0.5002531   0.9242271   2.0029660  )
        92           Cu  tau(  92) = (   0.7500322   1.1544276   1.9962920  )
        93           Cu  tau(  93) = (   0.0002875   1.3858822   1.9930715  )
        94           Cu  tau(  94) = (   0.2498210   1.6165220   1.9899899  )
        95           Cu  tau(  95) = (   0.5002136   1.3859863   1.9916430  )
        96           Cu  tau(  96) = (   0.7506522   1.6164236   1.9899539  )
        97           Cu  tau(  97) = (   0.0001831   1.8474362   1.9920466  )
        98           Cu  tau(  98) = (   0.2502222   2.0782331   1.9915515  )
        99           Cu  tau(  99) = (   0.5002545   1.8467786   1.9902330  )
       100           Cu  tau( 100) = (   0.7501787   2.0782925   1.9915258  )
       101           C   tau( 101) = (   0.0000064   0.0979239   2.3869522  )
       102           C   tau( 102) = (   0.0000112   0.2904884   2.3816567  )
       103           C   tau( 103) = (   0.1665802   0.0013830   2.3882279  )
       104           C   tau( 104) = (   0.1666156   0.3864838   2.3790509  )
       105           C   tau( 105) = (   0.3331992   0.0977983   2.3852134  )
       106           C   tau( 106) = (   0.3332217   0.2903889   2.3811220  )
       107           C   tau( 107) = (   0.5000011   0.0010501   2.3856350  )
       108           C   tau( 108) = (   0.5001270   0.3875402   2.3810436  )
       109           C   tau( 109) = (   0.6668462   0.0977708   2.3850469  )
       110           C   tau( 110) = (   0.6669741   0.2903961   2.3809109  )
       111           C   tau( 111) = (   0.8334274   0.0013751   2.3880774  )
       112           C   tau( 112) = (   0.8334738   0.3867267   2.3788744  )
       113           C   tau( 113) = (   0.0000298   0.6750104   2.3746820  )
       114           C   tau( 114) = (  -0.0005811   0.8671027   2.3762485  )
       115           C   tau( 115) = (   0.1665516   0.5789795   2.3781055  )
       116           C   tau( 116) = (   0.1670236   0.9625066   2.3944296  )
       117           C   tau( 117) = (   0.3326821   0.6756315   2.3974193  )
       118           C   tau( 118) = (   0.3300095   0.8655769   2.4162738  )
       119           C   tau( 119) = (   0.5002073   0.5790593   2.3944495  )
       120           C   tau( 120) = (   0.4997361   0.9626363   2.4774242  )
       121           C   tau( 121) = (   0.6672568   0.6762598   2.3974266  )
       122           C   tau( 122) = (   0.6689434   0.8659670   2.4182084  )
       123           C   tau( 123) = (   0.8334063   0.5794044   2.3780645  )
       124           C   tau( 124) = (   0.8318467   0.9623917   2.3955621  )
       125           C   tau( 125) = (   0.0001864   1.2503186   2.3801320  )
       126           C   tau( 126) = (   0.0001289   1.4431833   2.3750440  )
       127           C   tau( 127) = (   0.1667494   1.1554487   2.3920213  )
       128           C   tau( 128) = (   0.1668552   1.5396042   2.3772127  )
       129           C   tau( 129) = (   0.3343740   1.2516651   2.4002453  )
       130           C   tau( 130) = (   0.3338015   1.4439053   2.3839953  )
       131           C   tau( 131) = (   0.4998369   1.1587281   2.4209226  )
       132           C   tau( 132) = (   0.5001095   1.5400893   2.3841298  )
       133           C   tau( 133) = (   0.6656248   1.2513363   2.4006160  )
       134           C   tau( 134) = (   0.6662752   1.4437109   2.3838609  )
       135           C   tau( 135) = (   0.8333013   1.1552388   2.3926113  )
       136           C   tau( 136) = (   0.8332866   1.5394756   2.3770113  )
       137           C   tau( 137) = (   0.0000287   1.8284947   2.3824456  )
       138           C   tau( 138) = (  -0.0000047   2.0212831   2.3878599  )
       139           C   tau( 139) = (   0.1669224   1.7321270   2.3814168  )
       140           C   tau( 140) = (   0.1665045   2.1179353   2.3883973  )
       141           C   tau( 141) = (   0.3332837   1.8286087   2.3867359  )
       142           C   tau( 142) = (   0.3332857   2.0212988   2.3883704  )
       143           C   tau( 143) = (   0.5000140   1.7326262   2.3856333  )
       144           C   tau( 144) = (   0.4999843   2.1176978   2.3888923  )
       145           C   tau( 145) = (   0.6667536   1.8286044   2.3865724  )
       146           C   tau( 146) = (   0.6666625   2.0213057   2.3882283  )
       147           C   tau( 147) = (   0.8331424   1.7320990   2.3812349  )
       148           C   tau( 148) = (   0.8334635   2.1179176   2.3882464  )
       149           C   tau( 149) = (   0.4864987   0.9645678   2.7019699  )
       150           O   tau( 150) = (   0.3886168   1.0695663   2.7835332  )
       151           O   tau( 151) = (   0.5929530   0.8331891   2.7828173  )
       152           H   tau( 152) = (   0.5704827   0.8471876   2.9140276  )

     number of k points=     6  gaussian smearing, width (Ry)=  0.1000
                       cart. coord. in units 2pi/alat
        k(    1) = (   0.0000000   0.0000000   0.0000000), wk =   0.2500000
        k(    2) = (   0.0000000  -0.2165064   0.0000000), wk =   0.2500000
        k(    3) = (   0.2500000   0.0000000   0.0000000), wk =   0.5000000
        k(    4) = (   0.2500000  -0.2165064   0.0000000), wk =   0.5000000
        k(    5) = (  -0.5000000   0.0000000   0.0000000), wk =   0.2500000
        k(    6) = (  -0.5000000  -0.2165064   0.0000000), wk =   0.2500000

     Dense  grid:  2050409 G-vectors     FFT dimensions: (  80, 192, 270)

     Largest allocated arrays     est. size (Mb)     dimensions
        Kohn-Sham Wavefunctions       109.99 Mb     (    9171,  786)
        NL pseudopotentials           261.12 Mb     (    9171, 1866)
        Each V/rho on FFT grid          2.34 Mb     (  153600)
        Each G-vector array             0.56 Mb     (   73230)
        G-vector shells                 0.27 Mb     (   35784)
     Largest temporary arrays     est. size (Mb)     dimensions
        Auxiliary wavefunctions       439.97 Mb     (    9171, 3144)
        Each subspace H/S matrix       16.76 Mb     (    1048, 1048)
        Each <psi_i|beta_j> matrix     22.38 Mb     (    1866,  786)
        Arrays for rho mixing          18.75 Mb     (  153600,    8)

     Initial potential from superposition of free atoms
     Check: negative starting charge=   -0.001544

     starting charge 1283.31750, renormalised to 1309.00000

     negative rho (up, down):  1.575E-03 0.000E+00
     Starting wfc are 1301 randomized atomic wfcs

     total cpu time spent up to now is      208.7 secs

     Self-consistent Calculation

     iteration #  1     ecut=    80.00 Ry     beta=0.70
     Davidson diagonalization with overlap
     c_bands:  2 eigenvalues not converged
     c_bands:  5 eigenvalues not converged
     ethr =  1.00E-04,  avg # of iterations = 20.7

     negative rho (up, down):  2.444E+01 0.000E+00

     total cpu time spent up to now is     3879.9 secs

     total energy              =   -9878.70387470 Ry
     Harris-Foulkes estimate   =  -17270.05138978 Ry
     estimated scf accuracy    <  181804.19984300 Ry

     iteration #  2     ecut=    80.00 Ry     beta=0.70
     Davidson diagonalization with overlap
     ethr =  1.00E-02,  avg # of iterations = 11.3

     negative rho (up, down):  2.711E+01 0.000E+00

     total cpu time spent up to now is     5783.8 secs

     total energy              =  -12247.46910758 Ry
     Harris-Foulkes estimate   =  -13692.02189998 Ry
     estimated scf accuracy    <   21020.84997146 Ry

     iteration #  3     ecut=    80.00 Ry     beta=0.70
     Davidson diagonalization with overlap
     ethr =  1.00E-02,  avg # of iterations =  6.2

     negative rho (up, down):  2.891E+01 0.000E+00

     total cpu time spent up to now is     6965.3 secs

     total energy              =  -12478.82385787 Ry
     Harris-Foulkes estimate   =  -13424.04623014 Ry
     estimated scf accuracy    <    6385.16748680 Ry

     iteration #  4     ecut=    80.00 Ry     beta=0.70
     Davidson diagonalization with overlap
     ethr =  1.00E-02,  avg # of iterations =  5.0

     negative rho (up, down):  2.421E+01 0.000E+00

     total cpu time spent up to now is     8136.7 secs

     total energy              =  -12842.33592805 Ry
     Harris-Foulkes estimate   =  -13154.80450653 Ry
     estimated scf accuracy    <    4484.73409151 Ry

     iteration #  5     ecut=    80.00 Ry     beta=0.70
     Davidson diagonalization with overlap
     ethr =  1.00E-02,  avg # of iterations =  4.5

     negative rho (up, down):  1.553E+01 0.000E+00

     total cpu time spent up to now is     8767.8 secs

     total energy              =  -12889.28140763 Ry
     Harris-Foulkes estimate   =  -13048.82812088 Ry
     estimated scf accuracy    <    1037.80914349 Ry

     iteration #  6     ecut=    80.00 Ry     beta=0.70
     Davidson diagonalization with overlap
     ethr =  1.00E-02,  avg # of iterations =  2.0

     negative rho (up, down):  1.018E+01 0.000E+00

     total cpu time spent up to now is     9210.3 secs

     total energy              =  -12868.65972523 Ry
     Harris-Foulkes estimate   =  -12931.20777370 Ry
     estimated scf accuracy    <     430.14983253 Ry

     iteration #  7     ecut=    80.00 Ry     beta=0.70
     Davidson diagonalization with overlap
     ethr =  1.00E-02,  avg # of iterations =  2.0

     negative rho (up, down):  7.481E+00 0.000E+00

     total cpu time spent up to now is     9571.9 secs

     total energy              =  -12851.95863857 Ry
     Harris-Foulkes estimate   =  -12885.89759196 Ry
     estimated scf accuracy    <     785.97095313 Ry

     iteration #  8     ecut=    80.00 Ry     beta=0.70
     Davidson diagonalization with overlap
     ethr =  1.00E-02,  avg # of iterations =  1.7

     negative rho (up, down):  7.157E+00 0.000E+00

     total cpu time spent up to now is     9919.0 secs

     total energy              =  -12855.02314239 Ry
     Harris-Foulkes estimate   =  -12860.35796632 Ry
     estimated scf accuracy    <     263.95424472 Ry

     iteration #  9     ecut=    80.00 Ry     beta=0.70
     Davidson diagonalization with overlap
     ethr =  1.00E-02,  avg # of iterations =  1.0

     negative rho (up, down):  4.660E+00 0.000E+00

     total cpu time spent up to now is    10253.4 secs

     total energy              =  -12832.75629943 Ry
     Harris-Foulkes estimate   =  -12856.18900162 Ry
     estimated scf accuracy    <     209.86575535 Ry

     iteration # 10     ecut=    80.00 Ry     beta=0.70
     Davidson diagonalization with overlap
     ethr =  1.00E-02,  avg # of iterations =  1.0

     negative rho (up, down):  1.356E+00 0.000E+00

     total cpu time spent up to now is    10587.9 secs

     total energy              =  -12800.41031671 Ry
     Harris-Foulkes estimate   =  -12839.85971060 Ry
     estimated scf accuracy    <     490.52270140 Ry

     iteration # 11     ecut=    80.00 Ry     beta=0.70
     Davidson diagonalization with overlap
     ethr =  1.00E-02,  avg # of iterations =  1.8

     negative rho (up, down):  1.197E+00 0.000E+00

     total cpu time spent up to now is    10939.4 secs

     total energy              =  -12800.69729936 Ry
     Harris-Foulkes estimate   =  -12814.54667159 Ry
     estimated scf accuracy    <     293.93802490 Ry

     iteration # 12     ecut=    80.00 Ry     beta=0.70
     Davidson diagonalization with overlap
     ethr =  1.00E-02,  avg # of iterations =  1.5

     negative rho (up, down):  1.982E+00 0.000E+00

     total cpu time spent up to now is    11283.7 secs

     total energy              =  -12791.68704388 Ry
     Harris-Foulkes estimate   =  -12811.52852229 Ry
     estimated scf accuracy    <     188.59043140 Ry

     iteration # 13     ecut=    80.00 Ry     beta=0.70
     Davidson diagonalization with overlap
     ethr =  1.00E-02,  avg # of iterations =  2.0

     negative rho (up, down):  3.027E+00 0.000E+00

     total cpu time spent up to now is    11640.2 secs

     total energy              =  -12788.53262932 Ry
     Harris-Foulkes estimate   =  -12800.35629236 Ry
     estimated scf accuracy    <     169.87916278 Ry

     iteration # 14     ecut=    80.00 Ry     beta=0.70
     Davidson diagonalization with overlap
     ethr =  1.00E-02,  avg # of iterations =  1.8

     negative rho (up, down):  3.064E+00 0.000E+00

     total cpu time spent up to now is    11991.0 secs

     total energy              =  -12790.40586602 Ry
     Harris-Foulkes estimate   =  -12794.08426979 Ry
     estimated scf accuracy    <      81.50212989 Ry

     iteration # 15     ecut=    80.00 Ry     beta=0.70
     Davidson diagonalization with overlap
     ethr =  6.23E-03,  avg # of iterations =  1.0

     negative rho (up, down):  3.343E+00 0.000E+00

     total cpu time spent up to now is    12323.8 secs

     total energy              =  -12785.60692842 Ry
     Harris-Foulkes estimate   =  -12790.97805278 Ry
     estimated scf accuracy    <      69.44654470 Ry

     iteration # 16     ecut=    80.00 Ry     beta=0.70
     Davidson diagonalization with overlap
     ethr =  5.31E-03,  avg # of iterations =  1.5

     negative rho (up, down):  3.719E+00 0.000E+00

     total cpu time spent up to now is    12668.6 secs

     total energy              =  -12782.21805187 Ry
     Harris-Foulkes estimate   =  -12787.31586223 Ry
     estimated scf accuracy    <      70.00724218 Ry

     iteration # 17     ecut=    80.00 Ry     beta=0.70
     Davidson diagonalization with overlap
     ethr =  5.31E-03,  avg # of iterations =  1.2

     negative rho (up, down):  3.496E+00 0.000E+00

     total cpu time spent up to now is    13004.8 secs

     total energy              =  -12779.02706864 Ry
     Harris-Foulkes estimate   =  -12785.26154713 Ry
     estimated scf accuracy    <      61.82848028 Ry

     iteration # 18     ecut=    80.00 Ry     beta=0.70
     Davidson diagonalization with overlap
     ethr =  4.72E-03,  avg # of iterations =  3.3

     negative rho (up, down):  2.408E+00 0.000E+00

     total cpu time spent up to now is    13386.3 secs

     total energy              =  -12780.29345947 Ry
     Harris-Foulkes estimate   =  -12782.54487980 Ry
     estimated scf accuracy    <      30.44069980 Ry

     iteration # 19     ecut=    80.00 Ry     beta=0.70
     Davidson diagonalization with overlap
     ethr =  2.33E-03,  avg # of iterations =  4.2

     negative rho (up, down):  3.107E+00 0.000E+00

     total cpu time spent up to now is    13789.8 secs

     total energy              =  -12779.26210157 Ry
     Harris-Foulkes estimate   =  -12781.35262181 Ry
     estimated scf accuracy    <      17.22942299 Ry

     iteration # 20     ecut=    80.00 Ry     beta=0.70
     Davidson diagonalization with overlap
     ethr =  1.32E-03,  avg # of iterations =  6.3

     negative rho (up, down):  3.424E+00 0.000E+00

     total cpu time spent up to now is    14248.5 secs

     total energy              =  -12778.89121543 Ry
     Harris-Foulkes estimate   =  -12780.26123857 Ry
     estimated scf accuracy    <      12.57547247 Ry

     iteration # 21     ecut=    80.00 Ry     beta=0.70
     Davidson diagonalization with overlap
     ethr =  9.61E-04,  avg # of iterations =  5.3

     negative rho (up, down):  2.243E+00 0.000E+00

     total cpu time spent up to now is    14681.5 secs

     total energy              =  -12778.40376793 Ry
     Harris-Foulkes estimate   =  -12779.38076356 Ry
     estimated scf accuracy    <       7.50635485 Ry

     iteration # 22     ecut=    80.00 Ry     beta=0.70
     Davidson diagonalization with overlap
     ethr =  5.73E-04,  avg # of iterations =  5.3

     negative rho (up, down):  1.728E+00 0.000E+00

     total cpu time spent up to now is    15109.8 secs

     total energy              =  -12778.00589899 Ry
     Harris-Foulkes estimate   =  -12778.84043162 Ry
     estimated scf accuracy    <       6.17972080 Ry

     iteration # 23     ecut=    80.00 Ry     beta=0.70
     Davidson diagonalization with overlap
     ethr =  4.72E-04,  avg # of iterations =  1.0

     negative rho (up, down):  7.610E-01 0.000E+00

     total cpu time spent up to now is    15443.8 secs

     total energy              =  -12777.33997013 Ry
     Harris-Foulkes estimate   =  -12778.22271994 Ry
     estimated scf accuracy    <       7.40627813 Ry

     iteration # 24     ecut=    80.00 Ry     beta=0.70
     Davidson diagonalization with overlap
     ethr =  4.72E-04,  avg # of iterations = 10.3

     negative rho (up, down):  1.670E+00 0.000E+00

     total cpu time spent up to now is    15983.9 secs

     total energy              =  -12777.72590464 Ry
     Harris-Foulkes estimate   =  -12777.48444911 Ry
     estimated scf accuracy    <       8.76853594 Ry

     iteration # 25     ecut=    80.00 Ry     beta=0.70
     Davidson diagonalization with overlap
     ethr =  4.72E-04,  avg # of iterations =  3.3

     negative rho (up, down):  3.910E-01 0.000E+00

     total cpu time spent up to now is    16368.5 secs

     total energy              =  -12776.81720850 Ry
     Harris-Foulkes estimate   =  -12777.90629287 Ry
     estimated scf accuracy    <       4.91113441 Ry

     iteration # 26     ecut=    80.00 Ry     beta=0.70
     Davidson diagonalization with overlap
     ethr =  3.75E-04,  avg # of iterations =  6.7

     negative rho (up, down):  1.440E-01 0.000E+00

     total cpu time spent up to now is    16825.7 secs

     total energy              =  -12776.26782180 Ry
     Harris-Foulkes estimate   =  -12776.94712695 Ry
     estimated scf accuracy    <       9.28760195 Ry

     iteration # 27     ecut=    80.00 Ry     beta=0.70
     Davidson diagonalization with overlap
     ethr =  3.75E-04,  avg # of iterations =  2.2

     negative rho (up, down):  2.405E-01 0.000E+00

     total cpu time spent up to now is    17185.0 secs

     total energy              =  -12776.63552870 Ry
     Harris-Foulkes estimate   =  -12776.40648844 Ry
     estimated scf accuracy    <       8.71822834 Ry

     iteration # 28     ecut=    80.00 Ry     beta=0.70
     Davidson diagonalization with overlap
     ethr =  3.75E-04,  avg # of iterations =  2.0

     negative rho (up, down):  1.206E-01 0.000E+00

     total cpu time spent up to now is    17540.2 secs

     total energy              =  -12775.90643624 Ry
     Harris-Foulkes estimate   =  -12776.78039497 Ry
     estimated scf accuracy    <       4.40428798 Ry

     iteration # 29     ecut=    80.00 Ry     beta=0.70
     Davidson diagonalization with overlap
     ethr =  3.36E-04,  avg # of iterations =  2.3

     negative rho (up, down):  2.263E-01 0.000E+00

     total cpu time spent up to now is    17903.4 secs

     total energy              =  -12775.55981913 Ry
     Harris-Foulkes estimate   =  -12776.06317896 Ry
     estimated scf accuracy    <       5.63941886 Ry

     iteration # 30     ecut=    80.00 Ry     beta=0.70
     Davidson diagonalization with overlap
     ethr =  3.36E-04,  avg # of iterations =  3.5

     negative rho (up, down):  5.213E-01 0.000E+00

     total cpu time spent up to now is    18291.4 secs

     total energy              =  -12775.33639977 Ry
     Harris-Foulkes estimate   =  -12775.70936196 Ry
     estimated scf accuracy    <       3.79161646 Ry

     iteration # 31     ecut=    80.00 Ry     beta=0.70
     Davidson diagonalization with overlap
     ethr =  2.90E-04,  avg # of iterations =  6.2

     negative rho (up, down):  4.438E-01 0.000E+00

     total cpu time spent up to now is    18740.4 secs

     total energy              =  -12775.14277382 Ry
     Harris-Foulkes estimate   =  -12775.43131205 Ry
     estimated scf accuracy    <       2.03254077 Ry

     iteration # 32     ecut=    80.00 Ry     beta=0.70
     Davidson diagonalization with overlap
     ethr =  1.55E-04,  avg # of iterations =  8.7

     negative rho (up, down):  4.436E-01 0.000E+00

     total cpu time spent up to now is    19279.1 secs

     total energy              =  -12775.13511786 Ry
     Harris-Foulkes estimate   =  -12775.20878811 Ry
     estimated scf accuracy    <       0.59227670 Ry

     iteration # 33     ecut=    80.00 Ry     beta=0.70
     Davidson diagonalization with overlap
     ethr =  4.52E-05,  avg # of iterations =  7.0

     negative rho (up, down):  4.042E-01 0.000E+00

     total cpu time spent up to now is    19751.2 secs

     total energy              =  -12775.11193007 Ry
     Harris-Foulkes estimate   =  -12775.16984126 Ry
     estimated scf accuracy    <       0.31418068 Ry

     iteration # 34     ecut=    80.00 Ry     beta=0.70
     Davidson diagonalization with overlap
     ethr =  2.40E-05,  avg # of iterations =  7.7

     negative rho (up, down):  3.535E-01 0.000E+00

     total cpu time spent up to now is    20305.9 secs

     total energy              =  -12775.12635833 Ry
     Harris-Foulkes estimate   =  -12775.13935577 Ry
     estimated scf accuracy    <       0.08230886 Ry

     iteration # 35     ecut=    80.00 Ry     beta=0.70
     Davidson diagonalization with overlap
     ethr =  6.29E-06,  avg # of iterations =  4.3

     negative rho (up, down):  2.192E-01 0.000E+00

     total cpu time spent up to now is    20726.2 secs

     total energy              =  -12775.12180202 Ry
     Harris-Foulkes estimate   =  -12775.13314384 Ry
     estimated scf accuracy    <       0.04537322 Ry

     iteration # 36     ecut=    80.00 Ry     beta=0.70
     Davidson diagonalization with overlap
     ethr =  3.47E-06,  avg # of iterations = 11.8

     negative rho (up, down):  2.074E-01 0.000E+00

     total cpu time spent up to now is    21369.2 secs

     total energy              =  -12775.12069651 Ry
     Harris-Foulkes estimate   =  -12775.12423254 Ry
     estimated scf accuracy    <       0.02438656 Ry

     iteration # 37     ecut=    80.00 Ry     beta=0.70
     Davidson diagonalization with overlap
     ethr =  1.86E-06,  avg # of iterations =  9.3

     negative rho (up, down):  1.330E-01 0.000E+00

     total cpu time spent up to now is    21959.9 secs

     total energy              =  -12775.11738308 Ry
     Harris-Foulkes estimate   =  -12775.12226811 Ry
     estimated scf accuracy    <       0.01140996 Ry

     iteration # 38     ecut=    80.00 Ry     beta=0.70
     Davidson diagonalization with overlap
     ethr =  8.72E-07,  avg # of iterations = 10.7

     negative rho (up, down):  9.312E-02 0.000E+00

     total cpu time spent up to now is    22571.7 secs

     total energy              =  -12775.11552623 Ry
     Harris-Foulkes estimate   =  -12775.11807831 Ry
     estimated scf accuracy    <       0.00723307 Ry

     iteration # 39     ecut=    80.00 Ry     beta=0.70
     Davidson diagonalization with overlap
     ethr =  5.53E-07,  avg # of iterations = 10.0

     negative rho (up, down):  6.345E-02 0.000E+00

     total cpu time spent up to now is    23146.9 secs

     total energy              =  -12775.11465343 Ry
     Harris-Foulkes estimate   =  -12775.11607352 Ry
     estimated scf accuracy    <       0.00364601 Ry

     iteration # 40     ecut=    80.00 Ry     beta=0.70
     Davidson diagonalization with overlap
     ethr =  2.79E-07,  avg # of iterations =  7.8

     negative rho (up, down):  3.434E-02 0.000E+00

     total cpu time spent up to now is    23673.2 secs

     total energy              =  -12775.11412333 Ry
     Harris-Foulkes estimate   =  -12775.11494594 Ry
     estimated scf accuracy    <       0.00190915 Ry

     iteration # 41     ecut=    80.00 Ry     beta=0.70
     Davidson diagonalization with overlap
     c_bands:  1 eigenvalues not converged
     ethr =  1.46E-07,  avg # of iterations = 14.3

     negative rho (up, down):  1.738E-02 0.000E+00

     total cpu time spent up to now is    24355.4 secs

     total energy              =  -12775.11384453 Ry
     Harris-Foulkes estimate   =  -12775.11425486 Ry
     estimated scf accuracy    <       0.00088863 Ry

     iteration # 42     ecut=    80.00 Ry     beta=0.70
     Davidson diagonalization with overlap
     c_bands:  2 eigenvalues not converged
     c_bands:  1 eigenvalues not converged
     ethr =  6.79E-08,  avg # of iterations = 13.0

     negative rho (up, down):  3.996E-03 0.000E+00

     total cpu time spent up to now is    25000.9 secs

     total energy              =  -12775.11362333 Ry
     Harris-Foulkes estimate   =  -12775.11390853 Ry
     estimated scf accuracy    <       0.00029879 Ry

     iteration # 43     ecut=    80.00 Ry     beta=0.70
     Davidson diagonalization with overlap
     c_bands:  1 eigenvalues not converged
     ethr =  2.28E-08,  avg # of iterations = 14.0

     negative rho (up, down):  3.047E-03 0.000E+00

     total cpu time spent up to now is    25750.5 secs

     total energy              =  -12775.11364587 Ry
     Harris-Foulkes estimate   =  -12775.11367265 Ry
     estimated scf accuracy    <       0.00013844 Ry

     iteration # 44     ecut=    80.00 Ry     beta=0.70
     Davidson diagonalization with overlap
     ethr =  1.06E-08,  avg # of iterations =  4.8

     negative rho (up, down):  1.910E-03 0.000E+00

     total cpu time spent up to now is    26193.8 secs

     total energy              =  -12775.11364151 Ry
     Harris-Foulkes estimate   =  -12775.11365824 Ry
     estimated scf accuracy    <       0.00001914 Ry

     iteration # 45     ecut=    80.00 Ry     beta=0.70
     Davidson diagonalization with overlap
     ethr =  1.46E-09,  avg # of iterations =  6.2

     negative rho (up, down):  1.630E-03 0.000E+00

     total cpu time spent up to now is    26678.6 secs

     total energy              =  -12775.11364654 Ry
     Harris-Foulkes estimate   =  -12775.11364364 Ry
     estimated scf accuracy    <       0.00000342 Ry

     iteration # 46     ecut=    80.00 Ry     beta=0.70
     Davidson diagonalization with overlap
     ethr =  2.61E-10,  avg # of iterations =  3.7

     negative rho (up, down):  1.526E-03 0.000E+00

     total cpu time spent up to now is    27114.2 secs

     total energy              =  -12775.11364735 Ry
     Harris-Foulkes estimate   =  -12775.11364709 Ry
     estimated scf accuracy    <       0.00000192 Ry

     iteration # 47     ecut=    80.00 Ry     beta=0.70
     Davidson diagonalization with overlap
     ethr =  1.47E-10,  avg # of iterations =  3.0

     negative rho (up, down):  1.606E-03 0.000E+00

     total cpu time spent up to now is    27509.3 secs

     total energy              =  -12775.11364883 Ry
     Harris-Foulkes estimate   =  -12775.11364758 Ry
     estimated scf accuracy    <       0.00000060 Ry

     iteration # 48     ecut=    80.00 Ry     beta=0.70
     Davidson diagonalization with overlap
     ethr =  4.55E-11,  avg # of iterations =  3.0

     negative rho (up, down):  1.674E-03 0.000E+00

     total cpu time spent up to now is    27904.7 secs

     total energy              =  -12775.11364900 Ry
     Harris-Foulkes estimate   =  -12775.11364889 Ry
     estimated scf accuracy    <       0.00000029 Ry

     iteration # 49     ecut=    80.00 Ry     beta=0.70
     Davidson diagonalization with overlap
     ethr =  2.24E-11,  avg # of iterations =  3.3

     negative rho (up, down):  1.675E-03 0.000E+00

     total cpu time spent up to now is    28307.6 secs

     total energy              =  -12775.11364908 Ry
     Harris-Foulkes estimate   =  -12775.11364902 Ry
     estimated scf accuracy    <       0.00000009 Ry

     iteration # 50     ecut=    80.00 Ry     beta=0.70
     Davidson diagonalization with overlap
     ethr =  7.04E-12,  avg # of iterations =  3.0

     negative rho (up, down):  1.668E-03 0.000E+00

     total cpu time spent up to now is    28704.4 secs

     total energy              =  -12775.11364910 Ry
     Harris-Foulkes estimate   =  -12775.11364909 Ry
     estimated scf accuracy    <       0.00000004 Ry

     iteration # 51     ecut=    80.00 Ry     beta=0.70
     Davidson diagonalization with overlap
     ethr =  2.92E-12,  avg # of iterations =  2.8

     negative rho (up, down):  1.671E-03 0.000E+00

     total cpu time spent up to now is    29091.4 secs

     total energy              =  -12775.11364909 Ry
     Harris-Foulkes estimate   =  -12775.11364910 Ry
     estimated scf accuracy    <       0.00000002 Ry

     iteration # 52     ecut=    80.00 Ry     beta=0.70
     Davidson diagonalization with overlap
     ethr =  1.58E-12,  avg # of iterations =  2.8

     negative rho (up, down):  1.665E-03 0.000E+00

     total cpu time spent up to now is    29483.4 secs

     total energy              =  -12775.11364908 Ry
     Harris-Foulkes estimate   =  -12775.11364909 Ry
     estimated scf accuracy    <       0.00000001 Ry

     iteration # 53     ecut=    80.00 Ry     beta=0.70
     Davidson diagonalization with overlap
     ethr =  8.17E-13,  avg # of iterations =  2.7

     negative rho (up, down):  1.663E-03 0.000E+00

     total cpu time spent up to now is    29850.7 secs

     End of self-consistent calculation

          k = 0.0000 0.0000 0.0000 (256287 PWs)   bands (ev):

   -20.0470 -17.9734 -15.9445 -15.5904 -15.5492 -14.4761 -14.4579 -13.9907
   -13.9805 -13.6389 -13.6351 -13.6251 -13.5903 -12.6905 -12.6661 -12.5838
   -12.5590 -12.5466 -12.5357 -10.9540 -10.8700 -10.8504 -10.8455 -10.6770
    -9.6599  -9.2334  -8.9810  -8.9680  -8.9646  -8.4101  -8.1030  -8.0989
    -8.0616  -7.8401  -7.1224  -7.1112  -7.0534  -7.0422  -7.0249  -7.0236
    -6.9636  -6.9172  -5.6521  -5.6049  -5.4913  -5.4864  -5.4468  -5.3535
    -5.3197  -5.2872  -5.2589  -5.0769  -5.0712  -4.7794  -4.5863  -4.2474
    -4.2327  -4.1855  -4.1579  -4.0964  -3.9673  -3.8486  -3.7891  -3.7133
    -3.5804  -3.5776  -3.4699  -3.3900  -3.0369  -3.0331  -3.0130  -2.9966
    -2.9944  -2.9667  -2.8731  -2.8519  -2.7934  -2.7744  -2.7546  -2.7476
    -2.5987  -2.5973  -2.5947  -2.5917  -2.5223  -2.4821  -2.4171  -2.3923
    -2.3322  -2.3278  -2.2726  -2.2486  -2.2097  -2.1954  -2.1815  -2.1127
    -2.0621  -1.9637  -1.9555  -1.9382  -1.9303  -1.8815  -1.8066  -1.7809
    -1.7795  -1.7411  -1.7406  -1.7404  -1.7398  -1.6469  -1.6397  -1.6310
    -1.6115  -1.6114  -1.6054  -1.6050  -1.5473  -1.5145  -1.4287  -1.4043
    -1.3639  -1.3514  -1.3257  -1.3241  -1.3237  -1.3092  -1.2795  -1.2600
    -1.2476  -1.2456  -1.2401  -1.1893  -1.1795  -1.1539  -1.1519  -1.1497
    -1.1451  -1.1192  -1.1189  -1.1122  -1.1028  -1.1002  -1.0854  -1.0271
    -1.0226  -1.0031  -0.9683  -0.9543  -0.9481  -0.9475  -0.9390  -0.8852
    -0.8698  -0.8508  -0.8497  -0.8473  -0.8351  -0.7980  -0.7971  -0.7787
    -0.7746  -0.7537  -0.7498  -0.7080  -0.6927  -0.6835  -0.6799  -0.6541
    -0.6366  -0.6304  -0.6245  -0.6159  -0.6156  -0.6093  -0.6085  -0.6072
    -0.6068  -0.6029  -0.6013  -0.5879  -0.5845  -0.5457  -0.5380  -0.5297
    -0.5135  -0.5111  -0.5058  -0.5016  -0.5010  -0.4811  -0.4468  -0.4452
    -0.4447  -0.4432  -0.4417  -0.4416  -0.4414  -0.4383  -0.4371  -0.4341
    -0.4337  -0.4336  -0.4306  -0.4280  -0.4277  -0.4185  -0.4173  -0.4157
    -0.3700  -0.3622  -0.3484  -0.2924  -0.2760  -0.2757  -0.2694  -0.2684
    -0.2475  -0.2436  -0.2273  -0.2268  -0.2074  -0.2056  -0.2012  -0.1964
    -0.1915  -0.1855  -0.1850  -0.1746  -0.1532  -0.1515  -0.1471  -0.1459
    -0.1409  -0.1392  -0.1299  -0.1284  -0.1257  -0.0782  -0.0771  -0.0246
    -0.0240  -0.0159  -0.0151  -0.0123  -0.0091  -0.0054   0.0022   0.0046
     0.0079   0.0096   0.0103   0.0122   0.0141   0.0144   0.0285   0.0289
     0.0377   0.0388   0.0439   0.0636   0.0650   0.1114   0.1130   0.1215
     0.1217   0.1228   0.1322   0.1472   0.1474   0.1505   0.1510   0.1660
     0.1666   0.1711   0.1715   0.1746   0.1911   0.1927   0.1956   0.1978
     0.1985   0.1994   0.2002   0.2018   0.2047   0.2141   0.2212   0.2220
     0.2251   0.2265   0.2316   0.2501   0.2930   0.2944   0.2955   0.2960
     0.2969   0.3434   0.3437   0.3446   0.3458   0.3514   0.3521   0.3525
     0.3545   0.3546   0.3640   0.3750   0.4017   0.4047   0.4060   0.4076
     0.4146   0.4314   0.4340   0.4345   0.4362   0.4391   0.4476   0.4583
     0.4590   0.4591   0.4597   0.4649   0.4694   0.4752   0.4755   0.4761
     0.4774   0.4825   0.4861   0.4902   0.4966   0.5062   0.5109   0.5189
     0.5217   0.5490   0.5496   0.5781   0.5794   0.5841   0.5979   0.5995
     0.6101   0.6473   0.6482   0.6484   0.6582   0.6601   0.6611   0.6824
     0.6857   0.6862   0.6875   0.6880   0.6931   0.6958   0.7004   0.7395
     0.7424   0.7520   0.7533   0.7620   0.7650   0.7662   0.7706   0.7932
     0.7942   0.7951   0.7981   0.7995   0.8258   0.8355   0.8368   0.8429
     0.8460   0.8473   0.8508   0.8528   0.8574   0.8872   0.8918   0.9040
     0.9072   0.9104   0.9143   0.9149   0.9223   0.9274   0.9410   0.9418
     0.9445   0.9477   0.9488   0.9514   0.9520   0.9537   0.9577   0.9621
     0.9639   0.9681   0.9690   0.9732   0.9758   0.9769   0.9897   1.0118
     1.0167   1.0168   1.0217   1.0371   1.0604   1.0606   1.0637   1.0639
     1.0663   1.0671   1.0681   1.0702   1.0800   1.0840   1.0842   1.0922
     1.0924   1.0935   1.0970   1.1002   1.1006   1.1073   1.1112   1.1309
     1.1333   1.1338   1.1361   1.1412   1.1466   1.1521   1.1557   1.1584
     1.1584   1.1614   1.1670   1.1674   1.1688   1.1734   1.1814   1.2169
     1.2189   1.2192   1.2298   1.2304   1.2332   1.2336   1.2390   1.2407
     1.2432   1.2488   1.2699   1.2706   1.2841   1.2858   1.2895   1.2897
     1.3039   1.3045   1.3115   1.3121   1.3136   1.3149   1.3243   1.3339
     1.3511   1.3522   1.3536   1.3548   1.3571   1.3587   1.3737   1.3822
     1.3923   1.3982   1.3998   1.4028   1.4111   1.4224   1.4229   1.4256
     1.4267   1.4293   1.4340   1.4354   1.4384   1.4410   1.4413   1.4428
     1.4433   1.4451   1.4519   1.4551   1.4597   1.4748   1.4772   1.4787
     1.4814   1.4844   1.4879   1.5178   1.5181   1.5197   1.5221   1.5232
     1.5235   1.5280   1.5290   1.5291   1.5295   1.5324   1.5333   1.5372
     1.5387   1.5471   1.5476   1.5702   1.5710   1.5948   1.5958   1.6125
     1.6137   1.6156   1.6176   1.6180   1.6188   1.6228   1.6379   1.6458
     1.6516   1.6522   1.6527   1.6543   1.6570   1.6589   1.6590   1.6601
     1.6635   1.6690   1.6853   1.6877   1.6883   1.6883   1.6904   1.6916
     1.6919   1.6938   1.7075   1.7084   1.7094   1.7167   1.7178   1.7233
     1.7236   1.7247   1.7251   1.7320   1.7352   1.7385   1.7400   1.7549
     1.7666   1.7671   1.7711   1.7730   1.7745   1.7769   1.7774   1.7925
     1.7957   1.8008   1.8030   1.8061   1.8140   1.8274   1.8292   1.8297
     1.8358   1.8361   1.8448   1.8459   1.8477   1.8483   1.8489   1.8501
     1.8518   1.8522   1.8526   1.8596   1.8614   1.8633   1.8780   1.8795
     1.8804   1.8822   1.8866   1.8917   1.8936   1.8989   1.9275   1.9287
     1.9324   1.9329   1.9689   1.9709   1.9732   1.9762   1.9922   1.9923
     1.9947   1.9994   2.0086   2.0207   2.0416   2.0441   2.0455   2.0462
     2.0465   2.0556   2.0565   2.0579   2.3154   2.3675   2.4777   2.5187
     2.5267   2.5531   2.5670   2.6173   2.6194   2.6206   2.6254   2.6369
     2.6385   2.6398   2.6902   2.8101   2.8195   2.8699   2.8771   2.8815
     2.8817   2.8938   2.9017   3.1272   3.1317   3.1321   3.1385   3.5042
     3.5196   3.5268   3.5419   3.9226   3.9287   4.1739   4.2198   4.2325
     4.2577   4.2620   4.2639   4.2846   4.3417   4.3677   4.3770   4.3823
     4.4082   4.4170   4.4210   4.4228   4.4254   4.4328   4.6385   4.6560
     4.6606   4.6740   4.7966   5.0467   5.1738   5.3217   5.3708   5.3977
     5.7061   5.7480   5.7990   5.8200   6.0327   6.0941   6.1030   6.1140
     6.1597   6.2574   6.3429   6.3573   6.7270   6.7438   6.8075   6.8200
     6.8612   6.8644   6.8714   6.8832   6.9863   7.0010   7.0569   7.0873
     7.1056   7.1853   7.1920   7.2080   7.2406   7.3643   7.4340   7.4563
     7.4832   7.5044   7.5201   7.5573   7.7086   7.7668   7.7676   7.9199
     7.9221   7.9716   8.0176   8.0740   8.0981   8.1035   8.1038   8.1636
     8.5468   8.5510   8.5619   8.5809   8.6038   8.6281   8.6742   8.6933
     8.7450   8.7468   8.7829   8.7896   8.8062   8.8199   8.9345   8.9506
     8.9698   8.9859   9.0100   9.0569   9.0642   9.0796   9.0883   9.2375
     9.2395   9.2546   9.2578   9.2601   9.3592   9.4629   9.4724   9.4818
     9.5026   9.5032   9.5164   9.5361   9.5850   9.6823   9.7472   9.7550
     9.8293   9.9860   9.9907   9.9985  10.0792  10.1220  10.1718  10.2400
    10.2711  10.3827

          k = 0.0000-0.2165 0.0000 (256176 PWs)   bands (ev):

   -20.0470 -17.9734 -15.8709 -15.8292 -15.1170 -15.0990 -13.9104 -13.9076
   -13.8932 -13.8660 -13.6618 -13.6420 -13.1923 -13.1811 -13.1758 -13.1507
   -11.8417 -11.7850 -11.7614 -11.7558 -11.5760 -11.5470 -10.0167  -9.8806
    -9.8588  -9.8528  -8.8770  -8.6032  -8.5773  -8.4611  -8.4539  -8.4443
    -8.0596  -7.6369  -7.6316  -7.6073  -7.5135  -6.4836  -6.4618  -6.4191
    -6.4106  -6.3559  -6.3142  -6.2950  -6.2419  -5.5759  -5.4785  -5.4733
    -5.4631  -4.9906  -4.6754  -4.6671  -4.6361  -4.5707  -4.5334  -4.4339
    -4.4283  -4.3486  -4.1948  -4.1108  -4.0801  -4.0678  -4.0509  -3.9764
    -3.8620  -3.6141  -3.4624  -3.3353  -3.1279  -3.0346  -2.8972  -2.8961
    -2.8873  -2.8806  -2.7870  -2.7519  -2.6594  -2.6483  -2.6205  -2.6189
    -2.5515  -2.5392  -2.5213  -2.4891  -2.3688  -2.3536  -2.3234  -2.3193
    -2.2828  -2.2360  -2.1911  -2.1834  -2.1705  -2.1695  -2.1680  -2.1661
    -2.1495  -2.1348  -2.0752  -2.0427  -2.0266  -1.8975  -1.8857  -1.8437
    -1.8378  -1.8322  -1.8291  -1.7714  -1.7391  -1.7315  -1.7305  -1.7195
    -1.6746  -1.5738  -1.5734  -1.5501  -1.5486  -1.5481  -1.4871  -1.4557
    -1.4485  -1.3579  -1.3526  -1.3458  -1.3388  -1.3378  -1.3356  -1.3288
    -1.3286  -1.3259  -1.3128  -1.3045  -1.2377  -1.2357  -1.2281  -1.1383
    -1.1186  -1.1121  -1.0571  -1.0547  -1.0514  -1.0510  -0.9672  -0.9605
    -0.9591  -0.9562  -0.9052  -0.9006  -0.8708  -0.8676  -0.8666  -0.8623
    -0.8614  -0.8607  -0.8543  -0.8510  -0.8350  -0.8197  -0.8128  -0.8120
    -0.8099  -0.8084  -0.8055  -0.8007  -0.7792  -0.7293  -0.7260  -0.7215
    -0.7207  -0.7060  -0.6753  -0.6748  -0.6370  -0.6366  -0.6338  -0.6329
    -0.5961  -0.5839  -0.5743  -0.5731  -0.5695  -0.5669  -0.5668  -0.5613
    -0.5396  -0.5165  -0.5097  -0.5059  -0.5051  -0.4980  -0.4973  -0.4862
    -0.4836  -0.4835  -0.4720  -0.4176  -0.4142  -0.4053  -0.4046  -0.4029
    -0.4016  -0.3934  -0.3847  -0.3825  -0.3790  -0.3676  -0.3638  -0.3404
    -0.3400  -0.3383  -0.3330  -0.3036  -0.2454  -0.2446  -0.2360  -0.2345
    -0.2195  -0.2191  -0.1944  -0.1923  -0.1918  -0.1903  -0.1879  -0.1878
    -0.1629  -0.1620  -0.1307  -0.1293  -0.1269  -0.1227  -0.1223  -0.1220
    -0.1195  -0.1190  -0.0904  -0.0888  -0.0720  -0.0720  -0.0703  -0.0661
    -0.0356  -0.0342  -0.0340  -0.0324  -0.0272  -0.0254  -0.0171  -0.0158
    -0.0114  -0.0043   0.0505   0.0514   0.0609   0.0620   0.0817   0.0858
     0.0885   0.1098   0.1101   0.1140   0.1181   0.1193   0.1220   0.1259
     0.1396   0.1419   0.1475   0.1476   0.1582   0.1595   0.1620   0.1631
     0.1684   0.1694   0.1704   0.1712   0.1783   0.1796   0.1809   0.2047
     0.2051   0.2061   0.2067   0.2100   0.2134   0.2712   0.2720   0.2734
     0.2737   0.2806   0.2827   0.2840   0.2851   0.2993   0.3022   0.3118
     0.3178   0.3207   0.3256   0.3264   0.3274   0.3330   0.3345   0.3359
     0.3368   0.3381   0.3413   0.3435   0.3938   0.3954   0.3966   0.3977
     0.3983   0.4072   0.4172   0.4189   0.4201   0.4217   0.4267   0.4306
     0.4401   0.4425   0.4454   0.4504   0.4514   0.4721   0.4739   0.4852
     0.4869   0.4876   0.4897   0.4918   0.4960   0.5081   0.5129   0.5247
     0.5255   0.5329   0.5365   0.5439   0.5481   0.5483   0.5492   0.5890
     0.5894   0.5979   0.6012   0.6056   0.6093   0.6133   0.6161   0.6169
     0.6400   0.6428   0.6773   0.6787   0.6796   0.6848   0.7074   0.7233
     0.7750   0.7870   0.7951   0.7956   0.8038   0.8048   0.8160   0.8257
     0.8261   0.8269   0.8289   0.8518   0.8610   0.8669   0.8683   0.8689
     0.8692   0.8702   0.8715   0.8747   0.8799   0.8839   0.8894   0.8898
     0.8916   0.8930   0.8953   0.8994   0.9003   0.9060   0.9284   0.9312
     0.9387   0.9391   0.9396   0.9418   0.9464   0.9464   0.9521   0.9699
     0.9701   0.9709   0.9718   0.9718   0.9727   0.9739   0.9759   0.9891
     0.9910   0.9913   0.9939   0.9952   0.9969   1.0000   1.0034   1.0073
     1.0096   1.0215   1.0582   1.0587   1.0696   1.0703   1.0801   1.0817
     1.0824   1.0842   1.0852   1.0875   1.0907   1.0916   1.0930   1.0934
     1.0956   1.0965   1.1344   1.1378   1.1380   1.1386   1.1440   1.1548
     1.1553   1.1582   1.1587   1.1594   1.1678   1.1710   1.1869   1.1879
     1.1912   1.1928   1.1960   1.1985   1.2461   1.2481   1.2972   1.2983
     1.3058   1.3061   1.3072   1.3127   1.3151   1.3179   1.3233   1.3254
     1.3298   1.3308   1.3342   1.3382   1.3396   1.3404   1.3453   1.3526
     1.3528   1.3534   1.3544   1.3548   1.3619   1.3703   1.3765   1.3766
     1.3793   1.3803   1.3818   1.3834   1.3859   1.3870   1.3891   1.3985
     1.3993   1.4005   1.4036   1.4041   1.4046   1.4050   1.4235   1.4248
     1.4297   1.4362   1.4423   1.4428   1.4445   1.4449   1.4505   1.4516
     1.4530   1.4531   1.4534   1.4559   1.4966   1.5038   1.5290   1.5380
     1.5406   1.5412   1.5547   1.5551   1.5662   1.5693   1.5719   1.5743
     1.5828   1.5839   1.5978   1.5997   1.6015   1.6057   1.6059   1.6090
     1.6095   1.6109   1.6115   1.6134   1.6142   1.6157   1.6165   1.6166
     1.6230   1.6245   1.6359   1.6387   1.6411   1.6414   1.6428   1.6443
     1.6519   1.6545   1.6729   1.6819   1.6825   1.6831   1.6881   1.6892
     1.6903   1.6929   1.7042   1.7082   1.7118   1.7119   1.7201   1.7237
     1.7253   1.7263   1.7278   1.7296   1.7426   1.7450   1.7465   1.7470
     1.7603   1.7649   1.7649   1.7678   1.7823   1.7832   1.7920   1.7927
     1.7929   1.7935   1.8055   1.8057   1.8068   1.8102   1.8240   1.8256
     1.8329   1.8390   1.8396   1.8400   1.8456   1.8590   1.8601   1.8607
     1.8610   1.8626   1.8629   1.8659   1.8661   1.8906   1.8927   1.8994
     1.8996   1.9074   1.9148   1.9200   1.9303   1.9313   1.9324   1.9330
     1.9388   1.9470   1.9515   1.9590   1.9622   1.9986   1.9990   1.9999
     2.0093   2.1000   2.1009   2.1206   2.1244   2.1485   2.1539   2.1562
     2.1782   2.1986   2.2042   2.2059   2.2109   2.2238   2.2274   2.2293
     2.2467   2.2637   2.2661   2.5830   2.5889   2.5932   2.8227   2.8241
     2.8306   2.8324   2.9059   2.9110   2.9713   2.9728   2.9767   2.9777
     2.9901   2.9902   3.1182   3.1196   3.1617   3.1672   3.1882   3.1899
     3.3329   3.3340   3.4010   3.5721   3.5721   3.6042   3.6274   3.7811
     3.7909   4.0793   4.0847   4.3623   4.3804   4.4520   4.4843   4.5106
     4.5601   4.5716   4.7249   4.7253   4.7351   4.7413   4.8937   4.9003
     5.0233   5.0851   5.1248   5.1554   5.1626   5.4779   5.5104   5.5127
     5.5886   5.7600   5.7644   5.7670   5.7692   5.8046   5.8438   6.0043
     6.0754   6.1370   6.2235   6.2614   6.6185   6.7308   6.7752   6.8055
     6.8105   6.8278   6.8348   6.8855   6.9550   6.9642   7.0741   7.0772
     7.1764   7.1911   7.2041   7.4214   7.4499   7.4677   7.4754   7.4905
     7.5067   7.5134   7.5313   7.5343   7.5436   7.6086   7.7308   7.7498
     7.7748   7.7945   7.8478   7.9093   8.1341   8.1495   8.1849   8.2179
     8.2388   8.2773   8.4893   8.5457   8.5481   8.5702   8.7603   8.7654
     8.7863   8.8017   8.8111   8.8131   8.8890   8.9432   9.0032   9.1028
     9.1068   9.1202   9.1218   9.1420   9.1632   9.1701   9.2118   9.2253
     9.2797   9.3048   9.3535   9.4116   9.4365   9.5237   9.5502   9.5650
     9.6162   9.6279   9.7819   9.7849   9.8017   9.8028   9.8509   9.8660
     9.8779   9.8845   9.8962   9.9816  10.0481  10.0604  10.0720  10.1964
    10.1981  10.2463

          k = 0.2500 0.0000 0.0000 (256240 PWs)   bands (ev):

   -20.0470 -17.9735 -15.8206 -15.4669 -15.4263 -14.8352 -14.4847 -14.4498
   -14.3547 -14.3359 -13.3943 -13.3747 -12.9126 -12.5857 -12.5644 -12.5478
   -12.5371 -11.6716 -11.6296 -11.5389 -11.5222 -10.5881 -10.3094 -10.2428
   -10.2295  -9.7551  -9.5500  -9.2994  -9.2245  -8.8839  -8.6832  -8.5880
    -8.2287  -7.8862  -7.0565  -7.0411  -7.0322  -6.9869  -6.9294  -6.8885
    -6.4325  -6.1668  -5.6680  -5.4892  -5.4294  -5.4213  -5.4080  -5.3610
    -4.9112  -4.9038  -4.8701  -4.6582  -4.6005  -4.4567  -4.1976  -4.1316
    -4.0572  -4.0513  -4.0281  -3.9334  -3.8920  -3.8518  -3.8150  -3.7315
    -3.5922  -3.5880  -3.5801  -3.5075  -3.4329  -3.4297  -3.3779  -3.2986
    -3.2015  -3.1159  -3.0793  -3.0433  -3.0283  -3.0149  -2.9690  -2.8977
    -2.8540  -2.8323  -2.7702  -2.7328  -2.6593  -2.6291  -2.6088  -2.5972
    -2.4641  -2.3921  -2.3880  -2.3842  -2.3030  -2.2564  -2.2138  -2.2057
    -1.9897  -1.9831  -1.9595  -1.9276  -1.9178  -1.8129  -1.6882  -1.6872
    -1.6715  -1.6695  -1.6162  -1.5894  -1.5493  -1.5205  -1.4875  -1.4836
    -1.4480  -1.4254  -1.4048  -1.3887  -1.3885  -1.3815  -1.3813  -1.3607
    -1.3335  -1.3138  -1.3059  -1.3008  -1.2783  -1.2374  -1.2316  -1.2026
    -1.1908  -1.1717  -1.1698  -1.1676  -1.1662  -1.1657  -1.1617  -1.1414
    -1.1172  -1.1055  -1.0915  -1.0903  -1.0876  -1.0789  -1.0690  -0.9594
    -0.9227  -0.9193  -0.8994  -0.8689  -0.8548  -0.8464  -0.8309  -0.8297
    -0.8243  -0.8168  -0.8069  -0.7973  -0.7944  -0.7825  -0.7717  -0.7687
    -0.7647  -0.7526  -0.7228  -0.7209  -0.7203  -0.7189  -0.7155  -0.7011
    -0.6992  -0.6977  -0.6756  -0.6647  -0.6387  -0.6376  -0.6370  -0.6333
    -0.6261  -0.6092  -0.6030  -0.6002  -0.5962  -0.5878  -0.5822  -0.5790
    -0.5714  -0.5705  -0.5676  -0.5670  -0.5635  -0.5616  -0.5562  -0.5528
    -0.5489  -0.5321  -0.5274  -0.5154  -0.5020  -0.4900  -0.4875  -0.4795
    -0.4546  -0.4407  -0.4369  -0.4188  -0.4023  -0.4021  -0.3842  -0.3810
    -0.3742  -0.3574  -0.3569  -0.3424  -0.3421  -0.3393  -0.3344  -0.3301
    -0.3248  -0.3093  -0.2903  -0.2238  -0.1903  -0.1861  -0.1818  -0.1712
    -0.1547  -0.1529  -0.1520  -0.1369  -0.1364  -0.1360  -0.1341  -0.1150
    -0.1131  -0.1124  -0.1065  -0.0992  -0.0906  -0.0728  -0.0725  -0.0707
    -0.0691  -0.0674  -0.0523  -0.0476  -0.0475  -0.0429   0.0112   0.0138
     0.0144   0.0147   0.0212   0.0253   0.0259   0.0330   0.0402   0.0470
     0.0569   0.0578   0.0793   0.0797   0.0808   0.0873   0.1171   0.1175
     0.1217   0.1224   0.1314   0.1321   0.1421   0.1476   0.1500   0.1596
     0.1625   0.1779   0.1830   0.1860   0.2109   0.2140   0.2154   0.2174
     0.2195   0.2298   0.2315   0.2333   0.2335   0.2412   0.2607   0.2610
     0.2654   0.2721   0.2761   0.2933   0.3008   0.3021   0.3028   0.3301
     0.3436   0.3489   0.3516   0.3559   0.3586   0.3598   0.3743   0.3930
     0.3939   0.3997   0.4013   0.4059   0.4121   0.4130   0.4169   0.4182
     0.4201   0.4217   0.4231   0.4238   0.4264   0.4452   0.4458   0.4466
     0.4473   0.4540   0.4544   0.4715   0.4727   0.4866   0.4923   0.5071
     0.5267   0.5282   0.5290   0.5307   0.5314   0.5346   0.5449   0.5523
     0.5538   0.5543   0.5560   0.5576   0.5834   0.5905   0.5963   0.6444
     0.6633   0.6659   0.6667   0.6695   0.6839   0.6844   0.6858   0.6867
     0.6894   0.6942   0.6966   0.7003   0.7020   0.7033   0.7098   0.7163
     0.7194   0.7203   0.7210   0.7250   0.7338   0.7350   0.7396   0.7443
     0.7470   0.7490   0.7510   0.7655   0.7711   0.7821   0.8006   0.8185
     0.8197   0.8293   0.8328   0.8388   0.8398   0.8551   0.8557   0.8568
     0.8597   0.8681   0.8779   0.8875   0.8907   0.8932   0.8993   0.9004
     0.9042   0.9051   0.9102   0.9110   0.9329   0.9351   0.9389   0.9515
     0.9576   0.9618   0.9637   0.9646   0.9652   0.9674   0.9700   0.9723
     0.9863   0.9937   0.9939   0.9993   1.0045   1.0091   1.0111   1.0119
     1.0222   1.0226   1.0273   1.0306   1.0344   1.0501   1.0525   1.0565
     1.0709   1.0725   1.0751   1.0770   1.0825   1.0837   1.0849   1.1052
     1.1160   1.1190   1.1363   1.1419   1.1536   1.1542   1.1578   1.1609
     1.1638   1.1790   1.1829   1.1879   1.1889   1.1917   1.1964   1.2058
     1.2097   1.2165   1.2174   1.2280   1.2373   1.2387   1.2415   1.2518
     1.2577   1.2668   1.2695   1.2697   1.2716   1.2931   1.2939   1.3024
     1.3049   1.3069   1.3083   1.3100   1.3154   1.3163   1.3219   1.3243
     1.3575   1.3624   1.3643   1.3654   1.3681   1.3689   1.3809   1.3825
     1.3851   1.4002   1.4010   1.4027   1.4067   1.4132   1.4143   1.4172
     1.4282   1.4298   1.4313   1.4325   1.4342   1.4352   1.4369   1.4394
     1.4428   1.4450   1.4458   1.4480   1.4549   1.4594   1.4672   1.4708
     1.4749   1.4779   1.4798   1.4855   1.4872   1.4894   1.4903   1.5034
     1.5036   1.5167   1.5194   1.5203   1.5220   1.5241   1.5320   1.5373
     1.5459   1.5483   1.5503   1.5609   1.5653   1.5679   1.5722   1.5732
     1.5801   1.5874   1.5927   1.5955   1.6011   1.6055   1.6069   1.6389
     1.6415   1.6488   1.6555   1.6576   1.6584   1.6649   1.6664   1.6673
     1.6684   1.6751   1.6764   1.6851   1.6883   1.6920   1.6923   1.7040
     1.7104   1.7114   1.7134   1.7145   1.7171   1.7192   1.7241   1.7262
     1.7281   1.7296   1.7298   1.7368   1.7396   1.7412   1.7431   1.7490
     1.7592   1.7622   1.7652   1.7677   1.7695   1.7703   1.7730   1.7805
     1.7917   1.7921   1.7942   1.8074   1.8167   1.8180   1.8263   1.8275
     1.8344   1.8358   1.8363   1.8373   1.8405   1.8410   1.8462   1.8477
     1.8480   1.8489   1.8528   1.8559   1.8743   1.8757   1.8765   1.8779
     1.8800   1.8825   1.8830   1.8951   1.8954   1.9031   1.9056   1.9081
     1.9177   1.9191   1.9261   1.9286   1.9333   1.9391   1.9582   1.9595
     1.9668   1.9942   1.9973   2.0339   2.0360   2.0390   2.0437   2.0628
     2.0956   2.1544   2.1699   2.1735   2.1755   2.1952   2.1970   2.2205
     2.2483   2.4030   2.4423   2.4698   2.4764   2.4959   2.4976   2.5330
     2.6007   2.6480   2.6658   2.9686   2.9733   2.9756   2.9775   3.3693
     3.3866   3.3912   3.4180   3.6035   3.6042   3.6282   3.6283   3.6654
     3.6915   3.8442   3.8755   3.9780   3.9865   4.0363   4.0428   4.1047
     4.1139   4.1240   4.1284   4.1765   4.2729   4.2809   4.3667   4.3764
     4.5071   4.5658   4.5796   4.6333   4.6860   4.7787   4.8374   5.0080
     5.1435   5.2070   5.2413   5.3425   5.5526   5.6175   5.6269   5.6347
     5.6892   5.7601   5.8380   5.8737   5.8990   5.9134   5.9676   5.9849
     6.0161   6.0443   6.0856   6.1083   6.1524   6.1931   6.2117   6.2204
     6.3861   6.4148   6.4208   6.4433   6.4977   6.6655   7.0657   7.0915
     7.1000   7.1164   7.1572   7.1808   7.2064   7.2477   7.2581   7.3694
     7.4203   7.4352   7.4376   7.4461   7.4803   7.6190   7.6468   7.6868
     7.7201   7.8163   7.8704   7.8899   7.9006   7.9611   7.9791   8.1217
     8.1315   8.1466   8.1799   8.2070   8.3421   8.4017   8.4201   8.4638
     8.4845   8.5961   8.6238   8.6650   8.6796   8.7164   8.7271   8.7332
     8.7507   8.7690   8.8020   8.8495   8.9668   9.0425   9.0508   9.1560
     9.2852   9.3134   9.3724   9.4077   9.4577   9.5078   9.5517   9.5701
     9.5887   9.5939   9.6019   9.6072   9.6133   9.6250   9.6666   9.6846
     9.7525   9.7970   9.8138   9.8799   9.8887  10.1061  10.1190  10.1232
    10.1349  10.2077

          k = 0.2500-0.2165 0.0000 (256316 PWs)   bands (ev):

   -20.0470 -17.9735 -15.7467 -15.7059 -14.9948 -14.9768 -14.7600 -14.7243
   -14.0211 -14.0049 -13.5428 -13.5226 -12.8333 -12.8154 -12.6010 -12.5766
   -12.1380 -12.1142 -11.4718 -11.4376 -10.8713 -10.8245 -10.5988 -10.5601
   -10.2185 -10.1895  -9.2139  -9.1165  -8.7836  -8.6122  -8.5491  -8.4968
    -8.2091  -7.9506  -7.9220  -7.8711  -7.6863  -6.2500  -6.1641  -6.1253
    -6.1048  -6.0158  -5.9632  -5.8055  -5.7479  -5.5219  -5.4290  -5.3001
    -5.2906  -4.9139  -4.6703  -4.5165  -4.4094  -4.3543  -4.3113  -4.2719
    -4.2644  -4.2271  -4.1247  -3.9415  -3.9336  -3.9163  -3.8026  -3.7248
    -3.6886  -3.6487  -3.6108  -3.4519  -3.4297  -3.3239  -3.3041  -3.1999
    -3.1621  -3.0918  -3.0655  -3.0480  -3.0420  -3.0164  -2.9589  -2.8837
    -2.7369  -2.7079  -2.6562  -2.6223  -2.5728  -2.5234  -2.5152  -2.5007
    -2.4980  -2.4961  -2.4291  -2.3833  -2.3446  -2.3152  -2.1327  -2.0787
    -2.0519  -2.0110  -1.9073  -1.8987  -1.8810  -1.8169  -1.7792  -1.7672
    -1.7574  -1.7572  -1.6931  -1.5976  -1.5972  -1.5604  -1.5562  -1.5281
    -1.4694  -1.4199  -1.4103  -1.4018  -1.4007  -1.3700  -1.3450  -1.3419
    -1.3170  -1.3116  -1.3004  -1.2988  -1.2931  -1.2862  -1.2696  -1.2678
    -1.2653  -1.2638  -1.2617  -1.2557  -1.2549  -1.2415  -1.1951  -1.1730
    -1.1642  -1.0564  -1.0556  -0.9528  -0.9508  -0.9323  -0.9185  -0.9154
    -0.9128  -0.8660  -0.8657  -0.8622  -0.8497  -0.8493  -0.8366  -0.8360
    -0.8263  -0.8244  -0.8158  -0.8145  -0.8061  -0.8032  -0.7946  -0.7897
    -0.7840  -0.7811  -0.7780  -0.7703  -0.7684  -0.7216  -0.7183  -0.7139
    -0.7095  -0.7068  -0.7000  -0.6997  -0.6760  -0.6716  -0.6676  -0.6593
    -0.6278  -0.6271  -0.6261  -0.6159  -0.6148  -0.6123  -0.5828  -0.5825
    -0.5653  -0.5570  -0.5527  -0.5482  -0.5453  -0.5442  -0.5406  -0.5358
    -0.5317  -0.5132  -0.5078  -0.4913  -0.4862  -0.4587  -0.4495  -0.4492
    -0.4485  -0.4159  -0.3703  -0.3681  -0.3645  -0.3636  -0.3567  -0.3559
    -0.3547  -0.3183  -0.3080  -0.3075  -0.2993  -0.2989  -0.2927  -0.2923
    -0.2846  -0.2793  -0.2765  -0.2562  -0.2382  -0.2362  -0.2118  -0.2011
    -0.1997  -0.1837  -0.1549  -0.1508  -0.1504  -0.1501  -0.1266  -0.1213
    -0.1194  -0.1121  -0.1018  -0.0897  -0.0868  -0.0807  -0.0744  -0.0719
    -0.0424  -0.0386  -0.0340  -0.0333  -0.0235  -0.0167   0.0044   0.0047
     0.0169   0.0205   0.0225   0.0303   0.0353   0.0432   0.0436   0.0487
     0.0494   0.0545   0.0581   0.0609   0.0620   0.0758   0.0812   0.0831
     0.0863   0.0957   0.0963   0.1200   0.1215   0.1371   0.1430   0.1458
     0.1551   0.1726   0.1733   0.1752   0.1885   0.1943   0.1967   0.1981
     0.2018   0.2160   0.2365   0.2584   0.2586   0.2710   0.2940   0.2947
     0.3040   0.3043   0.3081   0.3096   0.3250   0.3255   0.3310   0.3426
     0.3435   0.3477   0.3592   0.3612   0.3667   0.3700   0.3722   0.3736
     0.3752   0.3783   0.3976   0.4027   0.4085   0.4093   0.4108   0.4115
     0.4130   0.4152   0.4161   0.4189   0.4224   0.4258   0.4432   0.4435
     0.4445   0.4452   0.4777   0.4795   0.4860   0.4883   0.4943   0.4954
     0.5125   0.5150   0.5208   0.5373   0.5431   0.5445   0.5529   0.5561
     0.5602   0.5625   0.5654   0.5663   0.5710   0.5807   0.5851   0.5907
     0.5920   0.6145   0.6171   0.6214   0.6813   0.6817   0.6917   0.6928
     0.6946   0.6959   0.6979   0.6996   0.7055   0.7077   0.7093   0.7104
     0.7253   0.7301   0.7329   0.7381   0.7418   0.7447   0.7457   0.7484
     0.7521   0.7547   0.7748   0.7813   0.7925   0.7947   0.8044   0.8100
     0.8126   0.8174   0.8315   0.8549   0.8584   0.8610   0.8665   0.8703
     0.8722   0.8766   0.8833   0.8848   0.8894   0.8913   0.8927   0.8942
     0.8984   0.9005   0.9221   0.9238   0.9313   0.9347   0.9432   0.9468
     0.9718   0.9805   0.9810   0.9834   0.9838   1.0101   1.0159   1.0185
     1.0194   1.0219   1.0224   1.0262   1.0282   1.0362   1.0393   1.0403
     1.0407   1.0507   1.0524   1.0571   1.0592   1.0639   1.0716   1.0745
     1.0785   1.0797   1.0815   1.0840   1.0907   1.0924   1.0981   1.1013
     1.1023   1.1026   1.1163   1.1211   1.1223   1.1230   1.1290   1.1296
     1.1315   1.1325   1.1362   1.1384   1.1688   1.1705   1.1775   1.1785
     1.1978   1.2100   1.2186   1.2199   1.2366   1.2367   1.2382   1.2388
     1.2429   1.2439   1.2571   1.2640   1.2646   1.2666   1.2677   1.2686
     1.2703   1.2778   1.2892   1.2954   1.2974   1.2993   1.3078   1.3100
     1.3170   1.3178   1.3381   1.3387   1.3490   1.3645   1.3670   1.3727
     1.3768   1.3773   1.3781   1.3785   1.3815   1.3895   1.3923   1.4079
     1.4137   1.4144   1.4297   1.4301   1.4416   1.4472   1.4504   1.4516
     1.4690   1.4742   1.4846   1.4889   1.4927   1.4944   1.4987   1.4995
     1.5004   1.5014   1.5030   1.5039   1.5053   1.5072   1.5173   1.5186
     1.5234   1.5297   1.5305   1.5316   1.5467   1.5511   1.5685   1.5762
     1.5782   1.5825   1.5857   1.5875   1.5884   1.5894   1.5969   1.5988
     1.6018   1.6038   1.6057   1.6075   1.6107   1.6115   1.6172   1.6181
     1.6210   1.6241   1.6296   1.6299   1.6361   1.6362   1.6372   1.6380
     1.6502   1.6518   1.6575   1.6582   1.6666   1.6825   1.6841   1.6902
     1.6909   1.7052   1.7085   1.7092   1.7130   1.7227   1.7228   1.7304
     1.7329   1.7367   1.7418   1.7424   1.7463   1.7502   1.7533   1.7593
     1.7608   1.7622   1.7716   1.7726   1.7759   1.7867   1.7887   1.7942
     1.7947   1.7951   1.7993   1.8014   1.8029   1.8048   1.8054   1.8177
     1.8189   1.8221   1.8231   1.8342   1.8374   1.8399   1.8452   1.8487
     1.8490   1.8490   1.8540   1.8565   1.8573   1.8578   1.8587   1.8650
     1.8659   1.8667   1.8900   1.8901   1.8963   1.9019   1.9041   1.9140
     1.9157   1.9342   1.9373   1.9403   1.9429   1.9618   1.9628   1.9687
     1.9697   1.9940   1.9977   2.0508   2.0631   2.0674   2.0741   2.0779
     2.1530   2.1611   2.1704   2.1769   2.1851   2.1963   2.1973   2.1982
     2.2215   2.2397   2.2491   2.2522   2.5362   2.5381   2.5665   2.5688
     2.6915   2.6978   2.9935   2.9950   3.1567   3.1896   3.1974   3.1989
     3.2056   3.2082   3.2324   3.2382   3.3839   3.3924   3.4153   3.4753
     3.4867   3.9407   3.9464   4.0047   4.0094   4.0438   4.0531   4.2442
     4.2493   4.2524   4.2556   4.3959   4.4019   4.4707   4.4773   4.5699
     4.5719   4.7619   4.7810   4.7847   4.8985   4.9429   4.9555   5.0499
     5.0744   5.1216   5.1451   5.1778   5.2972   5.3101   5.3865   5.4144
     5.4598   5.5412   5.6507   5.6638   5.7585   5.8280   5.8479   5.8592
     5.8637   5.8846   6.0337   6.1602   6.1798   6.2575   6.2905   6.3048
     6.3501   6.3978   6.5735   6.8002   6.9754   6.9833   7.0140   7.0189
     7.1335   7.1385   7.2033   7.2428   7.2549   7.4068   7.4218   7.4672
     7.4818   7.4907   7.5106   7.5706   7.6151   7.6228   7.6780   7.7286
     7.7464   7.7557   7.7670   7.7747   7.7902   7.8310   7.8324   8.0575
     8.0706   8.1591   8.1930   8.2807   8.3218   8.3492   8.3682   8.3892
     8.4256   8.5948   8.6011   8.6324   8.6592   8.7211   8.8459   8.8643
     8.9880   8.9966   9.0253   9.0307   9.0555   9.0936   9.0968   9.1232
     9.1610   9.2399   9.2922   9.3029   9.3428   9.3729   9.3948   9.4195
     9.5056   9.5291   9.5677   9.5965   9.6141   9.6176   9.6288   9.6650
     9.6760   9.7076   9.7395   9.7511   9.7623   9.7771   9.8121   9.8314
     9.9907  10.0465

          k =-0.5000 0.0000 0.0000 (256496 PWs)   bands (ev):

   -20.0470 -17.9735 -15.4614 -15.4384 -15.1098 -15.0847 -15.0698 -15.0452
   -13.9988 -13.9898 -13.9849 -13.9591 -12.2454 -12.2189 -12.2066 -12.1809
   -11.6687 -11.6248 -11.3634 -11.3167 -11.3135 -11.2725 -10.7115 -10.6604
   -10.2884 -10.2398  -9.6927  -9.6249  -9.2579  -9.2496  -8.6496  -8.4273
    -8.4078  -8.3696  -7.9636  -6.9387  -6.9023  -6.8709  -6.8616  -6.8476
    -6.7762  -5.4509  -5.3932  -4.9945  -4.9011  -4.8920  -4.6697  -4.6391
    -4.3972  -4.3945  -4.3931  -4.3859  -4.3160  -4.2758  -4.2571  -4.2439
    -4.2283  -4.1968  -4.1809  -4.1161  -4.0349  -4.0305  -3.9572  -3.9090
    -3.8807  -3.8653  -3.7465  -3.6060  -3.5700  -3.5681  -3.5631  -3.5549
    -3.3465  -3.2913  -3.1381  -3.1319  -3.0755  -3.0103  -3.0102  -3.0094
    -3.0059  -2.8959  -2.8862  -2.8674  -2.8628  -2.8442  -2.7646  -2.6935
    -2.3747  -2.3487  -2.3439  -2.3251  -2.2972  -2.2757  -2.2579  -2.2124
    -2.1943  -2.1748  -2.0805  -2.0038  -1.9904  -1.9433  -1.8990  -1.8920
    -1.8878  -1.8859  -1.4716  -1.4679  -1.4674  -1.4673  -1.4651  -1.4635
    -1.4529  -1.3468  -1.3413  -1.3395  -1.2618  -1.2387  -1.2386  -1.2380
    -1.2345  -1.1912  -1.1897  -1.1883  -1.1871  -1.1636  -1.1250  -1.0913
    -1.0829  -1.0772  -1.0736  -1.0212  -1.0137  -1.0128  -1.0112  -1.0076
    -0.9948  -0.9921  -0.9780  -0.9526  -0.9461  -0.9459  -0.9415  -0.9395
    -0.9377  -0.9302  -0.9286  -0.9253  -0.9220  -0.9130  -0.9103  -0.8798
    -0.8792  -0.8782  -0.8735  -0.8557  -0.8550  -0.8549  -0.8528  -0.7918
    -0.7913  -0.7709  -0.7698  -0.7678  -0.7674  -0.7422  -0.7414  -0.7392
    -0.7356  -0.7354  -0.7326  -0.7325  -0.7162  -0.6954  -0.6950  -0.6939
    -0.6931  -0.6723  -0.6706  -0.6426  -0.6418  -0.5972  -0.5959  -0.5787
    -0.5688  -0.5686  -0.5650  -0.5646  -0.5398  -0.5379  -0.5375  -0.5365
    -0.5333  -0.5304  -0.5219  -0.5197  -0.5183  -0.5163  -0.5144  -0.5001
    -0.4947  -0.4901  -0.4870  -0.4281  -0.4268  -0.4235  -0.4235  -0.3814
    -0.3803  -0.3195  -0.2990  -0.2981  -0.2978  -0.2968  -0.2723  -0.2602
    -0.2590  -0.2586  -0.2575  -0.2570  -0.2469  -0.2413  -0.2276  -0.2190
    -0.2179  -0.2152  -0.2134  -0.2076  -0.2025  -0.1985  -0.1863  -0.1843
    -0.1805  -0.1686  -0.0946  -0.0859  -0.0682  -0.0578  -0.0550  -0.0433
    -0.0431  -0.0427  -0.0341  -0.0292   0.0031   0.0061   0.0062   0.0075
     0.0102   0.0110   0.0192   0.0401   0.0412   0.0419   0.0425   0.0471
     0.0482   0.0665   0.0830   0.0837   0.0846   0.0853   0.1170   0.1171
     0.1174   0.1179   0.1294   0.1299   0.1616   0.1619   0.1649   0.1652
     0.1768   0.1815   0.1851   0.1937   0.2081   0.2163   0.2186   0.2755
     0.2764   0.2779   0.2781   0.2825   0.2828   0.2847   0.2849   0.2949
     0.3231   0.3239   0.3272   0.3339   0.3604   0.3625   0.3860   0.3868
     0.3880   0.3887   0.3890   0.3893   0.3909   0.3910   0.3918   0.3934
     0.3938   0.3949   0.4496   0.4558   0.4704   0.4738   0.4787   0.4793
     0.4824   0.4830   0.4856   0.4857   0.4884   0.4892   0.4915   0.4939
     0.4941   0.4978   0.4995   0.5014   0.5043   0.5085   0.5133   0.5135
     0.5269   0.5274   0.5278   0.5278   0.5287   0.5296   0.5406   0.5411
     0.5413   0.5415   0.5531   0.5537   0.5649   0.5652   0.5659   0.5661
     0.5746   0.5774   0.5964   0.5990   0.6655   0.6763   0.6981   0.6982
     0.7009   0.7013   0.7145   0.7287   0.7329   0.7336   0.7346   0.7405
     0.7447   0.7479   0.7513   0.7553   0.7572   0.7574   0.7587   0.7638
     0.7641   0.7660   0.7676   0.7690   0.7697   0.7750   0.7828   0.7836
     0.7855   0.7949   0.7999   0.8008   0.8060   0.8113   0.8116   0.8163
     0.8167   0.8358   0.8690   0.8885   0.8992   0.9028   0.9061   0.9066
     0.9214   0.9227   0.9325   0.9330   0.9375   0.9380   0.9420   0.9431
     0.9433   0.9441   0.9459   0.9466   0.9489   0.9510   0.9522   0.9526
     0.9590   0.9604   0.9613   0.9677   0.9810   0.9818   0.9963   0.9970
     1.0139   1.0173   1.0300   1.0312   1.0332   1.0358   1.0409   1.0414
     1.0424   1.0449   1.0461   1.0478   1.0480   1.0512   1.0609   1.0648
     1.0654   1.0664   1.0780   1.0817   1.0829   1.0907   1.1142   1.1179
     1.1198   1.1206   1.1244   1.1304   1.1371   1.1403   1.1639   1.1764
     1.1768   1.1783   1.1812   1.1822   1.1825   1.1839   1.2036   1.2267
     1.2464   1.2468   1.2499   1.2505   1.2518   1.2525   1.2585   1.2604
     1.2644   1.2666   1.2669   1.2687   1.2778   1.2797   1.2965   1.2981
     1.3009   1.3018   1.3174   1.3182   1.3183   1.3201   1.3209   1.3213
     1.3234   1.3241   1.3568   1.3570   1.3577   1.3579   1.4151   1.4189
     1.4252   1.4257   1.4267   1.4275   1.4533   1.4594   1.4604   1.4610
     1.4639   1.4694   1.4801   1.4823   1.4884   1.4887   1.4919   1.5055
     1.5059   1.5119   1.5226   1.5245   1.5266   1.5274   1.5288   1.5293
     1.5337   1.5355   1.5399   1.5400   1.5451   1.5456   1.5466   1.5485
     1.5502   1.5503   1.5531   1.5555   1.5837   1.5859   1.5869   1.5874
     1.5936   1.6152   1.6222   1.6236   1.6241   1.6249   1.6291   1.6327
     1.6437   1.6450   1.6506   1.6530   1.6535   1.6539   1.6564   1.6637
     1.6644   1.6646   1.6660   1.6730   1.6803   1.6875   1.6952   1.6991
     1.7111   1.7129   1.7221   1.7267   1.7270   1.7277   1.7277   1.7281
     1.7288   1.7301   1.7355   1.7417   1.7421   1.7429   1.7435   1.7442
     1.7445   1.7448   1.7512   1.7534   1.7538   1.7540   1.7549   1.7564
     1.7610   1.7628   1.7764   1.7784   1.7910   1.7943   1.7976   1.8025
     1.8035   1.8044   1.8059   1.8065   1.8204   1.8229   1.8276   1.8285
     1.8389   1.8417   1.8433   1.8487   1.8531   1.8593   1.8597   1.8598
     1.8666   1.8803   1.8804   1.8832   1.8838   1.8911   1.8918   1.8922
     1.8923   1.8933   1.8998   1.9079   1.9121   1.9149   1.9241   1.9246
     1.9251   1.9256   1.9332   1.9358   1.9431   1.9465   1.9871   1.9918
     1.9996   2.0181   2.0187   2.0217   2.0247   2.0605   2.4346   2.4368
     2.4414   2.4443   2.6321   2.6446   2.6525   2.6642   2.6948   2.6952
     2.7024   2.7030   2.9942   3.0159   3.0223   3.0347   3.2051   3.2392
     3.2427   3.2456   3.3822   3.5942   3.5949   3.5985   3.5999   3.8803
     3.8892   4.1381   4.1557   4.1613   4.1652   4.3249   4.3261   4.3342
     4.3361   4.4753   4.4791   4.4811   4.4857   4.5501   4.5730   4.8263
     4.9147   4.9784   5.0946   5.1276   5.1380   5.1499   5.1514   5.2328
     5.2341   5.2735   5.2940   5.4247   5.4253   5.4383   5.4476   5.4568
     5.4625   5.4721   5.4794   5.4937   5.4959   5.5586   5.5699   5.5841
     5.8316   5.8888   5.9420   5.9714   5.9948   6.0626   6.0725   6.1872
     6.3420   6.3901   6.3938   6.4157   6.4178   6.4270   6.4307   6.4413
     6.4790   6.6621   6.8083   6.8198   6.8354   6.8498   6.8656   6.9030
     7.0770   7.3068   7.4846   7.4853   7.4920   7.5137   7.5287   7.5328
     7.9403   7.9833   7.9873   7.9921   7.9940   7.9957   8.0055   8.0482
     8.0920   8.1841   8.2231   8.2520   8.2729   8.2813   8.2853   8.3288
     8.3547   8.4504   8.4542   8.4683   8.4946   8.5230   8.5307   8.5480
     8.5639   8.5851   8.6660   8.6798   8.7432   8.7964   9.2118   9.2146
     9.2203   9.2243   9.2351   9.2561   9.2633   9.2763   9.3921   9.4458
     9.4527   9.4544   9.4661   9.4866   9.6378   9.6645   9.6718   9.7282
     9.7947   9.8160   9.8464   9.8983   9.9052   9.9287   9.9327   9.9391
     9.9531   9.9775

          k =-0.5000-0.2165 0.0000 (256328 PWs)   bands (ev):

   -20.0470 -17.9735 -15.3827 -15.3699 -15.3535 -15.3172 -14.6391 -14.6206
   -14.6157 -14.6003 -13.1946 -13.1889 -13.1751 -13.1478 -11.6161 -11.5616
   -11.5611 -11.5181 -11.1953 -11.1299 -11.1003 -11.0898 -10.9778 -10.9317
   -10.9288 -10.9215  -9.3599  -9.2460  -9.2229  -9.1677  -8.5276  -8.2742
    -8.2669  -8.2102  -7.9963  -7.5146  -7.5116  -7.4709  -7.3530  -5.6459
    -5.4412  -5.4282  -5.4026  -4.9966  -4.8160  -4.7939  -4.7895  -4.7759
    -4.7733  -4.7671  -4.7597  -4.6590  -4.5768  -4.5729  -4.5600  -4.4097
    -4.1407  -3.9568  -3.9318  -3.9202  -3.8052  -3.7931  -3.7893  -3.7865
    -3.7571  -3.7394  -3.7079  -3.6984  -3.6869  -3.4906  -3.4569  -3.4561
    -3.3560  -3.2889  -3.1869  -3.1780  -3.1674  -3.1656  -3.1461  -3.1365
    -3.0902  -3.0426  -2.9863  -2.9580  -2.8530  -2.8286  -2.6352  -2.6173
    -2.5988  -2.4139  -2.1691  -2.1688  -2.1682  -2.1671  -2.1353  -2.1154
    -2.1136  -2.1091  -1.8970  -1.8440  -1.8333  -1.8129  -1.8022  -1.6849
    -1.6838  -1.6776  -1.6651  -1.6106  -1.6051  -1.6035  -1.5898  -1.5607
    -1.5390  -1.5014  -1.4732  -1.3950  -1.3929  -1.3877  -1.3846  -1.3031
[...]
     atom   11 type  1   force =    -0.00000311   -0.00006526    0.00008665
     atom   12 type  1   force =    -0.00002265   -0.00010148    0.00010788
     atom   13 type  1   force =    -0.00000289   -0.00008631    0.00010032
     atom   14 type  1   force =    -0.00002436   -0.00007160    0.00012857
     atom   15 type  1   force =    -0.00000361   -0.00011978    0.00013800
     atom   16 type  1   force =     0.00001634   -0.00007287    0.00012944
     atom   17 type  1   force =    -0.00000552   -0.00004337    0.00017080
     atom   18 type  1   force =     0.00001877   -0.00002366    0.00015781
     atom   19 type  1   force =    -0.00000422   -0.00003669    0.00013870
     atom   20 type  1   force =    -0.00002915   -0.00002407    0.00016214
     atom   21 type  1   force =    -0.00000692    0.00000995    0.00009699
     atom   22 type  1   force =    -0.00000179   -0.00001684    0.00008432
     atom   23 type  1   force =    -0.00000495   -0.00002500    0.00004864
     atom   24 type  1   force =    -0.00000846   -0.00001535    0.00008913
     atom   25 type  1   force =    -0.00000127   -0.00005258    0.00003944
     atom   26 type  1   force =    -0.00000746   -0.00003658    0.00004427
     atom   27 type  1   force =    -0.00000579   -0.00006763    0.00005814
     atom   28 type  1   force =    -0.00000020   -0.00003593    0.00004604
     atom   29 type  1   force =    -0.00000135   -0.00012717    0.00003488
     atom   30 type  1   force =    -0.00001548   -0.00010696    0.00007292
     atom   31 type  1   force =    -0.00000554   -0.00009674    0.00007023
     atom   32 type  1   force =     0.00000880   -0.00010588    0.00007383
     atom   33 type  1   force =    -0.00000565   -0.00005788    0.00007658
     atom   34 type  1   force =     0.00001260   -0.00009044    0.00006900
     atom   35 type  1   force =    -0.00000163   -0.00006209    0.00005946
     atom   36 type  1   force =    -0.00001888   -0.00008527    0.00006584
     atom   37 type  1   force =    -0.00000680   -0.00000532    0.00005973
     atom   38 type  1   force =    -0.00000701   -0.00001170    0.00007486
     atom   39 type  1   force =    -0.00000416   -0.00000091    0.00011490
     atom   40 type  1   force =    -0.00000191   -0.00001548    0.00008063
     atom   41 type  1   force =    -0.00000803   -0.00003816   -0.00000213
     atom   42 type  1   force =    -0.00002079   -0.00007188    0.00003805
     atom   43 type  1   force =    -0.00000762   -0.00002439    0.00009803
     atom   44 type  1   force =     0.00000680   -0.00007602    0.00003775
     atom   45 type  1   force =    -0.00000337   -0.00011941    0.00011412
     atom   46 type  1   force =    -0.00000356   -0.00010664    0.00004434
     atom   47 type  1   force =    -0.00001088   -0.00010483    0.00009712
     atom   48 type  1   force =    -0.00001284   -0.00010249    0.00003507
     atom   49 type  1   force =    -0.00000161   -0.00002244    0.00014786
     atom   50 type  1   force =    -0.00000041   -0.00008129    0.00008676
     atom   51 type  1   force =    -0.00000978   -0.00008522    0.00005818
     atom   52 type  1   force =    -0.00001213   -0.00008780    0.00008503
     atom   53 type  1   force =     0.00000226   -0.00001691    0.00002089
     atom   54 type  1   force =    -0.00000224   -0.00001560    0.00004495
     atom   55 type  1   force =    -0.00001288   -0.00006673    0.00007122
     atom   56 type  1   force =    -0.00000542   -0.00000927    0.00003637
     atom   57 type  1   force =    -0.00000628   -0.00001054    0.00005523
     atom   58 type  1   force =     0.00002149   -0.00000816    0.00003537
     atom   59 type  1   force =    -0.00000468   -0.00006414    0.00008043
     atom   60 type  1   force =    -0.00003533   -0.00000086    0.00003834
     atom   61 type  1   force =    -0.00000534   -0.00023176    0.00001429
     atom   62 type  1   force =     0.00002529   -0.00013178    0.00010261
     atom   63 type  1   force =    -0.00000714   -0.00017654    0.00004427
     atom   64 type  1   force =    -0.00004879   -0.00012977    0.00009833
     atom   65 type  1   force =    -0.00000364    0.00004138   -0.00003393
     atom   66 type  1   force =    -0.00002555   -0.00010324   -0.00000763
     atom   67 type  1   force =    -0.00001179   -0.00021462    0.00000170
     atom   68 type  1   force =    -0.00000372   -0.00012593   -0.00002427
     atom   69 type  1   force =    -0.00000357   -0.00018880    0.00016730
     atom   70 type  1   force =    -0.00001938   -0.00004217    0.00007768
     atom   71 type  1   force =    -0.00001291    0.00008794    0.00002795
     atom   72 type  1   force =    -0.00000276   -0.00003508    0.00010146
     atom   73 type  1   force =    -0.00000469   -0.00001025    0.00005121
     atom   74 type  1   force =     0.00002443    0.00001438   -0.00001473
     atom   75 type  1   force =    -0.00000577   -0.00008529    0.00008680
     atom   76 type  1   force =    -0.00004878    0.00002916   -0.00002716
     atom   77 type  1   force =    -0.00000675    0.00000968   -0.00007745
     atom   78 type  1   force =     0.00001923   -0.00002419    0.00000637
     atom   79 type  1   force =    -0.00001394   -0.00000695    0.00005878
     atom   80 type  1   force =    -0.00003602   -0.00003382    0.00000200
     atom   81 type  1   force =    -0.00001082   -0.00015437    0.00024560
     atom   82 type  1   force =    -0.00003442   -0.00010467   -0.00003364
     atom   83 type  1   force =    -0.00000123   -0.00009642    0.00033654
     atom   84 type  1   force =     0.00002277   -0.00013894   -0.00003076
     atom   85 type  1   force =    -0.00001115   -0.00009025   -0.00014708
     atom   86 type  1   force =     0.00006039   -0.00013254    0.00001322
     atom   87 type  1   force =    -0.00001564   -0.00022869    0.00004421
     atom   88 type  1   force =    -0.00007253   -0.00013561    0.00000186
     atom   89 type  1   force =    -0.00000709   -0.00021435    0.00004530
     atom   90 type  1   force =    -0.00002866   -0.00003398   -0.00001313
     atom   91 type  1   force =    -0.00002401    0.00002064    0.00005617
     atom   92 type  1   force =     0.00004310   -0.00002915   -0.00000667
     atom   93 type  1   force =    -0.00000555    0.00003539    0.00015673
     atom   94 type  1   force =     0.00007690    0.00004420   -0.00004288
     atom   95 type  1   force =    -0.00003266   -0.00005190    0.00009688
     atom   96 type  1   force =    -0.00009634    0.00006178   -0.00003775
     atom   97 type  1   force =    -0.00000159   -0.00001712    0.00015950
     atom   98 type  1   force =    -0.00000381   -0.00009871   -0.00000076
     atom   99 type  1   force =    -0.00001599   -0.00003154    0.00001515
     atom  100 type  1   force =    -0.00001109   -0.00010639    0.00000564
     atom  101 type  2   force =     0.00008085    0.00061562   -0.00018916
     atom  102 type  2   force =    -0.00022643    0.00039027    0.00061616
     atom  103 type  2   force =    -0.00008229    0.00058244   -0.00033407
     atom  104 type  2   force =    -0.00015941    0.00056621   -0.00101224
     atom  105 type  2   force =    -0.00013463    0.00067102   -0.00042250
     atom  106 type  2   force =    -0.00027090    0.00027319   -0.00026135
     atom  107 type  2   force =    -0.00001316    0.00035525    0.00091549
     atom  108 type  2   force =    -0.00040067    0.00006793    0.00080627
     atom  109 type  2   force =     0.00009175    0.00009281   -0.00003005
     atom  110 type  2   force =     0.00030500   -0.00007156   -0.00067950
     atom  111 type  2   force =     0.00043151    0.00067336    0.00003507
     atom  112 type  2   force =    -0.00051064    0.00028557   -0.00107079
     atom  113 type  2   force =    -0.00001902    0.00008201    0.00034634
     atom  114 type  2   force =     0.00017612    0.00027402   -0.00136136
     atom  115 type  2   force =    -0.00006071    0.00071339   -0.00082728
     atom  116 type  2   force =    -0.00037372    0.00039759    0.00021885
     atom  117 type  2   force =    -0.00018652   -0.00042460    0.00009454
     atom  118 type  2   force =    -0.00012369    0.00016925    0.00091333
     atom  119 type  2   force =     0.00029300    0.00061665   -0.00001354
     atom  120 type  2   force =     0.00015644    0.00036523   -0.00102212
     atom  121 type  2   force =     0.00018209   -0.00041014   -0.00006700
     atom  122 type  2   force =     0.00070779   -0.00007464    0.00095727
     atom  123 type  2   force =     0.00011971    0.00035619   -0.00063516
     atom  124 type  2   force =     0.00058064    0.00022244   -0.00002633
     atom  125 type  2   force =    -0.00002340    0.00026540    0.00006792
     atom  126 type  2   force =    -0.00038243    0.00024150   -0.00029002
     atom  127 type  2   force =     0.00018359   -0.00019676   -0.00059074
     atom  128 type  2   force =    -0.00013375   -0.00019780   -0.00113026
     atom  129 type  2   force =    -0.00043441    0.00111750    0.00046324
     atom  130 type  2   force =    -0.00023008   -0.00052664   -0.00030877
     atom  131 type  2   force =     0.00040997    0.00009788    0.00162474
     atom  132 type  2   force =    -0.00006370   -0.00013434    0.00074110
     atom  133 type  2   force =     0.00034646    0.00078205    0.00058988
     atom  134 type  2   force =     0.00007188   -0.00061040   -0.00105002
     atom  135 type  2   force =    -0.00011025   -0.00038770   -0.00063415
     atom  136 type  2   force =    -0.00029786    0.00014108   -0.00100095
     atom  137 type  2   force =    -0.00001469    0.00000460    0.00012308
     atom  138 type  2   force =     0.00016927   -0.00031345   -0.00115126
     atom  139 type  2   force =     0.00011112   -0.00040543    0.00033396
     atom  140 type  2   force =    -0.00030741   -0.00022505    0.00035918
     atom  141 type  2   force =     0.00023548   -0.00034967   -0.00010145
     atom  142 type  2   force =     0.00002914    0.00008304    0.00031380
     atom  143 type  2   force =     0.00013661    0.00002587    0.00008640
     atom  144 type  2   force =    -0.00007609    0.00016683    0.00065354
     atom  145 type  2   force =    -0.00012343    0.00024244   -0.00025071
     atom  146 type  2   force =    -0.00022431    0.00049382    0.00015782
     atom  147 type  2   force =     0.00001986   -0.00022238    0.00071552
     atom  148 type  2   force =     0.00034540   -0.00024969    0.00031094
     atom  149 type  2   force =     0.00069041    0.00004825   -0.00131966
     atom  150 type  3   force =     0.00018156   -0.00026222   -0.00073262
     atom  151 type  3   force =    -0.00044074   -0.00000082   -0.00066075
     atom  152 type  4   force =     0.00001622   -0.00018576   -0.00102515

     Total force =     0.006276     Total SCF correction =     0.000516

     number of scf cycles    =  24
     number of bfgs steps    =  23

     energy   old            =  -12775.1258373313 Ry
     energy   new            =  -12775.1258954478 Ry

     CASE: energy  _new < energy  _old

     new trust radius        =       0.0126491562 bohr
     new conv_thr            =       0.0000000058 Ry


ATOMIC_POSITIONS (angstrom)
Cu       0.000621530  -0.002715657   7.377765587
Cu       1.844922507   1.706885798   7.377220037
Cu       3.689462136  -0.001923116   7.377974368
Cu       5.534169816   1.706651093   7.377071504
Cu       0.000464717   3.412046399   7.375398776
Cu       1.844941919   5.114033122   7.371473671
Cu       3.689551528   3.411894687   7.374568181
Cu       5.534084014   5.114099966   7.371498888
Cu       0.000458913   6.814511474   7.369381177
Cu       1.844993253   8.513626910   7.370417543
Cu       3.689509508   6.814256806   7.369009651
Cu       5.534023573   8.513691932   7.370405162
Cu       0.000507204  10.212329956   7.374126738
Cu       1.845135832  11.912590730   7.377413043
Cu       3.689499420  10.212585598   7.374277777
Cu       5.533940495  11.912420966   7.377509275
Cu       0.000451705  13.616803097   7.378143738
Cu       1.845065242  15.325402396   7.378153543
Cu       3.689620526  13.616271657   7.378701464
Cu       5.534062693  15.325658843   7.378088428
Cu       0.000519263   1.708344140   9.206842653
Cu       1.845008263  -0.001756382   9.204348565
Cu       3.689531606   1.709339296   9.207124069
Cu       5.534101801  -0.001677067   9.204459441
Cu       0.000510741   5.118072883   9.208213996
Cu       1.845163090   3.416177681   9.208744397
Cu       3.689511580   5.117704504   9.208188947
Cu       5.533895334   3.415971331   9.208396793
Cu       0.000483458   8.510240035   9.209848813
Cu       1.845224647   6.814740713   9.208107299
Cu       3.689530662   8.509826347   9.209702641
Cu       5.533813504   6.814838234   9.208102615
Cu       0.000507432  11.909284925   9.211500802
Cu       1.845116554  10.207435756   9.212221834
Cu       3.689536555  11.909029233   9.213050039
Cu       5.533952670  10.207299742   9.212442210
Cu       0.000531969  15.325704807   9.204772738
Cu       1.845074399  13.615758236   9.208309036
Cu       3.689550550  15.326024858   9.203892116
Cu       5.534030963  13.615896175   9.208100001
Cu       0.000407276  -0.002536070  11.039863306
Cu       1.845694646   1.709442289  11.042563168
Cu       3.689627928  -0.002389607  11.038703692
Cu       5.533328562   1.709812683  11.042817108
Cu       0.000459644   3.419298099  11.048362903
Cu       1.845544626   5.121263705  11.057493008
Cu       3.689529335   3.420355293  11.051302788
Cu       5.533536952   5.120865079  11.056777657
Cu       0.000530813   6.814460963  11.061000302
Cu       1.844986408   8.505253751  11.061817096
Cu       3.689550011   6.813754543  11.062025940
Cu       5.534123930   8.504999106  11.062200629
Cu       0.000553042  10.202976178  11.058574324
Cu       1.845175106  11.907360971  11.052639994
Cu       3.689538048  10.200171625  11.059932608
Cu       5.533915580  11.907777512  11.052254048
Cu       0.000596090  13.616591951  11.044998500
Cu       1.844516311  15.327082520  11.040247936
Cu       3.689465253  13.619322208  11.044751453
Cu       5.534580714  15.326925822  11.040243551
Cu       0.000217647   1.708252195  12.870464691
Cu       1.846015770  -0.002209338  12.872474795
Cu       3.689537565   1.705714389  12.876169770
Cu       5.532876278  -0.002205256  12.872504150
Cu       0.000321293   5.117560090  12.903855949
Cu       1.848742179   3.415840767  12.886428633
Cu       3.689480665   5.123287047  12.914114882
Cu       5.530064222   3.416726722  12.887290801
Cu       0.000681612   8.505393132  12.917659246
Cu       1.846448189   6.813341963  12.920739415
Cu       3.689436926   8.497358072  12.922073351
Cu       5.532834460   6.811668192  12.920222749
Cu       0.000699982  11.909523921  12.888673865
Cu       1.844524385  10.200014417  12.903006723
Cu       3.689334503  11.911325797  12.881429783
Cu       5.534661709  10.201099895  12.901560544
Cu       0.000440301  15.327815486  12.877106794
Cu       1.842975225  13.621574769  12.878922688
Cu       3.689526014  15.330549636  12.876857077
Cu       5.536076316  13.621337842  12.878873965
Cu       0.000216544   0.004153634  14.677313764
Cu       1.847429272   1.700879983  14.685591578
Cu       3.689369467  -0.001220591  14.692846795
Cu       5.531010217   1.701594958  14.685188627
Cu       0.000997825   3.399047318  14.691060685
Cu       1.851755676   5.102011640  14.727168414
Cu       3.688328124   3.395593761  14.711582183
Cu       5.526421243   5.101335920  14.730235225
Cu       0.000582651   6.804935937  14.743071077
Cu       1.851469859   8.511145732  14.753036584
Cu       3.689992893   6.807911081  14.793688680
Cu       5.527734662   8.511514282  14.747636041
Cu       0.000090146  10.212041480  14.728258477
Cu       1.838028981  11.919007513  14.693969906
Cu       3.690064851  10.225000691  14.711426608
Cu       5.540950612  11.918881553  14.694212213
Cu       0.000333521  13.625756633  14.697737788
Cu       1.844646560  15.332243487  14.687264668
Cu       3.689553998  13.618687037  14.680544022
Cu       5.534157022  15.332125044  14.686966328
C        0.000046938   0.725082323  17.601248404
C        0.000324254   2.144303012  17.606872776
C        1.229645721   0.015770763  17.594375543
C        1.228836536   2.853358925  17.603244237
C        2.458495948   0.725433085  17.583137612
C        2.458563216   2.144231260  17.592939098
C        3.689477871   0.014558351  17.562505625
C        3.689650448   2.859020714  17.598643737
C        4.920222374   0.725936362  17.579825047
C        4.920972868   2.144855098  17.588900520
C        6.148670792   0.015723343  17.591020575
C        6.150083220   2.854384234  17.598248665
C       -0.000489903   4.983116621  17.600341533
C       -0.000390979   6.402235403  17.597319458
C        1.226842115   4.272638904  17.602707314
C        1.231917717   7.109847703  17.665536485
C        2.455922073   4.987296719  17.652558371
C        2.439833460   6.392566599  17.732231653
C        3.689447923   4.272835585  17.647523449
C        3.693244679   7.114507570  18.139402621
C        4.921084373   4.989815343  17.630246150
C        4.935328652   6.395218894  17.717338600
C        6.149783128   4.274158479  17.590301850
C        6.144193759   7.110002304  17.661301942
C        0.001309914   9.240496705  17.663222394
C        0.001518629  10.664359247  17.608675451
C        1.229318257   8.534826858  17.680865559
C        1.231968152  11.374685960  17.592509545
C        2.466333657   9.245815445  17.667339685
C        2.462558766  10.666811881  17.614070967
C        3.689557287   8.558641947  17.739005269
C        3.690062864  11.376446366  17.615362370
C        4.913142472   9.246560162  17.678946665
C        4.917956830  10.668186672  17.621646866
C        6.149214100   8.534847814  17.692763523
C        6.149075866  11.374660999  17.597044173
C        0.000603517  13.506040241  17.560896951
C        0.000131526  14.925878089  17.579953851
C        1.231966217  12.795129739  17.575614168
C        1.229359885  15.635355898  17.580265580
C        2.460386213  13.505219669  17.585323738
C        2.460192416  14.924887476  17.573332975
C        3.689507943  12.796431214  17.597384496
C        3.689365454  15.634110436  17.571425097
C        4.918814336  13.504549160  17.586176014
C        4.918337458  14.924268344  17.573214331
C        6.147788992  12.795021968  17.576293410
C        6.148713807  15.635152551  17.578885625
C        3.599461201   7.125961472  19.739955214
O        2.882724286   7.888551300  20.378026863
O        4.365498096   6.156066675  20.321413036
H        4.206081655   6.218065978  21.293629682



     Writing output data file gc.save
     Check: negative starting charge=   -0.001568
     NEW-OLD atomic charge density approx. for the potential
     Check: negative starting charge=   -0.001569

     negative rho (up, down):  1.696E-03 0.000E+00

     total cpu time spent up to now is   152589.6 secs

     Self-consistent Calculation

     iteration #  1     ecut=    80.00 Ry     beta=0.70
     Davidson diagonalization with overlap
     ethr =  1.00E-06,  avg # of iterations =  3.2

     negative rho (up, down):  1.607E-03 0.000E+00

     total cpu time spent up to now is   153233.7 secs

     total energy              =  -12775.12582993 Ry
     Harris-Foulkes estimate   =  -12775.12597625 Ry
     estimated scf accuracy    <       0.00184475 Ry

     iteration #  2     ecut=    80.00 Ry     beta=0.70
     Davidson diagonalization with overlap
     ethr =  1.41E-07,  avg # of iterations =  2.0

     negative rho (up, down):  1.551E-03 0.000E+00

     total cpu time spent up to now is   153613.4 secs

     total energy              =  -12775.12590270 Ry
     Harris-Foulkes estimate   =  -12775.12596443 Ry
     estimated scf accuracy    <       0.00028416 Ry

     iteration #  3     ecut=    80.00 Ry     beta=0.70
     Davidson diagonalization with overlap
