
     Program PWSCF v.5.4.0 starts on 26Apr2017 at 19:20:20 

     This program is part of the open-source Quantum ESPRESSO suite
     for quantum simulation of materials; please cite
         "P. Giannozzi et al., J. Phys.:Condens. Matter 21 395502 (2009);
          URL http://www.quantum-espresso.org", 
     in publications or presentations arising from this work. More details at
     http://www.quantum-espresso.org/quote

     Parallel version (MPI & OpenMP), running on      56 processor cores
     Number of MPI processes:                56
     Threads/MPI process:                     1
     R & G space division:  proc/nbgrp/npool/nimage =      56
     Waiting for input...
     Reading input from standard input
Warning: card &IONS ignored
Warning: card / ignored

     Current dimensions of program PWSCF are:
     Max number of different atomic species (ntypx) = 10
     Max number of k-points (npk) =  40000
     Max angular momentum in pseudopotentials (lmaxx) =  3

     -------------------------------------
     Parameters for Dispersion Correction:
     -------------------------------------
       atom      VdW radius       C_6     

        Cu         2.952        374.666
        C_h        2.744         60.710
        C          2.744         60.710
        H          1.892          4.857

     Subspace diagonalization in iterative solution of the eigenvalue problem:
     one sub-group per band group will be used
     scalapack distributed-memory algorithm (size of sub-group:  5*  5 procs)

 
     Parallelization info
     --------------------
     sticks:   dense  smooth     PW     G-vecs:    dense   smooth      PW
     Min         204     204     54                36612    36612    4962
     Max         205     205     55                36617    36617    4968
     Sum       11433   11433   3039              2050409  2050409  278033
 


     bravais-lattice index     =            0
     lattice parameter (alat)  =      13.9425  a.u.
     unit-cell volume          =   21209.0878 (a.u.)^3
     number of atoms/cell      =          151
     number of atomic types    =            4
     number of electrons       =      1298.00
     number of Kohn-Sham states=          779
     kinetic-energy cutoff     =      80.0000  Ry
     charge density cutoff     =     320.0000  Ry
     convergence threshold     =      1.0E-08
     mixing beta               =       0.7000
     number of iterations used =            8  local-TF  mixing
     Exchange-correlation      =  SLA  PW   PBE  PBE ( 1  4  3  4 0 0)

     celldm(1)=  13.942539  celldm(2)=   0.000000  celldm(3)=   0.000000
     celldm(4)=   0.000000  celldm(5)=   0.000000  celldm(6)=   0.000000

     crystal axes: (cart. coord. in units of alat)
               a(1) = (   1.000000   0.000000   0.000000 )  
               a(2) = (   0.000000   2.309401   0.000000 )  
               a(3) = (   0.000000   0.000000   3.388418 )  

     reciprocal axes: (cart. coord. in units 2 pi/alat)
               b(1) = (  1.000000  0.000000  0.000000 )  
               b(2) = (  0.000000  0.433013  0.000000 )  
               b(3) = (  0.000000  0.000000  0.295123 )  


     PseudoPot. # 1 for Cu read from file:
     /home/549/hxw549/Short/pseudopotentials/Cu.pbe-n-van_ak.UPF
     MD5 check sum: 601f7c30f7467666bec936e0661ce3e1
     Pseudo is Ultrasoft + core correction, Zval = 11.0
     Generated by new atomic code, or converted to UPF format
     Using radial grid of  867 points,  6 beta functions with: 
                l(1) =   0
                l(2) =   0
                l(3) =   1
                l(4) =   1
                l(5) =   2
                l(6) =   2
     Q(r) pseudized with  8 coefficients,  rinner =    1.400   1.400   1.400
                                                       1.400   1.400

     PseudoPot. # 2 for C  read from file:
     /home/549/hxw549/Short/pseudopotentials/C.star1s-pbe-mt_gipaw.UPF
     MD5 check sum: ef0cb3dee31bd9e4ba2a832a2c716264
     Pseudo is Norm-conserving, Zval =  5.0
     Generated by new atomic code, or converted to UPF format
     Using radial grid of 1073 points,  1 beta functions with: 
                l(1) =   0

     PseudoPot. # 3 for C  read from file:
     /home/549/hxw549/Short/pseudopotentials/C.pbe-mt_gipaw.UPF
     MD5 check sum: 5ac2f21f2c440b14befe521540822c15
     Pseudo is Norm-conserving, Zval =  4.0
     Generated by new atomic code, or converted to UPF format
     Using radial grid of 1073 points,  1 beta functions with: 
                l(1) =   0

     PseudoPot. # 4 for H  read from file:
     /home/549/hxw549/Short/pseudopotentials/H.pbe-van_ak.UPF
     MD5 check sum: 077eb6d537518a38cb46c6de387227b7
     Pseudo is Ultrasoft, Zval =  1.0
     Generated by new atomic code, or converted to UPF format
     Using radial grid of  615 points,  1 beta functions with: 
                l(1) =   0
     Q(r) pseudized with  8 coefficients,  rinner =    0.800

     atomic species   valence    mass     pseudopotential
        Cu            11.00    63.54600     Cu( 1.00)
        C_h            5.00    12.01070     C ( 1.00)
        C              4.00    12.01070     C ( 1.00)
        H              1.00     1.00783     H ( 1.00)

     No symmetry found



   Cartesian axes

     site n.     atom                  positions (alat units)
         1           Cu  tau(   1) = (   0.0023701   0.0005531   0.9912775  )
         2           Cu  tau(   2) = (   0.2522943   0.2298133   0.9926653  )
         3           Cu  tau(   3) = (   0.5025296   0.0001495   0.9914819  )
         4           Cu  tau(   4) = (   0.7524013   0.2299767   0.9924321  )
         5           Cu  tau(   5) = (   0.0025375   0.4601610   0.9926740  )
         6           Cu  tau(   6) = (   0.2531029   0.6915518   0.9925774  )
         7           Cu  tau(   7) = (   0.5026857   0.4598738   0.9931577  )
         8           Cu  tau(   8) = (   0.7528923   0.6915806   0.9923958  )
         9           Cu  tau(   9) = (   0.0033284   0.9235327   0.9914067  )
        10           Cu  tau(  10) = (   0.2536458   1.1551632   0.9916268  )
        11           Cu  tau(  11) = (   0.5031110   0.9237667   0.9921888  )
        12           Cu  tau(  12) = (   0.7532464   1.1549911   0.9918572  )
        13           Cu  tau(  13) = (   0.0031228   1.3872533   0.9902750  )
        14           Cu  tau(  14) = (   0.2531675   1.6194281   0.9899745  )
        15           Cu  tau(  15) = (   0.5035730   1.3876186   0.9919566  )
        16           Cu  tau(  16) = (   0.7530729   1.6196848   0.9896121  )
        17           Cu  tau(  17) = (   0.0031753   1.8498056   0.9901986  )
        18           Cu  tau(  18) = (   0.2527161   2.0803759   0.9900461  )
        19           Cu  tau(  19) = (   0.5026297   1.8505913   0.9887375  )
        20           Cu  tau(  20) = (   0.7525822   2.0801547   0.9906741  )
        21           Cu  tau(  21) = (   0.0029714   0.2294365   1.2412071  )
        22           Cu  tau(  22) = (   0.2530781  -0.0006502   1.2409225  )
        23           Cu  tau(  23) = (   0.5031218   0.2294308   1.2412588  )
        24           Cu  tau(  24) = (   0.7530282  -0.0002383   1.2413913  )
        25           Cu  tau(  25) = (   0.0037474   0.6915272   1.2388332  )
        26           Cu  tau(  26) = (   0.2534508   0.4599901   1.2402593  )
        27           Cu  tau(  27) = (   0.5034705   0.6915691   1.2392123  )
        28           Cu  tau(  28) = (   0.7531709   0.4594197   1.2392921  )
        29           Cu  tau(  29) = (   0.0044018   1.1568475   1.2366386  )
        30           Cu  tau(  30) = (   0.2539968   0.9236930   1.2387872  )
        31           Cu  tau(  31) = (   0.5040972   1.1559828   1.2392214  )
        32           Cu  tau(  32) = (   0.7544796   0.9232473   1.2393972  )
        33           Cu  tau(  33) = (   0.0041560   1.6193309   1.2388143  )
        34           Cu  tau(  34) = (   0.2536870   1.3888299   1.2368786  )
        35           Cu  tau(  35) = (   0.5035967   1.6211676   1.2364274  )
        36           Cu  tau(  36) = (   0.7545803   1.3894447   1.2365008  )
        37           Cu  tau(  37) = (   0.0032782   2.0794921   1.2408876  )
        38           Cu  tau(  38) = (   0.2531897   1.8496993   1.2398460  )
        39           Cu  tau(  39) = (   0.5034349   2.0792346   1.2399824  )
        40           Cu  tau(  40) = (   0.7540034   1.8497362   1.2391936  )
        41           Cu  tau(  41) = (   0.0038687  -0.0013266   1.4920112  )
        42           Cu  tau(  42) = (   0.2541654   0.2276460   1.4894066  )
        43           Cu  tau(  43) = (   0.5047584  -0.0006080   1.4915878  )
        44           Cu  tau(  44) = (   0.7547324   0.2291704   1.4909609  )
        45           Cu  tau(  45) = (   0.0039754   0.4590212   1.4890642  )
        46           Cu  tau(  46) = (   0.2548312   0.6910340   1.4878485  )
        47           Cu  tau(  47) = (   0.5047712   0.4598869   1.4896285  )
        48           Cu  tau(  48) = (   0.7553903   0.6899110   1.4873405  )
        49           Cu  tau(  49) = (   0.0070936   0.9252700   1.4857464  )
        50           Cu  tau(  50) = (   0.2544914   1.1583113   1.4855396  )
        51           Cu  tau(  51) = (   0.5052697   0.9225779   1.4862390  )
        52           Cu  tau(  52) = (   0.7578866   1.1594260   1.4829290  )
        53           Cu  tau(  53) = (   0.0061710   1.3887674   1.4884912  )
        54           Cu  tau(  54) = (   0.2537878   1.6193626   1.4889766  )
        55           Cu  tau(  55) = (   0.5051385   1.3936799   1.4817811  )
        56           Cu  tau(  56) = (   0.7568507   1.6201381   1.4883657  )
        57           Cu  tau(  57) = (   0.0050292   1.8504379   1.4908492  )
        58           Cu  tau(  58) = (   0.2543320   2.0794405   1.4914776  )
        59           Cu  tau(  59) = (   0.5047577   1.8492729   1.4900454  )
        60           Cu  tau(  60) = (   0.7543994   2.0791456   1.4919649  )
        61           Cu  tau(  61) = (   0.0047913   0.2306247   1.7402186  )
        62           Cu  tau(  62) = (   0.2550961   0.0001435   1.7427744  )
        63           Cu  tau(  63) = (   0.5057528   0.2283734   1.7411779  )
        64           Cu  tau(  64) = (   0.7561085  -0.0000909   1.7422458  )
        65           Cu  tau(  65) = (   0.0053721   0.6896092   1.7355837  )
        66           Cu  tau(  66) = (   0.2567127   0.4576389   1.7348078  )
        67           Cu  tau(  67) = (   0.5075110   0.6951879   1.7408955  )
        68           Cu  tau(  68) = (   0.7535993   0.4595840   1.7396673  )
        69           Cu  tau(  69) = (   0.0120203   1.1589231   1.7404964  )
        70           Cu  tau(  70) = (   0.2583518   0.9233354   1.7346766  )
        71           Cu  tau(  71) = (   0.5072397   1.1632500   1.7209039  )
        72           Cu  tau(  72) = (   0.7653629   0.9287559   1.7233979  )
        73           Cu  tau(  73) = (   0.0075763   1.6181725   1.7390357  )
        74           Cu  tau(  74) = (   0.2591149   1.3887432   1.7382630  )
        75           Cu  tau(  75) = (   0.5086521   1.6186265   1.7374447  )
        76           Cu  tau(  76) = (   0.7595798   1.3867089   1.7354095  )
        77           Cu  tau(  77) = (   0.0062193   2.0789308   1.7432689  )
        78           Cu  tau(  78) = (   0.2567959   1.8486716   1.7397377  )
        79           Cu  tau(  79) = (   0.5057943   2.0797658   1.7420088  )
        80           Cu  tau(  80) = (   0.7574506   1.8487447   1.7412123  )
        81           Cu  tau(  81) = (   0.0082092   0.0037877   1.9879006  )
        82           Cu  tau(  82) = (   0.2577954   0.2331451   1.9898915  )
        83           Cu  tau(  83) = (   0.5041099  -0.0007611   1.9906134  )
        84           Cu  tau(  84) = (   0.7525444   0.2285047   1.9906828  )
        85           Cu  tau(  85) = (   0.0021013   0.4544026   1.9933688  )
        86           Cu  tau(  86) = (   0.2452862   0.6835861   1.9744261  )
        87           Cu  tau(  87) = (   0.5057712   0.4603167   1.9876923  )
        88           Cu  tau(  88) = (   0.7597420   0.6875193   1.9843476  )
        89           Cu  tau(  89) = (  -0.0020278   0.9227397   1.9804540  )
        90           Cu  tau(  90) = (   0.2658969   1.1508642   1.9808554  )
        91           Cu  tau(  91) = (   0.5535786   0.9522431   1.9653777  )
        92           Cu  tau(  92) = (   0.7814193   1.1797657   1.9977810  )
        93           Cu  tau(  93) = (   0.0275559   1.3952747   1.9930356  )
        94           Cu  tau(  94) = (   0.2664933   1.6238450   1.9869247  )
        95           Cu  tau(  95) = (   0.5089217   1.3860883   1.9818804  )
        96           Cu  tau(  96) = (   0.7605104   1.6117712   1.9851316  )
        97           Cu  tau(  97) = (   0.0059979   1.8447571   1.9877681  )
        98           Cu  tau(  98) = (   0.2555181   2.0758967   1.9879824  )
        99           Cu  tau(  99) = (   0.5132582   1.8489597   1.9856103  )
       100           Cu  tau( 100) = (   0.7595416   2.0816111   1.9885779  )
       101           C   tau( 101) = (  -0.0103769   0.0944376   2.3890921  )
       102           C   tau( 102) = (  -0.0105203   0.2864691   2.4063589  )
       103           C   tau( 103) = (   0.1562699  -0.0021316   2.3849102  )
       104           C   tau( 104) = (   0.1556573   0.3820899   2.4221379  )
       105           C   tau( 105) = (   0.3226180   0.0944783   2.3904494  )
       106           C   tau( 106) = (   0.3223383   0.2862627   2.4088131  )
       107           C   tau( 107) = (   0.4895262  -0.0019479   2.3822011  )
       108           C   tau( 108) = (   0.4890551   0.3830602   2.4146001  )
       109           C   tau( 109) = (   0.6564742   0.0947236   2.3868576  )
       110           C   tau( 110) = (   0.6561136   0.2868244   2.4023497  )
       111           C   tau( 111) = (   0.8229854  -0.0018807   2.3819412  )
       112           C   tau( 112) = (   0.8228886   0.3824320   2.4140750  )
       113           C   tau( 113) = (  -0.0113374   0.6701957   2.4479895  )
       114           C   tau( 114) = (  -0.0122261   0.8629609   2.4539182  )
       115           C   tau( 115) = (   0.1552772   0.5730334   2.4485801  )
       116           C   tau( 116) = (   0.1541436   0.9597968   2.4617561  )
       117           C   tau( 117) = (   0.3213128   0.6692623   2.4599181  )
       118           C   tau( 118) = (   0.3184984   0.8611734   2.4642354  )
       119           C   tau( 119) = (   0.4884460   0.5740072   2.4346705  )
       120           C   tau( 120) = (   0.4827484   0.9556609   2.3894952  )
       121           C_h tau( 121) = (   0.4216377   0.9238752   2.1851263  )
       122           H   tau( 122) = (   0.4104643   0.7731797   2.1656364  )
       123           H   tau( 123) = (   0.2798076   0.9763551   2.1781611  )
       124           C   tau( 124) = (   0.6562846   0.6708059   2.4312793  )
       125           C   tau( 125) = (   0.6576716   0.8611452   2.4235509  )
       126           C   tau( 126) = (   0.8230035   0.5740997   2.4324330  )
       127           C   tau( 127) = (   0.8210756   0.9581713   2.4305772  )
       128           C   tau( 128) = (  -0.0108793   1.2468637   2.4107300  )
       129           C   tau( 129) = (  -0.0105860   1.4397120   2.3925802  )
       130           C   tau( 130) = (   0.1550752   1.1519598   2.4318622  )
       131           C   tau( 131) = (   0.1559600   1.5365928   2.3915931  )
       132           C   tau( 132) = (   0.3225252   1.2490795   2.4182764  )
       133           C   tau( 133) = (   0.3224784   1.4410472   2.4020022  )
       134           C   tau( 134) = (   0.4882033   1.1552145   2.4137647  )
       135           C   tau( 135) = (   0.4891463   1.5364117   2.3919873  )
       136           C   tau( 136) = (   0.6543677   1.2476657   2.4045687  )
       137           C   tau( 137) = (   0.6555603   1.4404126   2.3944468  )
       138           C   tau( 138) = (   0.8223089   1.1510513   2.4117753  )
       139           C   tau( 139) = (   0.8224651   1.5358903   2.3850960  )
       140           C   tau( 140) = (  -0.0103791   1.8251840   2.3752745  )
       141           C   tau( 141) = (  -0.0101573   2.0179628   2.3758076  )
       142           C   tau( 142) = (   0.1564209   1.7289726   2.3810649  )
       143           C   tau( 143) = (   0.1564182   2.1145480   2.3773901  )
       144           C   tau( 144) = (   0.3231115   1.8252836   2.3819357  )
       145           C   tau( 145) = (   0.3233013   2.0180263   2.3790683  )
       146           C   tau( 146) = (   0.4894996   1.7290179   2.3840607  )
       147           C   tau( 147) = (   0.4898444   2.1146176   2.3799633  )
       148           C   tau( 148) = (   0.6561199   1.8251554   2.3789644  )
       149           C   tau( 149) = (   0.6562931   2.0180054   2.3773154  )
       150           C   tau( 150) = (   0.8226788   1.7285066   2.3770501  )
       151           C   tau( 151) = (   0.8231952   2.1146619   2.3757520  )

     number of k points=     6  gaussian smearing, width (Ry)=  0.1000
                       cart. coord. in units 2pi/alat
        k(    1) = (   0.0000000   0.0000000   0.0000000), wk =   0.2500000
        k(    2) = (   0.0000000  -0.2165064   0.0000000), wk =   0.2500000
        k(    3) = (   0.2500000   0.0000000   0.0000000), wk =   0.5000000
        k(    4) = (   0.2500000  -0.2165064   0.0000000), wk =   0.5000000
        k(    5) = (  -0.5000000   0.0000000   0.0000000), wk =   0.2500000
        k(    6) = (  -0.5000000  -0.2165064   0.0000000), wk =   0.2500000

     Dense  grid:  2050409 G-vectors     FFT dimensions: (  80, 192, 270)

     Largest allocated arrays     est. size (Mb)     dimensions
        Kohn-Sham Wavefunctions        54.73 Mb     (    4604,  779)
        NL pseudopotentials           130.04 Mb     (    4604, 1851)
        Each V/rho on FFT grid          1.17 Mb     (   76800)
        Each G-vector array             0.28 Mb     (   36616)
        G-vector shells                 0.14 Mb     (   17932)
     Largest temporary arrays     est. size (Mb)     dimensions
        Auxiliary wavefunctions       218.90 Mb     (    4604, 3116)
        Each subspace H/S matrix        5.92 Mb     (     623,  623)
        Each <psi_i|beta_j> matrix     22.00 Mb     (    1851,  779)
        Arrays for rho mixing           9.38 Mb     (   76800,    8)

     Initial potential from superposition of free atoms
     Check: negative starting charge=   -0.001827

     starting charge 1272.31749, renormalised to 1298.00000

     negative rho (up, down):  1.864E-03 0.000E+00
     Starting wfc are 1294 randomized atomic wfcs

     total cpu time spent up to now is      107.4 secs

     Self-consistent Calculation

     iteration #  1     ecut=    80.00 Ry     beta=0.70
     Davidson diagonalization with overlap
     c_bands:  4 eigenvalues not converged
     c_bands:  2 eigenvalues not converged
     c_bands:  4 eigenvalues not converged
     c_bands:  1 eigenvalues not converged
     c_bands:  4 eigenvalues not converged
     c_bands:  1 eigenvalues not converged
     ethr =  1.00E-04,  avg # of iterations = 40.0

     negative rho (up, down):  2.553E+01 0.000E+00

     total cpu time spent up to now is     2204.0 secs

     total energy              =   -9683.75143037 Ry
     Harris-Foulkes estimate   =  -17489.80667804 Ry
     estimated scf accuracy    <  185821.31695698 Ry

     iteration #  2     ecut=    80.00 Ry     beta=0.70
     Davidson diagonalization with overlap
     ethr =  1.00E-02,  avg # of iterations = 11.5

     negative rho (up, down):  3.021E+01 0.000E+00

     total cpu time spent up to now is     3118.6 secs

     total energy              =  -11940.98586847 Ry
     Harris-Foulkes estimate   =  -13727.26390753 Ry
     estimated scf accuracy    <   31065.20250186 Ry

     iteration #  3     ecut=    80.00 Ry     beta=0.70
     Davidson diagonalization with overlap
     ethr =  1.00E-02,  avg # of iterations =  8.3

     negative rho (up, down):  3.107E+01 0.000E+00

     total cpu time spent up to now is     3644.8 secs

     total energy              =  -12423.34029383 Ry
     Harris-Foulkes estimate   =  -13504.08451091 Ry
     estimated scf accuracy    <    6020.68954631 Ry

     iteration #  4     ecut=    80.00 Ry     beta=0.70
     Davidson diagonalization with overlap
     ethr =  1.00E-02,  avg # of iterations =  5.8

     negative rho (up, down):  2.109E+01 0.000E+00

     total cpu time spent up to now is     4201.8 secs

     total energy              =  -12842.18296738 Ry
     Harris-Foulkes estimate   =  -13084.89669863 Ry
     estimated scf accuracy    <     918.47370830 Ry

     iteration #  5     ecut=    80.00 Ry     beta=0.70
     Davidson diagonalization with overlap
     ethr =  1.00E-02,  avg # of iterations =  2.8

     negative rho (up, down):  1.797E+01 0.000E+00

     total cpu time spent up to now is     4459.1 secs

     total energy              =  -12859.13832396 Ry
     Harris-Foulkes estimate   =  -12919.78884044 Ry
     estimated scf accuracy    <    1410.97475500 Ry

     iteration #  6     ecut=    80.00 Ry     beta=0.70
     Davidson diagonalization with overlap
     ethr =  1.00E-02,  avg # of iterations =  1.0

     negative rho (up, down):  1.228E+01 0.000E+00

     total cpu time spent up to now is     4624.2 secs

     total energy              =  -12829.57872012 Ry
     Harris-Foulkes estimate   =  -12886.40425864 Ry
     estimated scf accuracy    <     586.11643332 Ry

     iteration #  7     ecut=    80.00 Ry     beta=0.70
     Davidson diagonalization with overlap
     ethr =  1.00E-02,  avg # of iterations =  2.0

     negative rho (up, down):  8.709E+00 0.000E+00

     total cpu time spent up to now is     4802.5 secs

     total energy              =  -12811.84309669 Ry
     Harris-Foulkes estimate   =  -12847.81640871 Ry
     estimated scf accuracy    <     531.76479272 Ry

     iteration #  8     ecut=    80.00 Ry     beta=0.70
     Davidson diagonalization with overlap
     ethr =  1.00E-02,  avg # of iterations =  2.0

     negative rho (up, down):  7.393E+00 0.000E+00

     total cpu time spent up to now is     4979.6 secs

     total energy              =  -12797.84153309 Ry
     Harris-Foulkes estimate   =  -12825.21670809 Ry
     estimated scf accuracy    <     616.46692236 Ry

     iteration #  9     ecut=    80.00 Ry     beta=0.70
     Davidson diagonalization with overlap
     ethr =  1.00E-02,  avg # of iterations =  1.5

     negative rho (up, down):  6.545E+00 0.000E+00

     total cpu time spent up to now is     5150.1 secs

     total energy              =  -12793.41610514 Ry
     Harris-Foulkes estimate   =  -12809.47675355 Ry
     estimated scf accuracy    <     335.24862545 Ry

     iteration # 10     ecut=    80.00 Ry     beta=0.70
     Davidson diagonalization with overlap
     ethr =  1.00E-02,  avg # of iterations =  1.5

     negative rho (up, down):  4.045E+00 0.000E+00

     total cpu time spent up to now is     5320.4 secs

     total energy              =  -12772.88502572 Ry
     Harris-Foulkes estimate   =  -12799.75086454 Ry
     estimated scf accuracy    <     220.96121545 Ry

     iteration # 11     ecut=    80.00 Ry     beta=0.70
     Davidson diagonalization with overlap
     ethr =  1.00E-02,  avg # of iterations =  2.2

     negative rho (up, down):  2.596E+00 0.000E+00

     total cpu time spent up to now is     5501.3 secs

     total energy              =  -12756.75756906 Ry
     Harris-Foulkes estimate   =  -12783.46618522 Ry
     estimated scf accuracy    <     279.55279859 Ry

     iteration # 12     ecut=    80.00 Ry     beta=0.70
     Davidson diagonalization with overlap
     ethr =  1.00E-02,  avg # of iterations =  2.0

     negative rho (up, down):  4.650E-01 0.000E+00

     total cpu time spent up to now is     5679.5 secs

     total energy              =  -12746.59541978 Ry
     Harris-Foulkes estimate   =  -12768.35311880 Ry
     estimated scf accuracy    <     108.61234532 Ry

     iteration # 13     ecut=    80.00 Ry     beta=0.70
     Davidson diagonalization with overlap
     ethr =  8.37E-03,  avg # of iterations =  1.3

     negative rho (up, down):  1.261E+00 0.000E+00

     total cpu time spent up to now is     5848.6 secs

     total energy              =  -12737.40426604 Ry
     Harris-Foulkes estimate   =  -12749.97539241 Ry
     estimated scf accuracy    <      98.11308526 Ry

     iteration # 14     ecut=    80.00 Ry     beta=0.70
     Davidson diagonalization with overlap
     ethr =  7.56E-03,  avg # of iterations =  2.2

     negative rho (up, down):  3.733E+00 0.000E+00

     total cpu time spent up to now is     6027.0 secs

     total energy              =  -12732.54970587 Ry
     Harris-Foulkes estimate   =  -12741.66378478 Ry
     estimated scf accuracy    <      57.21439734 Ry

     iteration # 15     ecut=    80.00 Ry     beta=0.70
     Davidson diagonalization with overlap
     ethr =  4.41E-03,  avg # of iterations =  3.0

     negative rho (up, down):  4.298E+00 0.000E+00

     total cpu time spent up to now is     6215.9 secs

     total energy              =  -12728.86477804 Ry
     Harris-Foulkes estimate   =  -12735.40131846 Ry
     estimated scf accuracy    <      63.43895543 Ry

     iteration # 16     ecut=    80.00 Ry     beta=0.70
     Davidson diagonalization with overlap
     ethr =  4.41E-03,  avg # of iterations =  1.5

     negative rho (up, down):  5.505E+00 0.000E+00

     total cpu time spent up to now is     6386.0 secs

     total energy              =  -12728.92110357 Ry
     Harris-Foulkes estimate   =  -12730.95402858 Ry
     estimated scf accuracy    <      23.70650870 Ry

     iteration # 17     ecut=    80.00 Ry     beta=0.70
     Davidson diagonalization with overlap
     ethr =  1.83E-03,  avg # of iterations =  5.5

     negative rho (up, down):  4.587E+00 0.000E+00

     total cpu time spent up to now is     6605.3 secs

     total energy              =  -12727.34182243 Ry
     Harris-Foulkes estimate   =  -12729.38105818 Ry
     estimated scf accuracy    <      14.11081858 Ry

     iteration # 18     ecut=    80.00 Ry     beta=0.70
     Davidson diagonalization with overlap
     ethr =  1.09E-03,  avg # of iterations =  4.5

     negative rho (up, down):  3.754E+00 0.000E+00

     total cpu time spent up to now is     6812.2 secs

     total energy              =  -12726.67510233 Ry
     Harris-Foulkes estimate   =  -12727.75460514 Ry
     estimated scf accuracy    <      11.97985768 Ry

     iteration # 19     ecut=    80.00 Ry     beta=0.70
     Davidson diagonalization with overlap
     ethr =  9.23E-04,  avg # of iterations =  1.3

     negative rho (up, down):  2.867E+00 0.000E+00

     total cpu time spent up to now is     6981.5 secs

     total energy              =  -12725.95074332 Ry
     Harris-Foulkes estimate   =  -12726.90182061 Ry
     estimated scf accuracy    <       9.26762262 Ry

     iteration # 20     ecut=    80.00 Ry     beta=0.70
     Davidson diagonalization with overlap
     ethr =  7.14E-04,  avg # of iterations =  1.0

     negative rho (up, down):  1.755E+00 0.000E+00

     total cpu time spent up to now is     7147.1 secs

     total energy              =  -12724.13840712 Ry
     Harris-Foulkes estimate   =  -12726.15074294 Ry
     estimated scf accuracy    <       7.45005360 Ry

     iteration # 21     ecut=    80.00 Ry     beta=0.70
     Davidson diagonalization with overlap
     ethr =  5.74E-04,  avg # of iterations =  3.7

     negative rho (up, down):  1.580E+00 0.000E+00

     total cpu time spent up to now is     7343.8 secs

     total energy              =  -12723.73096746 Ry
     Harris-Foulkes estimate   =  -12724.28543994 Ry
     estimated scf accuracy    <       5.70659346 Ry

     iteration # 22     ecut=    80.00 Ry     beta=0.70
     Davidson diagonalization with overlap
     ethr =  4.40E-04,  avg # of iterations =  3.7

     negative rho (up, down):  9.106E-01 0.000E+00

     total cpu time spent up to now is     7541.6 secs

     total energy              =  -12722.09640028 Ry
     Harris-Foulkes estimate   =  -12723.88966278 Ry
     estimated scf accuracy    <       5.21438173 Ry

     iteration # 23     ecut=    80.00 Ry     beta=0.70
     Davidson diagonalization with overlap
     ethr =  4.02E-04,  avg # of iterations =  7.5

     negative rho (up, down):  2.160E-01 0.000E+00

     total cpu time spent up to now is     7787.4 secs

     total energy              =  -12721.32533488 Ry
     Harris-Foulkes estimate   =  -12722.19775567 Ry
     estimated scf accuracy    <       3.81812139 Ry

     iteration # 24     ecut=    80.00 Ry     beta=0.70
     Davidson diagonalization with overlap
     ethr =  2.94E-04,  avg # of iterations =  6.2

     negative rho (up, down):  3.236E-01 0.000E+00

     total cpu time spent up to now is     8016.2 secs

     total energy              =  -12720.92493524 Ry
     Harris-Foulkes estimate   =  -12721.66077949 Ry
     estimated scf accuracy    <       3.61040144 Ry

     iteration # 25     ecut=    80.00 Ry     beta=0.70
     Davidson diagonalization with overlap
     ethr =  2.78E-04,  avg # of iterations =  3.7

     negative rho (up, down):  8.636E-01 0.000E+00

     total cpu time spent up to now is     8213.9 secs

     total energy              =  -12720.89969951 Ry
     Harris-Foulkes estimate   =  -12721.21269850 Ry
     estimated scf accuracy    <       1.53000409 Ry

     iteration # 26     ecut=    80.00 Ry     beta=0.70
     Davidson diagonalization with overlap
     ethr =  1.18E-04,  avg # of iterations =  8.2

     negative rho (up, down):  6.109E-01 0.000E+00

     total cpu time spent up to now is     8470.2 secs

     total energy              =  -12720.79910614 Ry
     Harris-Foulkes estimate   =  -12721.00297301 Ry
     estimated scf accuracy    <       0.76009460 Ry

     iteration # 27     ecut=    80.00 Ry     beta=0.70
     Davidson diagonalization with overlap
     ethr =  5.86E-05,  avg # of iterations =  9.0

     negative rho (up, down):  5.546E-01 0.000E+00

     total cpu time spent up to now is     8757.2 secs

     total energy              =  -12720.72414276 Ry
     Harris-Foulkes estimate   =  -12720.86607875 Ry
     estimated scf accuracy    <       1.03551513 Ry

     iteration # 28     ecut=    80.00 Ry     beta=0.70
     Davidson diagonalization with overlap
     ethr =  5.86E-05,  avg # of iterations =  6.7

     negative rho (up, down):  1.916E-01 0.000E+00

     total cpu time spent up to now is     8998.9 secs

     total energy              =  -12720.74981300 Ry
     Harris-Foulkes estimate   =  -12720.78258991 Ry
     estimated scf accuracy    <       0.16461416 Ry

     iteration # 29     ecut=    80.00 Ry     beta=0.70
     Davidson diagonalization with overlap
     c_bands:  2 eigenvalues not converged
     ethr =  1.27E-05,  avg # of iterations = 12.5

     negative rho (up, down):  3.906E-02 0.000E+00

     total cpu time spent up to now is     9328.2 secs

     total energy              =  -12720.76424577 Ry
     Harris-Foulkes estimate   =  -12720.76615043 Ry
     estimated scf accuracy    <       0.06690935 Ry

     iteration # 30     ecut=    80.00 Ry     beta=0.70
     Davidson diagonalization with overlap
     ethr =  5.15E-06,  avg # of iterations = 14.8

     negative rho (up, down):  3.394E-02 0.000E+00

     total cpu time spent up to now is     9681.2 secs

     total energy              =  -12720.76567862 Ry
     Harris-Foulkes estimate   =  -12720.76869676 Ry
     estimated scf accuracy    <       0.02363177 Ry

     iteration # 31     ecut=    80.00 Ry     beta=0.70
     Davidson diagonalization with overlap
     ethr =  1.82E-06,  avg # of iterations = 10.7

     negative rho (up, down):  2.322E-02 0.000E+00

     total cpu time spent up to now is     9981.2 secs

     total energy              =  -12720.76646115 Ry
     Harris-Foulkes estimate   =  -12720.76909440 Ry
     estimated scf accuracy    <       0.01786937 Ry

     iteration # 32     ecut=    80.00 Ry     beta=0.70
     Davidson diagonalization with overlap
     c_bands:  1 eigenvalues not converged
     ethr =  1.38E-06,  avg # of iterations =  9.7

     negative rho (up, down):  2.629E-02 0.000E+00

     total cpu time spent up to now is    10267.9 secs

     total energy              =  -12720.76778847 Ry
     Harris-Foulkes estimate   =  -12720.76775240 Ry
     estimated scf accuracy    <       0.00539490 Ry

     iteration # 33     ecut=    80.00 Ry     beta=0.70
     Davidson diagonalization with overlap
     c_bands:  1 eigenvalues not converged
     ethr =  4.16E-07,  avg # of iterations = 10.0

     negative rho (up, down):  1.166E-02 0.000E+00

     total cpu time spent up to now is    10555.2 secs

     total energy              =  -12720.76778038 Ry
     Harris-Foulkes estimate   =  -12720.76815084 Ry
     estimated scf accuracy    <       0.00075790 Ry

     iteration # 34     ecut=    80.00 Ry     beta=0.70
     Davidson diagonalization with overlap
     ethr =  5.84E-08,  avg # of iterations = 13.0

     negative rho (up, down):  1.235E-02 0.000E+00

     total cpu time spent up to now is    10883.9 secs

     total energy              =  -12720.76780055 Ry
     Harris-Foulkes estimate   =  -12720.76783250 Ry
     estimated scf accuracy    <       0.00025310 Ry

     iteration # 35     ecut=    80.00 Ry     beta=0.70
     Davidson diagonalization with overlap
     ethr =  1.95E-08,  avg # of iterations =  7.7

     negative rho (up, down):  9.186E-03 0.000E+00

     total cpu time spent up to now is    11160.9 secs

     total energy              =  -12720.76775807 Ry
     Harris-Foulkes estimate   =  -12720.76784268 Ry
     estimated scf accuracy    <       0.00016203 Ry

     iteration # 36     ecut=    80.00 Ry     beta=0.70
     Davidson diagonalization with overlap
     ethr =  1.25E-08,  avg # of iterations =  4.7

     negative rho (up, down):  3.116E-03 0.000E+00

     total cpu time spent up to now is    11379.3 secs

     total energy              =  -12720.76768616 Ry
     Harris-Foulkes estimate   =  -12720.76777252 Ry
     estimated scf accuracy    <       0.00002706 Ry

     iteration # 37     ecut=    80.00 Ry     beta=0.70
     Davidson diagonalization with overlap
     ethr =  2.08E-09,  avg # of iterations = 11.5

     negative rho (up, down):  2.959E-03 0.000E+00

     total cpu time spent up to now is    11717.3 secs

     total energy              =  -12720.76768854 Ry
     Harris-Foulkes estimate   =  -12720.76769111 Ry
     estimated scf accuracy    <       0.00001073 Ry

     iteration # 38     ecut=    80.00 Ry     beta=0.70
     Davidson diagonalization with overlap
     ethr =  8.27E-10,  avg # of iterations =  2.2

     negative rho (up, down):  2.505E-03 0.000E+00

     total cpu time spent up to now is    11902.7 secs

     total energy              =  -12720.76768637 Ry
     Harris-Foulkes estimate   =  -12720.76768965 Ry
     estimated scf accuracy    <       0.00000229 Ry

     iteration # 39     ecut=    80.00 Ry     beta=0.70
     Davidson diagonalization with overlap
     ethr =  1.76E-10,  avg # of iterations =  2.7

     negative rho (up, down):  2.043E-03 0.000E+00

     total cpu time spent up to now is    12108.6 secs

     total energy              =  -12720.76768628 Ry
     Harris-Foulkes estimate   =  -12720.76768668 Ry
     estimated scf accuracy    <       0.00000125 Ry

     iteration # 40     ecut=    80.00 Ry     beta=0.70
     Davidson diagonalization with overlap
     ethr =  9.61E-11,  avg # of iterations =  2.0

     negative rho (up, down):  1.980E-03 0.000E+00

     total cpu time spent up to now is    12292.0 secs

     total energy              =  -12720.76768666 Ry
     Harris-Foulkes estimate   =  -12720.76768640 Ry
     estimated scf accuracy    <       0.00000023 Ry

     iteration # 41     ecut=    80.00 Ry     beta=0.70
     Davidson diagonalization with overlap
     ethr =  1.77E-11,  avg # of iterations =  2.5

     negative rho (up, down):  1.997E-03 0.000E+00

     total cpu time spent up to now is    12490.9 secs

     total energy              =  -12720.76768678 Ry
     Harris-Foulkes estimate   =  -12720.76768669 Ry
     estimated scf accuracy    <       0.00000008 Ry

     iteration # 42     ecut=    80.00 Ry     beta=0.70
     Davidson diagonalization with overlap
     ethr =  6.32E-12,  avg # of iterations =  3.0

     negative rho (up, down):  2.013E-03 0.000E+00

     total cpu time spent up to now is    12692.6 secs

     total energy              =  -12720.76768688 Ry
     Harris-Foulkes estimate   =  -12720.76768679 Ry
     estimated scf accuracy    <       0.00000005 Ry

     iteration # 43     ecut=    80.00 Ry     beta=0.70
     Davidson diagonalization with overlap
     ethr =  3.57E-12,  avg # of iterations =  3.0

     negative rho (up, down):  2.024E-03 0.000E+00

     total cpu time spent up to now is    12892.2 secs

     total energy              =  -12720.76768689 Ry
     Harris-Foulkes estimate   =  -12720.76768689 Ry
     estimated scf accuracy    <       0.00000002 Ry

     iteration # 44     ecut=    80.00 Ry     beta=0.70
     Davidson diagonalization with overlap
     ethr =  1.45E-12,  avg # of iterations =  2.0

     negative rho (up, down):  2.037E-03 0.000E+00

     total cpu time spent up to now is    13068.5 secs

     End of self-consistent calculation

          k = 0.0000 0.0000 0.0000 (256287 PWs)   bands (ev):

   -16.3551 -16.0494 -15.8749 -15.0238 -14.7799 -14.4557 -14.2969 -14.1562
   -13.9412 -13.9213 -13.9159 -13.3266 -12.9899 -12.9302 -12.8830 -12.8659
   -12.8463 -12.1189 -11.1972 -11.1831 -11.1676 -11.0706 -10.8989  -9.9690
    -9.3235  -9.3128  -9.2913  -9.2819  -8.4735  -8.4098  -8.3981  -8.3971
    -7.5057  -7.4557  -7.4342  -7.3646  -7.3593  -7.3297  -7.3181  -7.2980
    -6.1444  -6.0444  -5.9913  -5.8357  -5.7875  -5.7383  -5.6716  -5.6517
    -5.6223  -5.4993  -5.4757  -5.3527  -5.0389  -4.9838  -4.6019  -4.5377
    -4.4624  -4.3881  -4.3379  -4.1783  -4.1550  -4.0316  -4.0174  -3.9767
    -3.8621  -3.5951  -3.4095  -3.4022  -3.3640  -3.3507  -3.3364  -3.2866
    -3.1994  -3.1641  -3.1556  -3.1059  -3.0623  -3.0302  -3.0177  -3.0095
    -2.9976  -2.9847  -2.8156  -2.8031  -2.7807  -2.7031  -2.6822  -2.5980
    -2.5755  -2.5680  -2.5357  -2.5264  -2.4607  -2.4129  -2.3358  -2.3270
    -2.3136  -2.2823  -2.2014  -2.1940  -2.1854  -2.1812  -2.1662  -2.1630
    -2.1570  -2.1507  -2.0314  -2.0295  -2.0257  -2.0217  -1.9674  -1.9230
    -1.9039  -1.8542  -1.8258  -1.8054  -1.7809  -1.7496  -1.7444  -1.7346
    -1.7309  -1.7073  -1.6919  -1.6796  -1.6716  -1.6652  -1.6512  -1.6285
    -1.6043  -1.5889  -1.5791  -1.5631  -1.5460  -1.5401  -1.5356  -1.5308
    -1.5260  -1.5237  -1.5182  -1.4700  -1.4477  -1.4191  -1.3734  -1.3611
    -1.3505  -1.3244  -1.3149  -1.3078  -1.2755  -1.2687  -1.2586  -1.2499
    -1.2280  -1.2127  -1.2031  -1.1970  -1.1844  -1.1738  -1.1723  -1.1702
    -1.0798  -1.0736  -1.0680  -1.0671  -1.0611  -1.0536  -1.0515  -1.0460
    -1.0390  -1.0353  -1.0345  -1.0287  -1.0260  -1.0208  -1.0098  -1.0078
    -1.0032  -0.9763  -0.9559  -0.9544  -0.9470  -0.9345  -0.9273  -0.9233
    -0.9166  -0.8848  -0.8798  -0.8749  -0.8736  -0.8710  -0.8650  -0.8639
    -0.8633  -0.8610  -0.8581  -0.8560  -0.8521  -0.8489  -0.8459  -0.8435
    -0.8384  -0.8250  -0.7992  -0.7927  -0.7820  -0.7343  -0.7027  -0.6972
    -0.6948  -0.6915  -0.6741  -0.6720  -0.6551  -0.6523  -0.6463  -0.6375
    -0.6324  -0.6193  -0.6115  -0.6086  -0.6039  -0.5971  -0.5852  -0.5780
    -0.5748  -0.5730  -0.5702  -0.5611  -0.5556  -0.5509  -0.5381  -0.5045
    -0.5024  -0.4959  -0.4638  -0.4547  -0.4523  -0.4463  -0.4384  -0.4331
    -0.4321  -0.4227  -0.4197  -0.4169  -0.4143  -0.4114  -0.4079  -0.4052
    -0.4009  -0.3987  -0.3978  -0.3933  -0.3865  -0.3725  -0.3625  -0.3591
    -0.3498  -0.3156  -0.3145  -0.3088  -0.3040  -0.3004  -0.2899  -0.2777
    -0.2755  -0.2731  -0.2717  -0.2644  -0.2619  -0.2554  -0.2508  -0.2428
    -0.2424  -0.2407  -0.2369  -0.2358  -0.2284  -0.2260  -0.2200  -0.2116
    -0.2100  -0.2019  -0.2012  -0.1947  -0.1892  -0.1850  -0.1673  -0.1524
    -0.1488  -0.1352  -0.1300  -0.1246  -0.1092  -0.0995  -0.0921  -0.0832
    -0.0752  -0.0735  -0.0717  -0.0664  -0.0654  -0.0609  -0.0518  -0.0444
    -0.0308  -0.0280  -0.0191  -0.0058  -0.0036   0.0046   0.0071   0.0091
     0.0142   0.0191   0.0247   0.0283   0.0329   0.0348   0.0399   0.0407
     0.0445   0.0500   0.0546   0.0585   0.0633   0.0759   0.0791   0.0846
     0.0900   0.0953   0.1012   0.1187   0.1275   0.1388   0.1447   0.1613
     0.1617   0.1711   0.1762   0.1936   0.2013   0.2134   0.2173   0.2195
     0.2368   0.2402   0.2416   0.2457   0.2506   0.2534   0.2676   0.2755
     0.2824   0.2855   0.3068   0.3198   0.3223   0.3320   0.3339   0.3370
     0.3393   0.3524   0.3634   0.3677   0.3711   0.3777   0.3849   0.3973
     0.4023   0.4098   0.4116   0.4252   0.4291   0.4343   0.4401   0.4457
     0.4520   0.4601   0.4676   0.4725   0.4831   0.4861   0.4947   0.4970
     0.5005   0.5035   0.5101   0.5120   0.5223   0.5235   0.5276   0.5346
     0.5354   0.5398   0.5434   0.5466   0.5520   0.5531   0.5548   0.5574
     0.5615   0.5690   0.5784   0.5953   0.5967   0.6008   0.6144   0.6241
     0.6266   0.6306   0.6374   0.6414   0.6464   0.6478   0.6544   0.6580
     0.6631   0.6669   0.6704   0.6726   0.6788   0.6792   0.6823   0.6871
     0.6893   0.6985   0.7020   0.7072   0.7155   0.7212   0.7272   0.7345
     0.7377   0.7390   0.7394   0.7403   0.7442   0.7482   0.7543   0.7578
     0.7615   0.7745   0.7874   0.7946   0.7993   0.8032   0.8086   0.8144
     0.8191   0.8301   0.8377   0.8395   0.8440   0.8488   0.8578   0.8622
     0.8683   0.8739   0.8774   0.8841   0.8866   0.8911   0.8974   0.9027
     0.9039   0.9091   0.9218   0.9241   0.9278   0.9312   0.9346   0.9366
     0.9494   0.9532   0.9582   0.9644   0.9702   0.9743   0.9749   0.9811
     0.9854   0.9881   0.9912   0.9940   1.0004   1.0068   1.0092   1.0183
     1.0210   1.0306   1.0325   1.0337   1.0375   1.0430   1.0476   1.0495
     1.0581   1.0616   1.0646   1.0692   1.0741   1.0766   1.0805   1.0924
     1.0966   1.1014   1.1038   1.1089   1.1105   1.1114   1.1116   1.1139
     1.1155   1.1196   1.1233   1.1267   1.1346   1.1379   1.1529   1.1630
     1.1646   1.1749   1.1798   1.1835   1.1889   1.1916   1.1950   1.2006
     1.2033   1.2060   1.2100   1.2163   1.2208   1.2239   1.2289   1.2345
     1.2400   1.2444   1.2456   1.2462   1.2494   1.2552   1.2569   1.2611
     1.2642   1.2696   1.2728   1.2763   1.2814   1.2856   1.2903   1.2931
     1.2958   1.2984   1.3016   1.3016   1.3071   1.3095   1.3116   1.3173
     1.3190   1.3338   1.3367   1.3450   1.3460   1.3493   1.3505   1.3570
     1.3625   1.3649   1.3717   1.3766   1.3794   1.3826   1.3852   1.3947
     1.4028   1.4040   1.4043   1.4118   1.4124   1.4166   1.4184   1.4195
     1.4225   1.4231   1.4272   1.4300   1.4305   1.4342   1.4402   1.4444
     1.4490   1.4517   1.4582   1.4611   1.4667   1.4691   1.4699   1.4745
     1.4877   1.5028   1.5130   1.5145   1.5234   1.5353   1.5487   1.5574
     1.5619   1.5640   1.5723   1.5745   1.5974   1.5992   1.6042   1.6145
     1.6193   1.6282   1.6308   1.6340   1.6384   1.6419   1.7713   1.8679
     1.9471   2.0771   2.0972   2.1160   2.1275   2.1551   2.1843   2.1928
     2.1964   2.2019   2.2098   2.2166   2.2308   2.2903   2.3832   2.4048
     2.4295   2.4379   2.4512   2.4751   2.4839   2.6276   2.6859   2.7242
     2.7340   2.8279   3.1608   3.1657   3.2055   3.2217   3.4921   3.5514
     3.7715   3.7780   3.8119   3.8321   3.8425   3.8511   3.8923   3.9276
     3.9395   3.9684   3.9747   3.9838   3.9918   3.9977   4.0181   4.0448
     4.1031   4.1951   4.2136   4.2740   4.3146   4.5587   4.7562   4.8252
     5.0458   5.0767   5.0961   5.2819   5.2960   5.3696   5.3956   5.6600
     5.6791   5.6895   5.7277   5.8364   5.9056   5.9495   6.2467   6.3003
     6.3258   6.4063   6.4293   6.4462   6.4604   6.4715   6.5458   6.6842
     6.7049   6.7587   6.8034   6.8348   6.8439   6.8834   6.9105   6.9360
     7.0169   7.0260   7.1007   7.1586   7.3352   7.3448   7.3547   7.4901
     7.5853   7.6169   7.6430   7.6651   7.6764   7.7569   7.8539   8.0573
     8.1169   8.1442   8.1496   8.1783   8.2011   8.2759   8.2850   8.3220
     8.3275   8.3345   8.3524   8.3808   8.4779   8.5411   8.5771   8.5834
     8.6102   8.6271   8.6730   8.6945   8.7137   8.7535   8.8195   8.8380
     8.8406   8.8455   8.9618   8.9962   9.0321   9.0413   9.0853   9.1279
     9.1616   9.2313   9.2668   9.3082   9.4674   9.4966   9.5520   9.5890
     9.6141   9.6766   9.7072   9.7608   9.8292   9.8935  10.0315  10.0356
    10.0441  10.1656  10.2174

          k = 0.0000-0.2165 0.0000 (256176 PWs)   bands (ev):

   -16.3122 -16.1953 -15.5916 -15.4145 -14.6163 -14.2369 -14.2349 -14.1677
   -14.0319 -13.9651 -13.6721 -13.5055 -13.4803 -13.4582 -12.6742 -12.1070
   -12.0883 -12.0764 -11.9395 -11.8911 -11.5450 -10.2101 -10.1947 -10.1895
   -10.1249  -8.9625  -8.9485  -8.8079  -8.7910  -8.7843  -8.7596  -8.0202
    -7.9496  -7.9397  -7.9332  -6.8979  -6.8244  -6.8005  -6.7303  -6.7163
    -6.6437  -6.6172  -6.6022  -5.9958  -5.9083  -5.8906  -5.8548  -5.6425
    -5.3405  -5.0379  -4.9946  -4.9471  -4.9217  -4.8552  -4.8197  -4.7630
    -4.6702  -4.4713  -4.4273  -4.4134  -4.3564  -4.3367  -4.1663  -3.9038
    -3.7902  -3.6895  -3.4345  -3.3160  -3.3150  -3.2949  -3.2777  -3.2365
    -3.1174  -3.0958  -3.0534  -3.0274  -3.0255  -2.9524  -2.8817  -2.8657
    -2.8295  -2.8042  -2.6910  -2.6772  -2.6346  -2.6229  -2.5961  -2.5904
    -2.5882  -2.5858  -2.5676  -2.5543  -2.5521  -2.5169  -2.4405  -2.4316
    -2.3848  -2.2904  -2.2649  -2.2549  -2.2185  -2.2097  -2.2083  -2.1816
    -2.1416  -2.1294  -2.1249  -2.0887  -2.0024  -1.9934  -1.9798  -1.9717
    -1.9687  -1.9608  -1.8882  -1.8595  -1.8295  -1.7860  -1.7768  -1.7607
    -1.7519  -1.7488  -1.7442  -1.7396  -1.7323  -1.7230  -1.7049  -1.6900
    -1.6605  -1.6521  -1.6431  -1.6261  -1.4935  -1.4828  -1.4815  -1.4538
    -1.4384  -1.4063  -1.3852  -1.3834  -1.3689  -1.3441  -1.3328  -1.3260
    -1.3088  -1.2894  -1.2873  -1.2861  -1.2817  -1.2806  -1.2752  -1.2589
    -1.2535  -1.2412  -1.2339  -1.2325  -1.2210  -1.2128  -1.1986  -1.1888
    -1.1782  -1.1626  -1.1499  -1.1280  -1.1120  -1.1009  -1.0969  -1.0878
    -1.0643  -1.0620  -1.0592  -1.0549  -1.0516  -1.0155  -1.0090  -0.9998
    -0.9958  -0.9882  -0.9870  -0.9848  -0.9741  -0.9403  -0.9375  -0.9329
    -0.9258  -0.9196  -0.9185  -0.9133  -0.9097  -0.8932  -0.8857  -0.8720
    -0.8429  -0.8357  -0.8323  -0.8251  -0.8234  -0.8182  -0.8155  -0.8075
    -0.7992  -0.7889  -0.7762  -0.7660  -0.7616  -0.7577  -0.7493  -0.6783
    -0.6687  -0.6613  -0.6598  -0.6487  -0.6475  -0.6437  -0.6213  -0.6199
    -0.6177  -0.6149  -0.6118  -0.6060  -0.5903  -0.5801  -0.5655  -0.5561
    -0.5534  -0.5488  -0.5467  -0.5407  -0.5312  -0.5271  -0.5149  -0.5058
    -0.5009  -0.4983  -0.4918  -0.4781  -0.4656  -0.4615  -0.4573  -0.4549
    -0.4465  -0.4400  -0.4366  -0.4240  -0.3990  -0.3952  -0.3847  -0.3734
    -0.3623  -0.3578  -0.3373  -0.3317  -0.3249  -0.3207  -0.3092  -0.3047
    -0.3033  -0.3023  -0.2965  -0.2879  -0.2834  -0.2772  -0.2724  -0.2713
    -0.2626  -0.2588  -0.2528  -0.2521  -0.2510  -0.2488  -0.2420  -0.2331
    -0.2276  -0.2214  -0.2209  -0.2155  -0.2116  -0.2094  -0.2018  -0.1845
    -0.1759  -0.1669  -0.1598  -0.1538  -0.1486  -0.1444  -0.1425  -0.1343
    -0.1260  -0.1197  -0.1144  -0.1090  -0.1016  -0.0954  -0.0928  -0.0917
    -0.0884  -0.0865  -0.0820  -0.0802  -0.0755  -0.0565  -0.0356  -0.0314
    -0.0286  -0.0264  -0.0247  -0.0113  -0.0091  -0.0058  -0.0006   0.0065
     0.0085   0.0117   0.0169   0.0197   0.0232   0.0283   0.0340   0.0511
     0.0535   0.0587   0.0613   0.0655   0.0684   0.0741   0.0839   0.0862
     0.0920   0.0974   0.0990   0.1103   0.1178   0.1203   0.1249   0.1283
     0.1305   0.1345   0.1516   0.1565   0.1718   0.1728   0.1777   0.1839
     0.1924   0.2010   0.2060   0.2193   0.2213   0.2438   0.2487   0.2580
     0.2682   0.2769   0.2910   0.3067   0.3129   0.3435   0.3616   0.3716
     0.3730   0.3803   0.3904   0.3968   0.3984   0.4062   0.4155   0.4222
     0.4231   0.4277   0.4351   0.4448   0.4475   0.4498   0.4549   0.4591
     0.4624   0.4667   0.4680   0.4744   0.4767   0.4881   0.4895   0.4913
     0.5051   0.5067   0.5092   0.5115   0.5204   0.5217   0.5270   0.5273
     0.5284   0.5330   0.5349   0.5388   0.5436   0.5487   0.5509   0.5581
     0.5620   0.5655   0.5678   0.5722   0.5729   0.5777   0.5829   0.5856
     0.5912   0.5937   0.5978   0.6037   0.6173   0.6255   0.6346   0.6458
     0.6490   0.6520   0.6549   0.6567   0.6583   0.6625   0.6639   0.6722
     0.6751   0.6775   0.6809   0.6828   0.6962   0.7016   0.7079   0.7138
     0.7165   0.7209   0.7277   0.7356   0.7383   0.7463   0.7470   0.7551
     0.7595   0.7650   0.7709   0.7741   0.7814   0.7834   0.7942   0.8117
     0.8243   0.8332   0.8519   0.8620   0.8726   0.8768   0.8857   0.8872
     0.8905   0.8918   0.8939   0.9018   0.9041   0.9059   0.9084   0.9161
     0.9208   0.9229   0.9274   0.9324   0.9342   0.9435   0.9498   0.9515
     0.9554   0.9559   0.9580   0.9588   0.9627   0.9656   0.9681   0.9716
     0.9738   0.9761   0.9783   0.9790   0.9811   0.9832   0.9860   0.9884
     0.9895   0.9963   1.0067   1.0108   1.0145   1.0209   1.0223   1.0230
     1.0267   1.0287   1.0314   1.0326   1.0423   1.0432   1.0618   1.0732
     1.0818   1.0849   1.0969   1.1129   1.1164   1.1239   1.1295   1.1370
     1.1389   1.1469   1.1526   1.1584   1.1596   1.1668   1.1691   1.1717
     1.1753   1.1781   1.1812   1.1843   1.1863   1.1881   1.1925   1.1958
     1.1962   1.2046   1.2095   1.2119   1.2144   1.2166   1.2168   1.2219
     1.2239   1.2303   1.2322   1.2358   1.2450   1.2505   1.2511   1.2593
     1.2605   1.2631   1.2664   1.2705   1.2793   1.2796   1.2823   1.2863
     1.2910   1.2931   1.2967   1.3001   1.3020   1.3044   1.3130   1.3166
     1.3234   1.3244   1.3269   1.3401   1.3452   1.3492   1.3567   1.3618
     1.3652   1.3682   1.3719   1.3727   1.3771   1.3832   1.3865   1.3933
     1.3986   1.4013   1.4030   1.4059   1.4133   1.4188   1.4212   1.4279
     1.4334   1.4381   1.4388   1.4418   1.4427   1.4452   1.4475   1.4584
     1.4691   1.4752   1.4779   1.4827   1.4840   1.4905   1.5009   1.5069
     1.5103   1.5113   1.5139   1.5165   1.5265   1.5306   1.5415   1.5426
     1.5711   1.5752   1.5755   1.6241   1.6621   1.6847   1.7040   1.7186
     1.7336   1.7441   1.7493   1.7542   1.7569   1.7808   1.7884   1.7998
     1.8024   1.8163   1.8259   1.8374   1.8508   1.9542   2.2042   2.2233
     2.2349   2.3936   2.3956   2.4038   2.4504   2.4854   2.4953   2.5280
     2.5528   2.5694   2.5727   2.5818   2.6130   2.6940   2.7006   2.7341
     2.7556   2.7705   2.9088   2.9105   2.9161   3.0693   3.1596   3.1597
     3.2039   3.2150   3.3744   3.4562   3.6640   3.6944   3.9902   4.0288
     4.0374   4.1161   4.1577   4.1703   4.2154   4.2755   4.3057   4.3317
     4.3696   4.4716   4.4959   4.5822   4.6867   4.7562   4.8126   4.8671
     5.0597   5.0846   5.1534   5.2626   5.3332   5.3426   5.3558   5.3600
     5.5118   5.5347   5.7052   5.7256   5.9242   5.9477   5.9570   6.2515
     6.3115   6.3552   6.3731   6.3926   6.4135   6.4405   6.5940   6.6278
     6.6503   6.7141   6.7708   6.8048   6.8444   7.0232   7.0287   7.0386
     7.0607   7.1010   7.1029   7.1395   7.1617   7.2237   7.2941   7.3085
     7.3487   7.4121   7.4386   7.7282   7.7590   7.7759   7.7896   7.8284
     8.0627   8.1091   8.1301   8.2351   8.2801   8.3231   8.3643   8.4020
     8.4049   8.4396   8.4498   8.4661   8.5594   8.6016   8.6587   8.6938
     8.7114   8.7204   8.7517   8.7661   8.7882   8.8117   8.8613   8.9229
     9.0004   9.0342   9.0869   9.1882   9.2336   9.2661   9.2995   9.3209
     9.3392   9.3556   9.3649   9.4013   9.4202   9.4245   9.4391   9.4532
     9.4789   9.4862   9.5004   9.6441   9.7340   9.7698   9.8515   9.8793
     9.8889  10.0285  10.1131

          k = 0.2500 0.0000 0.0000 (256240 PWs)   bands (ev):

   -16.2447 -15.9413 -15.7514 -15.2331 -14.9883 -14.7702 -14.7005 -14.6545
   -13.9059 -13.6938 -13.3680 -13.1403 -12.8796 -12.8603 -12.8510 -12.3816
   -11.9531 -11.8980 -11.8363 -11.5952 -10.8498 -10.5813 -10.5332 -10.4662
   -10.0234  -9.8650  -9.5736  -9.5417  -9.1740  -8.9237  -8.8998  -8.3853
    -7.4586  -7.3842  -7.3720  -7.3448  -7.2748  -7.2305  -6.7948  -6.5283
    -6.0984  -6.0161  -5.8428  -5.8052  -5.7363  -5.7129  -5.5492  -5.3200
    -5.3072  -5.1638  -4.9578  -4.8999  -4.8189  -4.5084  -4.4613  -4.4071
    -4.3505  -4.2758  -4.1998  -4.1778  -4.1422  -4.0700  -4.0130  -3.9970
    -3.9243  -3.8828  -3.8317  -3.7926  -3.6804  -3.5516  -3.5183  -3.4419
    -3.4049  -3.3655  -3.3351  -3.3243  -3.2931  -3.2129  -3.1933  -3.1576
    -3.0891  -3.0253  -3.0010  -2.9449  -2.9191  -2.8397  -2.8048  -2.7906
    -2.7612  -2.6672  -2.6353  -2.5692  -2.5456  -2.4032  -2.3344  -2.3177
    -2.2915  -2.2602  -2.1496  -2.1092  -2.1014  -2.0937  -2.0766  -2.0073
    -1.9329  -1.9206  -1.8879  -1.8482  -1.8409  -1.8229  -1.8180  -1.8120
    -1.8100  -1.8029  -1.8003  -1.7866  -1.7712  -1.7562  -1.7238  -1.7114
    -1.6937  -1.6554  -1.6333  -1.6163  -1.6058  -1.5968  -1.5900  -1.5840
    -1.5815  -1.5729  -1.5671  -1.5310  -1.5204  -1.5144  -1.5112  -1.5046
    -1.4900  -1.4794  -1.4495  -1.3824  -1.3673  -1.3424  -1.3267  -1.3218
    -1.2706  -1.2571  -1.2530  -1.2477  -1.2451  -1.2362  -1.2189  -1.2155
    -1.2061  -1.2031  -1.1963  -1.1910  -1.1851  -1.1784  -1.1594  -1.1500
    -1.1465  -1.1411  -1.1289  -1.1237  -1.1170  -1.1137  -1.0932  -1.0886
    -1.0627  -1.0573  -1.0548  -1.0466  -1.0358  -1.0305  -1.0286  -1.0243
    -1.0188  -1.0118  -1.0072  -0.9975  -0.9957  -0.9928  -0.9900  -0.9874
    -0.9821  -0.9800  -0.9755  -0.9660  -0.9525  -0.9421  -0.9212  -0.9123
    -0.9075  -0.8854  -0.8601  -0.8512  -0.8417  -0.8316  -0.8283  -0.8197
    -0.8087  -0.8018  -0.7958  -0.7880  -0.7825  -0.7746  -0.7675  -0.7640
    -0.7590  -0.7555  -0.7490  -0.7421  -0.7303  -0.7167  -0.6955  -0.6216
    -0.6149  -0.6101  -0.5974  -0.5908  -0.5796  -0.5734  -0.5642  -0.5607
    -0.5584  -0.5531  -0.5407  -0.5388  -0.5362  -0.5279  -0.5126  -0.5058
    -0.5026  -0.4974  -0.4924  -0.4903  -0.4846  -0.4769  -0.4728  -0.4671
    -0.4612  -0.4193  -0.4134  -0.4101  -0.4077  -0.4046  -0.4019  -0.3992
    -0.3909  -0.3831  -0.3724  -0.3655  -0.3543  -0.3433  -0.3403  -0.3351
    -0.3206  -0.3159  -0.3117  -0.3052  -0.3040  -0.2989  -0.2947  -0.2891
    -0.2769  -0.2745  -0.2683  -0.2590  -0.2568  -0.2484  -0.2452  -0.2306
    -0.2235  -0.2189  -0.2131  -0.2066  -0.1988  -0.1980  -0.1895  -0.1868
    -0.1764  -0.1655  -0.1621  -0.1499  -0.1439  -0.1382  -0.1304  -0.1265
    -0.1218  -0.1118  -0.1092  -0.0991  -0.0805  -0.0769  -0.0727  -0.0657
    -0.0536  -0.0489  -0.0422  -0.0376  -0.0323  -0.0285  -0.0231  -0.0204
    -0.0180  -0.0147  -0.0124  -0.0093  -0.0044   0.0046   0.0079   0.0107
     0.0148   0.0211   0.0244   0.0269   0.0317   0.0364   0.0420   0.0461
     0.0530   0.0608   0.0722   0.0796   0.0863   0.0944   0.0994   0.1033
     0.1121   0.1150   0.1277   0.1318   0.1382   0.1412   0.1478   0.1633
     0.1705   0.1894   0.1948   0.2126   0.2277   0.2413   0.2447   0.2536
     0.2567   0.2641   0.2654   0.2686   0.2733   0.2770   0.2782   0.2797
     0.2824   0.2867   0.2891   0.2971   0.2993   0.3040   0.3116   0.3165
     0.3202   0.3215   0.3258   0.3283   0.3324   0.3381   0.3519   0.3595
     0.3703   0.3791   0.3878   0.3974   0.4021   0.4064   0.4154   0.4257
     0.4280   0.4348   0.4398   0.4440   0.4501   0.4587   0.4625   0.4687
     0.4716   0.4765   0.4792   0.4820   0.4898   0.4914   0.4967   0.5048
     0.5073   0.5167   0.5216   0.5278   0.5335   0.5374   0.5453   0.5472
     0.5505   0.5564   0.5607   0.5654   0.5726   0.5756   0.5778   0.5835
     0.5916   0.5959   0.6012   0.6054   0.6074   0.6101   0.6169   0.6238
     0.6341   0.6385   0.6434   0.6489   0.6506   0.6533   0.6590   0.6667
     0.6739   0.6809   0.6838   0.6988   0.7023   0.7082   0.7192   0.7285
     0.7312   0.7351   0.7408   0.7462   0.7534   0.7600   0.7632   0.7667
     0.7711   0.7747   0.7776   0.7849   0.7937   0.8017   0.8093   0.8131
     0.8224   0.8265   0.8309   0.8429   0.8467   0.8502   0.8574   0.8623
     0.8655   0.8701   0.8752   0.8817   0.8838   0.8870   0.8900   0.8958
     0.8984   0.9050   0.9117   0.9186   0.9269   0.9291   0.9330   0.9433
     0.9454   0.9540   0.9584   0.9676   0.9709   0.9742   0.9807   0.9826
     0.9866   0.9905   0.9964   1.0007   1.0058   1.0087   1.0106   1.0135
     1.0162   1.0183   1.0222   1.0258   1.0295   1.0328   1.0377   1.0404
     1.0453   1.0508   1.0550   1.0563   1.0586   1.0612   1.0637   1.0691
     1.0732   1.0794   1.0832   1.0881   1.0917   1.0992   1.1028   1.1063
     1.1098   1.1132   1.1221   1.1235   1.1261   1.1323   1.1342   1.1393
     1.1460   1.1516   1.1592   1.1634   1.1705   1.1756   1.1785   1.1828
     1.1876   1.1917   1.2086   1.2131   1.2222   1.2300   1.2313   1.2334
     1.2390   1.2415   1.2477   1.2495   1.2533   1.2544   1.2635   1.2644
     1.2681   1.2713   1.2746   1.2780   1.2837   1.2863   1.2917   1.2944
     1.2964   1.2987   1.2991   1.3038   1.3048   1.3073   1.3116   1.3162
     1.3210   1.3267   1.3321   1.3338   1.3433   1.3452   1.3480   1.3535
     1.3556   1.3601   1.3631   1.3683   1.3706   1.3807   1.3861   1.3891
     1.3919   1.4018   1.4066   1.4098   1.4118   1.4140   1.4165   1.4196
     1.4224   1.4253   1.4304   1.4320   1.4334   1.4355   1.4429   1.4462
     1.4501   1.4519   1.4569   1.4592   1.4619   1.4688   1.4746   1.4779
     1.4819   1.4850   1.4937   1.4965   1.4983   1.5061   1.5100   1.5117
     1.5330   1.5428   1.5448   1.5668   1.5734   1.5980   1.6108   1.6143
     1.6194   1.6308   1.6586   1.6833   1.7314   1.7499   1.7564   1.7682
     1.7733   1.8278   1.8310   1.9036   2.0025   2.0171   2.0464   2.0581
     2.0848   2.1155   2.1532   2.1834   2.2204   2.3753   2.5349   2.5408
     2.5600   2.6261   2.9616   2.9650   3.0116   3.0288   3.1709   3.1782
     3.2083   3.2099   3.2356   3.3077   3.4088   3.4572   3.5317   3.5768
     3.6153   3.6379   3.6735   3.6885   3.6921   3.7649   3.7718   3.8397
     3.8938   3.9412   4.0100   4.1177   4.1801   4.2664   4.2865   4.3629
     4.4514   4.5867   4.6934   4.7287   4.8243   4.8392   5.0141   5.1234
     5.1930   5.2050   5.2447   5.3259   5.3909   5.4246   5.4572   5.5058
     5.5204   5.5335   5.5646   5.5948   5.6311   5.7138   5.7534   5.7835
     5.7922   5.8690   5.9546   5.9974   6.0095   6.0532   6.0956   6.3271
     6.5549   6.7054   6.7243   6.7371   6.7514   6.7936   6.8595   6.8880
     6.9108   6.9279   6.9919   7.0438   7.0581   7.0797   7.1214   7.2232
     7.2710   7.3937   7.4236   7.4439   7.4825   7.5308   7.5807   7.6810
     7.7055   7.8066   7.8301   7.9282   7.9543   8.0222   8.0476   8.1054
     8.1408   8.2272   8.2739   8.2935   8.3044   8.3198   8.3427   8.3939
     8.4327   8.4968   8.6031   8.6195   8.7491   8.8540   8.9070   8.9823
     9.0091   9.0107   9.0242   9.1208   9.1420   9.1504   9.1751   9.1831
     9.2122   9.2603   9.3067   9.3609   9.4268   9.4299   9.4402   9.5813
     9.6239   9.6540   9.6758   9.7434   9.7792   9.8055   9.8555   9.8980
     9.9214   9.9367   9.9586

          k = 0.2500-0.2165 0.0000 (256316 PWs)   bands (ev):

   -16.2081 -16.0714 -15.5110 -15.2925 -15.1024 -15.0800 -14.4976 -14.3163
   -13.9916 -13.8462 -13.3767 -13.1598 -13.0033 -12.8963 -12.6284 -12.4203
   -12.1467 -11.7805 -11.6083 -11.1423 -11.0818 -10.9012 -10.8004 -10.5152
   -10.4247  -9.4490  -9.4267  -8.9547  -8.9189  -8.8655  -8.8442  -8.3216
    -8.2935  -8.2141  -8.1870  -6.6329  -6.5505  -6.4809  -6.4557  -6.3808
    -6.3295  -6.1669  -6.1355  -5.8866  -5.8418  -5.7199  -5.6945  -5.5914
    -5.2432  -4.9692  -4.8333  -4.7732  -4.6914  -4.6787  -4.6295  -4.6133
    -4.5501  -4.3612  -4.3407  -4.2797  -4.1933  -4.0360  -3.9986  -3.9539
    -3.9184  -3.8228  -3.6841  -3.6354  -3.6165  -3.5272  -3.4873  -3.4673
    -3.4532  -3.3963  -3.3549  -3.3040  -3.2575  -3.1154  -3.0786  -3.0245
    -2.9898  -2.9501  -2.9408  -2.9069  -2.8973  -2.8826  -2.8616  -2.7567
    -2.7266  -2.6763  -2.6474  -2.5801  -2.4073  -2.3692  -2.3291  -2.3116
    -2.2882  -2.2178  -2.2104  -2.1809  -2.1785  -2.1585  -2.1260  -2.0413
    -2.0149  -2.0021  -1.9922  -1.9476  -1.8387  -1.8320  -1.8253  -1.8217
    -1.7950  -1.7744  -1.7628  -1.7468  -1.7231  -1.7210  -1.7159  -1.7055
    -1.7032  -1.6959  -1.6905  -1.6865  -1.6822  -1.6796  -1.6680  -1.6611
    -1.6354  -1.5951  -1.5925  -1.5814  -1.5556  -1.4888  -1.4754  -1.4570
    -1.3731  -1.3437  -1.3376  -1.3230  -1.3150  -1.2965  -1.2920  -1.2816
    -1.2765  -1.2729  -1.2663  -1.2581  -1.2511  -1.2451  -1.2401  -1.2385
    -1.2347  -1.2272  -1.2209  -1.2166  -1.2090  -1.2022  -1.1912  -1.1865
    -1.1836  -1.1517  -1.1458  -1.1373  -1.1327  -1.1247  -1.1225  -1.1184
    -1.0999  -1.0962  -1.0769  -1.0544  -1.0504  -1.0421  -1.0354  -1.0294
    -1.0234  -1.0176  -1.0099  -1.0043  -0.9992  -0.9846  -0.9736  -0.9710
    -0.9671  -0.9659  -0.9620  -0.9508  -0.9391  -0.9324  -0.9235  -0.9091
    -0.8864  -0.8814  -0.8743  -0.8706  -0.8678  -0.8189  -0.7948  -0.7899
    -0.7877  -0.7809  -0.7763  -0.7751  -0.7415  -0.7332  -0.7241  -0.7199
    -0.7158  -0.7133  -0.7053  -0.7019  -0.6900  -0.6588  -0.6561  -0.6416
    -0.6270  -0.6235  -0.6184  -0.6020  -0.5939  -0.5810  -0.5763  -0.5732
    -0.5689  -0.5483  -0.5439  -0.5381  -0.5297  -0.5243  -0.5196  -0.5142
    -0.5051  -0.4957  -0.4885  -0.4756  -0.4652  -0.4573  -0.4512  -0.4438
    -0.4363  -0.4257  -0.4191  -0.4153  -0.4082  -0.4022  -0.3917  -0.3843
    -0.3805  -0.3780  -0.3744  -0.3702  -0.3681  -0.3653  -0.3584  -0.3522
    -0.3441  -0.3411  -0.3324  -0.3243  -0.3203  -0.3075  -0.3008  -0.2913
    -0.2824  -0.2763  -0.2707  -0.2650  -0.2610  -0.2493  -0.2477  -0.2408
    -0.2335  -0.2317  -0.2282  -0.2123  -0.2111  -0.1951  -0.1833  -0.1706
    -0.1678  -0.1523  -0.1333  -0.1274  -0.1206  -0.1191  -0.1132  -0.1088
    -0.0983  -0.0961  -0.0927  -0.0813  -0.0760  -0.0707  -0.0670  -0.0656
    -0.0577  -0.0517  -0.0495  -0.0455  -0.0421  -0.0343  -0.0291  -0.0248
    -0.0202  -0.0186  -0.0143  -0.0086  -0.0047  -0.0028  -0.0003   0.0015
     0.0046   0.0090   0.0136   0.0161   0.0203   0.0269   0.0376   0.0458
     0.0579   0.0639   0.0654   0.0831   0.0874   0.0997   0.1093   0.1170
     0.1216   0.1287   0.1366   0.1388   0.1421   0.1436   0.1467   0.1532
     0.1595   0.1632   0.1698   0.1764   0.1880   0.1940   0.1999   0.2254
     0.2282   0.2544   0.2598   0.2661   0.2719   0.2760   0.2787   0.2812
     0.2862   0.2886   0.2911   0.2954   0.3031   0.3119   0.3149   0.3187
     0.3225   0.3262   0.3281   0.3342   0.3364   0.3443   0.3584   0.3613
     0.3743   0.3812   0.3873   0.3902   0.3974   0.4046   0.4131   0.4160
     0.4325   0.4430   0.4461   0.4490   0.4553   0.4590   0.4640   0.4697
     0.4707   0.4774   0.4806   0.4840   0.4870   0.4992   0.5031   0.5137
     0.5188   0.5256   0.5346   0.5447   0.5534   0.5600   0.5645   0.5698
     0.5746   0.5813   0.5895   0.5944   0.5983   0.6017   0.6069   0.6135
     0.6149   0.6208   0.6245   0.6292   0.6297   0.6361   0.6420   0.6442
     0.6527   0.6546   0.6580   0.6600   0.6631   0.6646   0.6675   0.6699
     0.6757   0.6799   0.6819   0.6882   0.6936   0.6953   0.6994   0.7050
     0.7065   0.7102   0.7125   0.7176   0.7250   0.7296   0.7410   0.7471
     0.7548   0.7577   0.7603   0.7746   0.7908   0.7934   0.8001   0.8034
     0.8118   0.8170   0.8222   0.8261   0.8318   0.8393   0.8426   0.8451
     0.8457   0.8470   0.8508   0.8534   0.8588   0.8632   0.8774   0.8815
     0.8866   0.8917   0.8966   0.8997   0.9062   0.9140   0.9208   0.9268
     0.9312   0.9358   0.9405   0.9521   0.9536   0.9577   0.9615   0.9673
     0.9710   0.9730   0.9807   0.9859   0.9917   1.0030   1.0064   1.0163
     1.0241   1.0304   1.0367   1.0515   1.0560   1.0641   1.0687   1.0697
     1.0731   1.0756   1.0774   1.0789   1.0817   1.0848   1.0867   1.0881
     1.0895   1.0945   1.0980   1.1014   1.1078   1.1144   1.1196   1.1293
     1.1332   1.1434   1.1503   1.1519   1.1562   1.1579   1.1607   1.1665
     1.1674   1.1726   1.1762   1.1786   1.1809   1.1842   1.1860   1.1888
     1.1934   1.1957   1.1985   1.2031   1.2052   1.2062   1.2102   1.2153
     1.2175   1.2216   1.2265   1.2314   1.2357   1.2398   1.2429   1.2552
     1.2580   1.2619   1.2676   1.2720   1.2767   1.2821   1.2884   1.2935
     1.2984   1.3018   1.3063   1.3111   1.3152   1.3191   1.3237   1.3261
     1.3313   1.3329   1.3362   1.3374   1.3417   1.3488   1.3553   1.3561
     1.3600   1.3648   1.3689   1.3719   1.3732   1.3749   1.3791   1.3825
     1.3835   1.3894   1.3925   1.3968   1.3992   1.4044   1.4092   1.4147
     1.4211   1.4235   1.4258   1.4281   1.4299   1.4322   1.4331   1.4362
     1.4385   1.4433   1.4468   1.4498   1.4686   1.4693   1.4759   1.4782
     1.4847   1.4884   1.4918   1.4961   1.5050   1.5165   1.5223   1.5371
     1.5388   1.5439   1.5442   1.5643   1.5704   1.5782   1.6358   1.6445
     1.6601   1.6684   1.6880   1.7351   1.7431   1.7484   1.7547   1.7646
     1.7722   1.7795   1.7913   1.8071   1.8256   1.8853   2.0724   2.1121
     2.1151   2.1517   2.1555   2.2671   2.3275   2.5664   2.5710   2.7494
     2.7570   2.7660   2.7732   2.7869   2.7913   2.8215   2.8604   2.9457
     2.9670   3.0444   3.0584   3.1738   3.5047   3.5110   3.5650   3.5830
     3.6362   3.7289   3.8013   3.8203   3.8502   3.9272   3.9811   4.0165
     4.0542   4.1050   4.1516   4.1648   4.3553   4.3606   4.4528   4.4993
     4.5470   4.6066   4.6399   4.6657   4.7697   4.8178   4.8632   4.9027
     4.9286   4.9800   5.0048   5.1323   5.2214   5.2549   5.3210   5.3401
     5.4027   5.4287   5.4499   5.4952   5.6048   5.7259   5.7504   5.8109
     5.8614   5.8994   5.9242   6.0053   6.1553   6.4609   6.5200   6.5464
     6.5680   6.5986   6.6647   6.7612   6.8068   6.8468   6.8891   6.9155
     6.9972   7.0572   7.0679   7.1431   7.1755   7.2104   7.2387   7.2612
     7.3043   7.3313   7.3635   7.3995   7.4210   7.4560   7.5391   7.6204
     7.6496   7.7333   7.8271   7.8786   7.9223   7.9279   8.0447   8.0890
     8.1632   8.1922   8.2030   8.3257   8.4671   8.5073   8.5443   8.6002
     8.6204   8.6279   8.6571   8.6861   8.7131   8.7790   8.8022   8.8823
     8.9144   8.9325   8.9697   9.0025   9.0415   9.0683   9.1307   9.1797
     9.1876   9.2074   9.2406   9.2537   9.2876   9.2970   9.3172   9.3603
     9.3836   9.4664   9.5282   9.5440   9.6390   9.6492   9.7104   9.7742
     9.8693   9.9290   9.9629

          k =-0.5000 0.0000 0.0000 (256496 PWs)   bands (ev):

   -16.0332 -15.7574 -15.6178 -15.3867 -15.3815 -15.3687 -14.5607 -14.3060
   -14.2932 -14.2763 -13.1933 -12.5332 -12.5254 -12.5056 -12.2709 -11.9467
   -11.8816 -11.6251 -11.6027 -11.5995 -11.3832 -10.9777 -10.9094 -10.5675
   -10.4917  -9.9701  -9.9304  -9.5870  -9.5501  -8.7740  -8.7431  -8.7270
    -8.7023  -7.3456  -7.2608  -7.2302  -7.1972  -7.1831  -7.1603  -6.0954
    -5.7189  -5.6489  -5.4027  -5.3129  -5.2788  -5.0067  -4.9331  -4.8319
    -4.8108  -4.8011  -4.7814  -4.6875  -4.5713  -4.5528  -4.5395  -4.5104
    -4.5079  -4.4456  -4.3776  -4.3268  -4.3090  -4.2724  -4.1857  -4.1540
    -4.1077  -3.9682  -3.9393  -3.8942  -3.8586  -3.7945  -3.6924  -3.6086
    -3.4713  -3.4608  -3.4415  -3.4212  -3.4033  -3.3937  -3.2899  -3.2238
    -3.2013  -3.1834  -3.1725  -3.1166  -3.0987  -2.8679  -2.7013  -2.6683
    -2.6479  -2.6473  -2.6328  -2.6116  -2.5782  -2.5587  -2.5311  -2.4430
    -2.3453  -2.3337  -2.3276  -2.2827  -2.2176  -2.1966  -2.1121  -1.8975
    -1.8915  -1.8885  -1.8854  -1.8804  -1.8738  -1.8398  -1.7709  -1.7689
    -1.7654  -1.6629  -1.6574  -1.6521  -1.6479  -1.6249  -1.6142  -1.6071
    -1.6006  -1.5821  -1.5356  -1.5053  -1.5019  -1.4984  -1.4783  -1.4392
    -1.4375  -1.4283  -1.4267  -1.4228  -1.4164  -1.4148  -1.3770  -1.3725
    -1.3692  -1.3677  -1.3622  -1.3597  -1.3510  -1.3457  -1.3389  -1.3202
    -1.3125  -1.3078  -1.3055  -1.3041  -1.2905  -1.2863  -1.2827  -1.2785
    -1.2708  -1.2659  -1.2459  -1.2313  -1.2185  -1.2150  -1.2030  -1.1966
    -1.1829  -1.1780  -1.1757  -1.1706  -1.1576  -1.1531  -1.1486  -1.1328
    -1.1277  -1.1264  -1.1176  -1.1100  -1.0999  -1.0962  -1.0897  -1.0705
    -1.0650  -1.0530  -1.0137  -1.0090  -0.9966  -0.9919  -0.9909  -0.9801
    -0.9720  -0.9702  -0.9608  -0.9494  -0.9459  -0.9409  -0.9384  -0.9342
    -0.9319  -0.9294  -0.9243  -0.9132  -0.9084  -0.8999  -0.8590  -0.8538
    -0.8468  -0.8383  -0.8172  -0.8128  -0.7986  -0.7922  -0.7308  -0.7258
    -0.7209  -0.7195  -0.6894  -0.6829  -0.6794  -0.6754  -0.6743  -0.6671
    -0.6492  -0.6437  -0.6373  -0.6359  -0.6311  -0.6252  -0.6202  -0.6188
    -0.6146  -0.6014  -0.6012  -0.5933  -0.5835  -0.5771  -0.5164  -0.4776
    -0.4770  -0.4743  -0.4671  -0.4627  -0.4537  -0.4518  -0.4484  -0.4395
    -0.4247  -0.4190  -0.4099  -0.4080  -0.3907  -0.3854  -0.3819  -0.3807
    -0.3788  -0.3773  -0.3650  -0.3536  -0.3504  -0.3449  -0.3423  -0.3334
    -0.3237  -0.3186  -0.3109  -0.3051  -0.3020  -0.2976  -0.2964  -0.2782
    -0.2663  -0.2628  -0.2600  -0.2579  -0.2394  -0.2323  -0.2275  -0.2208
    -0.1993  -0.1902  -0.1728  -0.1605  -0.1570  -0.1510  -0.1451  -0.1406
    -0.1388  -0.1360  -0.1331  -0.1224  -0.1114  -0.1068  -0.0937  -0.0873
    -0.0735  -0.0557  -0.0493  -0.0468  -0.0411  -0.0371  -0.0338  -0.0314
    -0.0290  -0.0265  -0.0243  -0.0218  -0.0174  -0.0105  -0.0024   0.0205
     0.0287   0.0432   0.0500   0.0515   0.0543   0.0566   0.0595   0.0640
     0.0665   0.0696   0.0720   0.0727   0.0795   0.0807   0.0845   0.0881
     0.0900   0.0926   0.1034   0.1054   0.1075   0.1089   0.1104   0.1139
     0.1148   0.1194   0.1213   0.1257   0.1280   0.1317   0.1371   0.1387
     0.1445   0.1455   0.1498   0.1522   0.1577   0.1684   0.1765   0.1834
     0.2206   0.2389   0.2804   0.2833   0.2885   0.2956   0.3037   0.3082
     0.3092   0.3185   0.3212   0.3275   0.3305   0.3312   0.3384   0.3385
     0.3420   0.3444   0.3450   0.3480   0.3523   0.3529   0.3576   0.3610
     0.3635   0.3671   0.3712   0.3747   0.3800   0.3860   0.3870   0.3918
     0.3949   0.4007   0.4062   0.4098   0.4291   0.4439   0.4639   0.4771
     0.4808   0.4870   0.4886   0.4938   0.5008   0.5052   0.5105   0.5133
     0.5177   0.5213   0.5227   0.5261   0.5293   0.5307   0.5312   0.5355
     0.5368   0.5402   0.5430   0.5453   0.5474   0.5500   0.5600   0.5633
     0.5687   0.5773   0.5833   0.5916   0.6012   0.6075   0.6114   0.6147
     0.6169   0.6199   0.6253   0.6282   0.6301   0.6311   0.6405   0.6416
     0.6460   0.6486   0.6495   0.6531   0.6562   0.6644   0.6659   0.6724
     0.6809   0.6875   0.6994   0.7028   0.7049   0.7102   0.7121   0.7170
     0.7263   0.7373   0.7487   0.7566   0.7606   0.7641   0.7722   0.7923
     0.7957   0.8049   0.8186   0.8262   0.8284   0.8294   0.8304   0.8317
     0.8331   0.8353   0.8403   0.8455   0.8489   0.8529   0.8559   0.8597
     0.8610   0.8742   0.8754   0.8788   0.8811   0.8846   0.8931   0.8976
     0.9009   0.9036   0.9078   0.9150   0.9179   0.9279   0.9352   0.9372
     0.9552   0.9769   0.9877   1.0008   1.0026   1.0054   1.0126   1.0214
     1.0276   1.0306   1.0367   1.0432   1.0505   1.0513   1.0599   1.0611
     1.0717   1.0739   1.0751   1.0811   1.0850   1.0943   1.1001   1.1017
     1.1045   1.1084   1.1107   1.1157   1.1188   1.1190   1.1197   1.1241
     1.1274   1.1314   1.1339   1.1362   1.1368   1.1420   1.1504   1.1524
     1.1655   1.1672   1.1710   1.1776   1.1827   1.1866   1.1937   1.1954
     1.2036   1.2067   1.2105   1.2154   1.2233   1.2277   1.2301   1.2303
     1.2330   1.2334   1.2342   1.2383   1.2397   1.2451   1.2491   1.2561
     1.2639   1.2683   1.2834   1.2845   1.2918   1.2944   1.3002   1.3020
     1.3031   1.3058   1.3071   1.3090   1.3091   1.3104   1.3116   1.3154
     1.3169   1.3197   1.3205   1.3239   1.3245   1.3277   1.3306   1.3320
     1.3338   1.3365   1.3401   1.3419   1.3466   1.3492   1.3618   1.3627
     1.3667   1.3703   1.3753   1.3775   1.3844   1.3903   1.3972   1.4024
     1.4039   1.4074   1.4137   1.4181   1.4200   1.4247   1.4300   1.4320
     1.4339   1.4368   1.4399   1.4427   1.4522   1.4546   1.4584   1.4602
     1.4631   1.4668   1.4678   1.4716   1.4735   1.4783   1.4828   1.4931
     1.5025   1.5056   1.5059   1.5075   1.5084   1.5206   1.5364   1.5375
     1.5605   1.5730   1.5809   1.5941   1.5957   1.5975   1.6154   1.6438
     1.7556   1.9992   2.0142   2.0283   2.0599   2.2035   2.2228   2.2278
     2.2710   2.2761   2.2780   2.2836   2.3373   2.5714   2.5809   2.5895
     2.7492   2.8098   2.8183   2.8208   2.8474   2.9793   3.1603   3.1710
     3.1861   3.2132   3.4554   3.4833   3.6907   3.7224   3.7403   3.8094
     3.8762   3.8864   3.8958   3.9347   4.0337   4.0522   4.0568   4.0871
     4.1329   4.3088   4.5351   4.6077   4.6457   4.6836   4.7022   4.7247
     4.7488   4.7887   4.8111   4.8557   4.8783   4.9090   4.9818   5.0033
     5.0090   5.0175   5.0272   5.0380   5.0639   5.0729   5.1648   5.1793
     5.2562   5.3132   5.3663   5.4808   5.4891   5.5400   5.5632   5.6198
     5.6299   5.7179   5.8973   5.9373   5.9567   5.9625   5.9850   6.0067
     6.0150   6.0291   6.1647   6.2765   6.3324   6.3739   6.3837   6.4505
     6.5647   6.5949   6.6010   6.9439   7.0436   7.0711   7.0917   7.1033
     7.2159   7.3715   7.5234   7.5430   7.5801   7.5873   7.5898   7.6046
     7.7253   7.7715   7.7963   7.8157   7.8318   7.8403   7.8701   7.9267
     7.9656   7.9951   8.0213   8.0405   8.0566   8.0740   8.1038   8.3106
     8.3439   8.7171   8.7741   8.7913   8.7993   8.8037   8.8074   8.8258
     8.8295   8.8900   8.9605   9.0061   9.0100   9.0246   9.0596   9.1037
     9.2224   9.2663   9.3862   9.3984   9.4430   9.4505   9.4836   9.5033
     9.5111   9.5162   9.5180   9.5268   9.5450   9.5518   9.6913   9.8617
     9.8748   9.9098   9.9561

          k =-0.5000-0.2165 0.0000 (256328 PWs)   bands (ev):

   -16.0222 -15.7018 -15.7008 -15.6131 -15.1602 -14.9356 -14.9302 -14.9080
   -13.8544 -13.4996 -13.4863 -13.4724 -12.7522 -11.8904 -11.8899 -11.8315
   -11.7160 -11.4556 -11.4389 -11.4145 -11.3377 -11.2550 -11.2457 -11.2220
   -10.9639  -9.5767  -9.5689  -9.5267  -9.4732  -8.6382  -8.6046  -8.5889
    -8.5607  -7.8705  -7.8552  -7.8406  -7.7992  -6.1707  -5.9591  -5.7715
    -5.7528  -5.6732  -5.3433  -5.2012  -5.1948  -5.1857  -5.1639  -5.1452
    -5.1055  -5.0843  -4.9772  -4.9077  -4.8937  -4.8137  -4.6731  -4.3346
    -4.2986  -4.2725  -4.2144  -4.2057  -4.1959  -4.1720  -4.0998  -4.0359
    -4.0302  -3.9982  -3.9477  -3.8316  -3.8294  -3.8042  -3.6553  -3.5768
    -3.5186  -3.5155  -3.5048  -3.4750  -3.4483  -3.3960  -3.3737  -3.3361
    -3.2794  -3.2681  -3.1976  -3.0310  -2.9553  -2.8962  -2.7814  -2.5904
    -2.5886  -2.5853  -2.5742  -2.5495  -2.5480  -2.5353  -2.4904  -2.3488
    -2.1737  -2.1654  -2.1382  -2.1105  -2.0889  -2.0824  -2.0742  -2.0602
    -2.0389  -2.0365  -2.0176  -1.9362  -1.8890  -1.8389  -1.8230  -1.8172
    -1.8116  -1.8037  -1.7891  -1.7011  -1.6437  -1.6314  -1.6031  -1.5894
    -1.5199  -1.5116  -1.5046  -1.4970  -1.4887  -1.4769  -1.4724  -1.4536
    -1.4508  -1.4433  -1.4405  -1.4224  -1.4081  -1.4002  -1.3976  -1.3949
    -1.3941  -1.3909  -1.3884  -1.3856  -1.3805  -1.3759  -1.3742  -1.3736
    -1.3695  -1.3677  -1.3265  -1.3221  -1.3212  -1.2959  -1.2889  -1.2563
    -1.2491  -1.2292  -1.2115  -1.2084  -1.2047  -1.2005  -1.1915  -1.1841
    -1.1722  -1.1667  -1.1559  -1.1447  -1.1400  -1.1362  -1.1311  -1.1300
    -1.1272  -1.1199  -1.1100  -1.0991  -1.0940  -1.0824  -1.0757  -1.0681
    -1.0646  -1.0612  -1.0573  -1.0565  -1.0498  -1.0491  -1.0490  -1.0450
    -1.0424  -1.0257  -1.0106  -0.9272  -0.9060  -0.8965  -0.8937  -0.8874
    -0.8841  -0.8709  -0.8663  -0.8634  -0.8558  -0.8527  -0.8341  -0.8175
    -0.7903  -0.7815  -0.7808  -0.7777  -0.7743  -0.7676  -0.7643  -0.7630
    -0.7601  -0.7530  -0.7457  -0.7253  -0.7153  -0.7127  -0.7066  -0.7000
    -0.6946  -0.6894  -0.6832  -0.6785  -0.6769  -0.6705  -0.6605  -0.6439
    -0.5874  -0.5821  -0.5807  -0.5698  -0.5676  -0.5615  -0.5567  -0.5328
    -0.5169  -0.5102  -0.5019  -0.4981  -0.4657  -0.4580  -0.4546  -0.4476
    -0.4437  -0.4382  -0.4366  -0.4309  -0.4266  -0.4176  -0.4080  -0.4072
    -0.4042  -0.3974  -0.3897  -0.3849  -0.3704  -0.3561  -0.3241  -0.3151
    -0.2929  -0.2883  -0.2815  -0.2805  -0.2720  -0.2704  -0.2663  -0.2648
    -0.2513  -0.2509  -0.2486  -0.2352  -0.2011  -0.1905  -0.1800  -0.1787
    -0.1692  -0.1665  -0.1646  -0.1614  -0.1597  -0.1551  -0.1502  -0.1424
    -0.1356  -0.1286  -0.1246  -0.1238  -0.1166  -0.1144  -0.1131  -0.1044
    -0.1034  -0.0993  -0.0932  -0.0864  -0.0821  -0.0557  -0.0450  -0.0436
    -0.0280  -0.0207  -0.0086   0.0018   0.0052   0.0137   0.0382   0.0400
     0.0474   0.0515   0.0588   0.0606   0.0652   0.0697   0.0731   0.0745
     0.0759   0.0794   0.0830   0.0836   0.0938   0.0944   0.0977   0.0990
     0.1004   0.1020   0.1032   0.1054   0.1064   0.1113   0.1129   0.1163
     0.1175   0.1220   0.1337   0.1416   0.1441   0.1465   0.1496   0.1536
     0.1587   0.1671   0.1740   0.1899   0.1917   0.1969   0.2060   0.2115
     0.2133   0.2274   0.2351   0.2383   0.2609   0.2790   0.3068   0.3118
     0.3134   0.3204   0.3276   0.3305   0.3378   0.3379   0.3422   0.3447
     0.3480   0.3489   0.3560   0.3582   0.3623   0.3662   0.3680   0.3705
     0.3746   0.3791   0.3857   0.3941   0.3969   0.4052   0.4122   0.4165
     0.4267   0.4302   0.4422   0.4442   0.4525   0.4567   0.4615   0.4622
     0.4625   0.4669   0.4674   0.4719   0.4808   0.4890   0.4911   0.4970
     0.5012   0.5038   0.5111   0.5148   0.5193   0.5242   0.5295   0.5326
     0.5361   0.5495   0.5551   0.5581   0.5596   0.5616   0.5639   0.5678
     0.5728   0.5758   0.5763   0.5787   0.5832   0.5865   0.5896   0.5972
     0.6013   0.6052   0.6079   0.6154   0.6187   0.6280   0.6382   0.6501
     0.6589   0.6679   0.6682   0.6704   0.6706   0.6791   0.6861   0.6899
     0.6910   0.6970   0.7038   0.7112   0.7120   0.7150   0.7163   0.7209
     0.7240   0.7262   0.7302   0.7369   0.7419   0.7479   0.7554   0.7671
     0.7772   0.7786   0.7860   0.8013   0.8076   0.8097   0.8161   0.8227
     0.8311   0.8427   0.8445   0.8465   0.8491   0.8546   0.8562   0.8618
     0.8723   0.8745   0.8965   0.9058   0.9133   0.9192   0.9323   0.9372
     0.9450   0.9503   0.9542   0.9712   0.9812   0.9910   0.9927   1.0038
     1.0063   1.0093   1.0127   1.0154   1.0167   1.0232   1.0245   1.0280
     1.0320   1.0341   1.0361   1.0382   1.0386   1.0394   1.0442   1.0469
     1.0499   1.0517   1.0587   1.0639   1.0660   1.0693   1.0697   1.0733
     1.0806   1.0833   1.0863   1.0905   1.0986   1.1021   1.1086   1.1110
     1.1137   1.1141   1.1188   1.1212   1.1246   1.1268   1.1303   1.1313
     1.1341   1.1412   1.1522   1.1591   1.1808   1.1823   1.1844   1.1882
     1.1917   1.1935   1.1993   1.2013   1.2061   1.2095   1.2183   1.2190
     1.2230   1.2288   1.2322   1.2410   1.2460   1.2501   1.2515   1.2519
     1.2603   1.2627   1.2684   1.2705   1.2725   1.2739   1.2769   1.2783
     1.2825   1.2861   1.2940   1.3088   1.3227   1.3274   1.3295   1.3360
     1.3414   1.3421   1.3430   1.3464   1.3471   1.3503   1.3538   1.3566
     1.3581   1.3614   1.3629   1.3658   1.3673   1.3700   1.3739   1.3752
     1.3778   1.3806   1.3817   1.3828   1.3832   1.3872   1.3914   1.3946
     1.3956   1.3974   1.3994   1.4029   1.4087   1.4102   1.4206   1.4320
     1.4344   1.4378   1.4412   1.4436   1.4491   1.4517   1.4529   1.4636
     1.4674   1.4825   1.4865   1.4877   1.4943   1.4978   1.5166   1.5268
     1.5388   1.5439   1.5503   1.5572   1.5627   1.5653   1.5691   1.5813
     1.5868   1.5910   1.5944   1.5976   1.5995   1.6022   1.6062   1.6180
     1.6228   1.6295   1.7808   1.8185   1.8349   1.8371   1.8916   2.3002
     2.3175   2.3188   2.4320   2.5362   2.5416   2.5527   2.5607   2.7537
     2.7673   2.7927   2.8172   2.9593   3.0400   3.0616   3.0755   3.2479
     3.4287   3.4387   3.4477   3.4538   3.6150   3.6218   3.6621   3.7121
     3.9069   3.9160   3.9217   3.9290   4.1705   4.1992   4.2101   4.2257
     4.2380   4.2920   4.3038   4.3548   4.4852   4.5140   4.5250   4.5469
     4.5869   4.6380   4.7055   4.7622   4.9228   4.9282   4.9911   5.0410
     5.0500   5.1123   5.1241   5.1383   5.1566   5.1788   5.2117   5.2544
     5.2580   5.2818   5.3242   5.3538   5.3928   5.4099   5.5565   5.6229
     5.6979   5.7193   5.7297   5.7377   5.7613   5.7657   5.7873   5.8502
     5.8659   5.8787   6.0024   6.7005   6.7251   6.8009   6.8214   6.8861
     6.9259   7.0418   7.0644   7.0976   7.1292   7.1371   7.1529   7.1674
     7.1790   7.1889   7.2224   7.3159   7.3247   7.3621   7.3756   7.3986
     7.4570   7.5283   7.5749   7.7665   7.8566   7.8863   7.9290   8.0268
     8.0605   8.0838   8.1751   8.2165   8.2412   8.2942   8.4194   8.4242
     8.4443   8.4541   8.6558   8.7774   8.7957   8.8433   8.8630   8.8802
     8.8892   8.8986   8.9171   8.9240   8.9395   8.9652   9.0201   9.1065
     9.1318   9.1337   9.1411   9.1464   9.3079   9.4299   9.4370   9.4410
     9.4469   9.4805   9.4974   9.5043   9.5125   9.5283   9.5424   9.8496
     9.9327  10.0125  10.0169

     the Fermi energy is     3.3140 ev

!    total energy              =  -12720.76768686 Ry
     Harris-Foulkes estimate   =  -12720.76768689 Ry
     estimated scf accuracy    <          4.3E-09 Ry

     The total energy is the sum of the following terms:

     one-electron contribution = -108031.50590209 Ry
     hartree contribution      =   55380.37029766 Ry
     xc contribution           =   -4452.61482909 Ry
     ewald contribution        =   44389.31795882 Ry
     Dispersion Correction     =      -2.98925395 Ry
     smearing contrib. (-TS)   =      -3.34595821 Ry

     convergence has been achieved in  44 iterations

     Writing output data file gc.save
 
     init_run     :     99.31s CPU    107.03s WALL (       1 calls)
     electrons    :  12085.42s CPU  12961.45s WALL (       1 calls)

     Called by init_run:
     wfcinit      :     96.97s CPU    104.11s WALL (       1 calls)
     potinit      :      0.38s CPU      0.43s WALL (       1 calls)

     Called by electrons:
     c_bands      :  11096.65s CPU  11868.75s WALL (      44 calls)
     sum_band     :    809.16s CPU    882.64s WALL (      44 calls)
     v_of_rho     :      2.79s CPU      3.56s WALL (      45 calls)
     newd         :      8.10s CPU     14.55s WALL (      45 calls)
     mix_rho      :    168.60s CPU    191.77s WALL (      44 calls)

     Called by c_bands:
     init_us_2    :     36.60s CPU     37.31s WALL (     534 calls)
     cegterg      :  10936.98s CPU  11702.25s WALL (     270 calls)

     Called by sum_band:
     sum_band:bec :      4.54s CPU      5.22s WALL (     264 calls)
     addusdens    :      8.12s CPU     14.47s WALL (      44 calls)

     Called by *egterg:
     h_psi        :   4001.90s CPU   4327.59s WALL (    1844 calls)
     s_psi        :    949.88s CPU    961.77s WALL (    1844 calls)
     g_psi        :     10.12s CPU     10.12s WALL (    1568 calls)
     cdiaghg      :   3211.17s CPU   3337.47s WALL (    1832 calls)

     Called by h_psi:
     add_vuspsi   :    954.78s CPU    969.18s WALL (    1844 calls)

     General routines
     calbec       :   1360.66s CPU   1370.99s WALL (    2108 calls)
     fft          :      3.35s CPU      4.10s WALL (     584 calls)
     ffts         :     98.25s CPU    112.36s WALL (   26253 calls)
     fftw         :   2321.90s CPU   2593.89s WALL ( 1291112 calls)
     davcio       :      0.24s CPU      3.84s WALL (       6 calls)
 
     Parallel routines
     fft_scatter  :   1531.52s CPU   1658.14s WALL ( 1317949 calls)
 
     PWSCF        :     3h23m CPU        3h37m WALL

 
   This run was terminated on:  22:58:16  26Apr2017            

=------------------------------------------------------------------------------=
   JOB DONE.
=------------------------------------------------------------------------------=
