mpirun: INFO: switching to OpenMPI runtime version 1.10.2

     Program PWSCF v.5.4.0 starts on 17Sep2017 at  9:38:40 

     This program is part of the open-source Quantum ESPRESSO suite
     for quantum simulation of materials; please cite
         "P. Giannozzi et al., J. Phys.:Condens. Matter 21 395502 (2009);
          URL http://www.quantum-espresso.org", 
     in publications or presentations arising from this work. More details at
     http://www.quantum-espresso.org/quote

     Parallel version (MPI & OpenMP), running on      28 processor cores
     Number of MPI processes:                28
     Threads/MPI process:                     1
     R & G space division:  proc/nbgrp/npool/nimage =      28
     Waiting for input...
     Reading input from standard input
Warning: card &IONS ignored
Warning: card / ignored

     Current dimensions of program PWSCF are:
     Max number of different atomic species (ntypx) = 10
     Max number of k-points (npk) =  40000
     Max angular momentum in pseudopotentials (lmaxx) =  3
     WARNING: atomic wfc #  2 for atom type 4 has zero norm
     WARNING: atomic wfc #  4 for atom type 4 has zero norm
     WARNING: atomic wfc #  5 for atom type 4 has zero norm

     -------------------------------------
     Parameters for Dispersion Correction:
     -------------------------------------
       atom      VdW radius       C_6     

        Cu         2.952        374.666
        C_h        2.744         60.710
        C          2.744         60.710
        O          2.536         24.284
        H          1.892          4.857

     Subspace diagonalization in iterative solution of the eigenvalue problem:
     one sub-group per band group will be used
     scalapack distributed-memory algorithm (size of sub-group:  3*  3 procs)

 
     Parallelization info
     --------------------
     sticks:   dense  smooth     PW     G-vecs:    dense   smooth      PW
     Min         408     408    108                73226    73226    9928
     Max         410     410    109                73231    73231    9931
     Sum       11433   11433   3039              2050409  2050409  278033
 


     bravais-lattice index     =            0
     lattice parameter (alat)  =      13.9425  a.u.
     unit-cell volume          =   21209.0878 (a.u.)^3
     number of atoms/cell      =          137
     number of atomic types    =            5
     number of electrons       =      1232.00
     number of Kohn-Sham states=          739
     kinetic-energy cutoff     =      80.0000  Ry
     charge density cutoff     =     320.0000  Ry
     convergence threshold     =      1.0E-08
     mixing beta               =       0.7000
     number of iterations used =            8  local-TF  mixing
     Exchange-correlation      =  SLA  PW   PBE  PBE ( 1  4  3  4 0 0)

     celldm(1)=  13.942539  celldm(2)=   0.000000  celldm(3)=   0.000000
     celldm(4)=   0.000000  celldm(5)=   0.000000  celldm(6)=   0.000000

     crystal axes: (cart. coord. in units of alat)
               a(1) = (   1.000000   0.000000   0.000000 )  
               a(2) = (   0.000000   2.309401   0.000000 )  
               a(3) = (   0.000000   0.000000   3.388418 )  

     reciprocal axes: (cart. coord. in units 2 pi/alat)
               b(1) = (  1.000000  0.000000  0.000000 )  
               b(2) = (  0.000000  0.433013  0.000000 )  
               b(3) = (  0.000000  0.000000  0.295123 )  


     PseudoPot. # 1 for Cu read from file:
     /home/549/hxw549/Short/pseudopotentials/Cu.pbe-n-van_ak.UPF
     MD5 check sum: 601f7c30f7467666bec936e0661ce3e1
     Pseudo is Ultrasoft + core correction, Zval = 11.0
     Generated by new atomic code, or converted to UPF format
     Using radial grid of  867 points,  6 beta functions with: 
                l(1) =   0
                l(2) =   0
                l(3) =   1
                l(4) =   1
                l(5) =   2
                l(6) =   2
     Q(r) pseudized with  8 coefficients,  rinner =    1.400   1.400   1.400
                                                       1.400   1.400

     PseudoPot. # 2 for C  read from file:
     /home/549/hxw549/Short/pseudopotentials/C.star1s-pbe-mt_gipaw.UPF
     MD5 check sum: ef0cb3dee31bd9e4ba2a832a2c716264
     Pseudo is Norm-conserving, Zval =  5.0
     Generated by new atomic code, or converted to UPF format
     Using radial grid of 1073 points,  1 beta functions with: 
                l(1) =   0

     PseudoPot. # 3 for C  read from file:
     /home/549/hxw549/Short/pseudopotentials/C.pbe-mt_gipaw.UPF
     MD5 check sum: 5ac2f21f2c440b14befe521540822c15
     Pseudo is Norm-conserving, Zval =  4.0
     Generated by new atomic code, or converted to UPF format
     Using radial grid of 1073 points,  1 beta functions with: 
                l(1) =   0

     PseudoPot. # 4 for O  read from file:
     /home/549/hxw549/Short/pseudopotentials/O.pbe-van_gipaw.UPF
     MD5 check sum: 5ce2a047509d4f331db576c963e74b29
     Pseudo is Ultrasoft, Zval =  6.0
     Generated by new atomic code, or converted to UPF format
     Using radial grid of 1095 points,  4 beta functions with: 
                l(1) =   0
                l(2) =   0
                l(3) =   1
                l(4) =   1
     Q(r) pseudized with 0 coefficients 


     PseudoPot. # 5 for H  read from file:
     /home/549/hxw549/Short/pseudopotentials/H.pbe-van_ak.UPF
     MD5 check sum: 077eb6d537518a38cb46c6de387227b7
     Pseudo is Ultrasoft, Zval =  1.0
     Generated by new atomic code, or converted to UPF format
     Using radial grid of  615 points,  1 beta functions with: 
                l(1) =   0
     Q(r) pseudized with  8 coefficients,  rinner =    0.800

     atomic species   valence    mass     pseudopotential
        Cu            11.00    63.54600     Cu( 1.00)
        C_h            5.00    12.01070     C ( 1.00)
        C              4.00    12.01070     C ( 1.00)
        O              6.00    15.99940     O ( 1.00)
        H              1.00     1.00783     H ( 1.00)

     No symmetry found



   Cartesian axes

     site n.     atom                  positions (alat units)
         1           Cu  tau(   1) = (  -0.0005619   0.0015943   1.0028389  )
         2           Cu  tau(   2) = (   0.2498741   0.2324144   1.0038096  )
         3           Cu  tau(   3) = (   0.5000194   0.0016271   1.0027095  )
         4           Cu  tau(   4) = (   0.7495812   0.2325334   1.0044126  )
         5           Cu  tau(   5) = (  -0.0002216   0.4632350   1.0052844  )
         6           Cu  tau(   6) = (   0.2496533   0.6933831   1.0049798  )
         7           Cu  tau(   7) = (   0.4996289   0.4630672   1.0050786  )
         8           Cu  tau(   8) = (   0.7497671   0.6935311   1.0052261  )
         9           Cu  tau(   9) = (  -0.0002637   0.9246448   1.0034687  )
        10           Cu  tau(  10) = (   0.2498661   1.1563934   1.0021176  )
        11           Cu  tau(  11) = (   0.4997825   0.9244169   1.0040646  )
        12           Cu  tau(  12) = (   0.7497293   1.1565849   1.0019950  )
        13           Cu  tau(  13) = (  -0.0001756   1.3882973   1.0012062  )
        14           Cu  tau(  14) = (   0.2497085   1.6194468   1.0019522  )
        15           Cu  tau(  15) = (   0.4997973   1.3884667   1.0017055  )
        16           Cu  tau(  16) = (   0.7498731   1.6193503   1.0020012  )
        17           Cu  tau(  17) = (  -0.0001568   1.8498662   1.0024029  )
        18           Cu  tau(  18) = (   0.2497442   2.0806683   1.0024606  )
        19           Cu  tau(  19) = (   0.4996922   1.8498589   1.0025022  )
        20           Cu  tau(  20) = (   0.7497012   2.0801387   1.0025445  )
        21           Cu  tau(  21) = (  -0.0001646   0.2311136   1.2524032  )
        22           Cu  tau(  22) = (   0.2497827   0.0005673   1.2515451  )
        23           Cu  tau(  23) = (   0.4998267   0.2312564   1.2525107  )
        24           Cu  tau(  24) = (   0.7498701   0.0004646   1.2519267  )
        25           Cu  tau(  25) = (  -0.0002982   0.6950577   1.2535478  )
        26           Cu  tau(  26) = (   0.2496673   0.4625352   1.2537329  )
        27           Cu  tau(  27) = (   0.4996258   0.6943900   1.2533935  )
        28           Cu  tau(  28) = (   0.7498035   0.4627648   1.2538221  )
        29           Cu  tau(  29) = (  -0.0002931   1.1577299   1.2497326  )
        30           Cu  tau(  30) = (   0.2495991   0.9267892   1.2513602  )
        31           Cu  tau(  31) = (   0.4997031   1.1576755   1.2498004  )
        32           Cu  tau(  32) = (   0.7497089   0.9266601   1.2512864  )
        33           Cu  tau(  33) = (  -0.0003273   1.6187864   1.2508068  )
        34           Cu  tau(  34) = (   0.2496453   1.3883370   1.2496338  )
        35           Cu  tau(  35) = (   0.4998046   1.6191763   1.2508740  )
        36           Cu  tau(  36) = (   0.7498429   1.3882396   1.2497203  )
        37           Cu  tau(  37) = (  -0.0001781   2.0798569   1.2515389  )
        38           Cu  tau(  38) = (   0.2496966   1.8494748   1.2513460  )
        39           Cu  tau(  39) = (   0.4997631   2.0798116   1.2513614  )
        40           Cu  tau(  40) = (   0.7498186   1.8495649   1.2515885  )
        41           Cu  tau(  41) = (  -0.0001590  -0.0005274   1.5024781  )
        42           Cu  tau(  42) = (   0.2499296   0.2293205   1.5022331  )
        43           Cu  tau(  43) = (   0.4998288  -0.0003312   1.5020517  )
        44           Cu  tau(  44) = (   0.7495363   0.2293965   1.5022152  )
        45           Cu  tau(  45) = (  -0.0003895   0.4619420   1.5013914  )
        46           Cu  tau(  46) = (   0.2497260   0.6965524   1.5003344  )
        47           Cu  tau(  47) = (   0.4997883   0.4614861   1.5022575  )
        48           Cu  tau(  48) = (   0.7495697   0.6970057   1.5010386  )
        49           Cu  tau(  49) = (  -0.0004910   0.9295803   1.5013257  )
        50           Cu  tau(  50) = (   0.2496062   1.1591271   1.5007273  )
        51           Cu  tau(  51) = (   0.4996644   0.9288829   1.5005880  )
        52           Cu  tau(  52) = (   0.7497057   1.1589081   1.5004876  )
        53           Cu  tau(  53) = (  -0.0003614   1.3877203   1.5006147  )
        54           Cu  tau(  54) = (   0.2497764   1.6180133   1.5003111  )
        55           Cu  tau(  55) = (   0.4998902   1.3880254   1.4999800  )
        56           Cu  tau(  56) = (   0.7497721   1.6178207   1.5005371  )
        57           Cu  tau(  57) = (  -0.0003429   1.8492007   1.5012825  )
        58           Cu  tau(  58) = (   0.2499885   2.0796369   1.5020444  )
        59           Cu  tau(  59) = (   0.4999475   1.8499928   1.5017734  )
        60           Cu  tau(  60) = (   0.7498022   2.0799041   1.5024932  )
        61           Cu  tau(  61) = (  -0.0005676   0.2292750   1.7509925  )
        62           Cu  tau(  62) = (   0.2501893  -0.0017212   1.7546341  )
        63           Cu  tau(  63) = (   0.4997183   0.2264903   1.7544565  )
        64           Cu  tau(  64) = (   0.7493801  -0.0010907   1.7550939  )
        65           Cu  tau(  65) = (  -0.0006329   0.6965920   1.7460884  )
        66           Cu  tau(  66) = (   0.2504826   0.4639226   1.7457498  )
        67           Cu  tau(  67) = (   0.4999279   0.6972261   1.7472425  )
        68           Cu  tau(  68) = (   0.7487737   0.4634697   1.7458242  )
        69           Cu  tau(  69) = (  -0.0008857   1.1611621   1.7547443  )
        70           Cu  tau(  70) = (   0.2494027   0.9291279   1.7492034  )
        71           Cu  tau(  71) = (   0.5001418   1.1599533   1.7520832  )
        72           Cu  tau(  72) = (   0.7498332   0.9307805   1.7514756  )
        73           Cu  tau(  73) = (  -0.0003842   1.6176803   1.7507105  )
        74           Cu  tau(  74) = (   0.2498641   1.3892969   1.7515633  )
        75           Cu  tau(  75) = (   0.5003178   1.6184310   1.7500136  )
        76           Cu  tau(  76) = (   0.7502796   1.3887915   1.7528806  )
        77           Cu  tau(  77) = (  -0.0000922   2.0781517   1.7533502  )
        78           Cu  tau(  78) = (   0.2503132   1.8481795   1.7489267  )
        79           Cu  tau(  79) = (   0.5001702   2.0812684   1.7554929  )
        80           Cu  tau(  80) = (   0.7497630   1.8477725   1.7498958  )
        81           Cu  tau(  81) = (  -0.0003692   0.0002569   2.0027041  )
        82           Cu  tau(  82) = (   0.2490333   0.2362979   1.9901154  )
        83           Cu  tau(  83) = (   0.4992424  -0.0033930   2.0175064  )
        84           Cu  tau(  84) = (   0.7497784   0.2369384   1.9915191  )
        85           Cu  tau(  85) = (   0.0000806   0.4667818   1.9893363  )
        86           Cu  tau(  86) = (   0.2509789   0.6958344   1.9907620  )
        87           Cu  tau(  87) = (   0.4990271   0.4652946   1.9920333  )
        88           Cu  tau(  88) = (   0.7482239   0.6940536   1.9909491  )
        89           Cu  tau(  89) = (  -0.0013840   0.9231224   1.9940232  )
        90           Cu  tau(  90) = (   0.2478164   1.1578735   1.9969103  )
        91           Cu  tau(  91) = (   0.5006155   0.9276871   1.9946025  )
        92           Cu  tau(  92) = (   0.7519373   1.1625024   2.0038681  )
        93           Cu  tau(  93) = (   0.0038248   1.3939221   2.0086479  )
        94           Cu  tau(  94) = (   0.2511165   1.6218682   1.9982503  )
        95           Cu  tau(  95) = (   0.4985995   1.3903525   2.0002799  )
        96           Cu  tau(  96) = (   0.7491902   1.6187986   2.0008268  )
        97           Cu  tau(  97) = (  -0.0005401   1.8448091   2.0031372  )
        98           Cu  tau(  98) = (   0.2475886   2.0732432   1.9986936  )
        99           Cu  tau(  99) = (   0.5009393   1.8482968   2.0007888  )
       100           Cu  tau( 100) = (   0.7524323   2.0743927   1.9988692  )
       101           C   tau( 101) = (   0.0035361   0.0856153   2.3666063  )
       102           C   tau( 102) = (   0.0032264   0.2806828   2.3765038  )
       103           C   tau( 103) = (   0.1703393  -0.0079473   2.3588949  )
       104           C   tau( 104) = (   0.1694588   0.3772553   2.3785755  )
       105           C   tau( 105) = (   0.3360593   0.0859640   2.3543543  )
       106           C   tau( 106) = (   0.3360224   0.2807963   2.3662419  )
       107           C   tau( 107) = (   0.5034875  -0.0079553   2.3303711  )
       108           C   tau( 108) = (   0.5029082   0.3776819   2.3684728  )
       109           C   tau( 109) = (   0.6708844   0.0861882   2.3528874  )
       110           C   tau( 110) = (   0.6702334   0.2809788   2.3653849  )
       111           C   tau( 111) = (   0.8368418  -0.0077564   2.3566518  )
       112           C   tau( 112) = (   0.8367117   0.3773083   2.3780646  )
       113           C   tau( 113) = (   0.0028440   0.6680426   2.3862825  )
       114           C   tau( 114) = (   0.0025747   0.8619402   2.3817814  )
       115           C   tau( 115) = (   0.1691976   0.5710863   2.3841029  )
       116           C   tau( 116) = (   0.1691741   0.9590583   2.3795127  )
       117           C   tau( 117) = (   0.3356383   0.6680720   2.3813694  )
       118           C   tau( 118) = (   0.3353311   0.8619195   2.3813268  )
       119           C   tau( 119) = (   0.5026451   0.5712497   2.3779478  )
       120           C   tau( 120) = (   0.5019825   0.9582102   2.3793710  )
       121           C   tau( 121) = (   0.6694469   0.6678791   2.3808357  )
       122           C   tau( 122) = (   0.6690770   0.8615883   2.3807916  )
       123           C   tau( 123) = (   0.8364262   0.5711434   2.3835022  )
       124           C   tau( 124) = (   0.8355452   0.9581181   2.3783808  )
       125           C   tau( 125) = (   0.0010155   1.2482377   2.3733003  )
       126           C   tau( 126) = (   0.1677341   1.1547046   2.3768157  )
       127           C_h tau( 127) = (   0.3359412   1.2474588   2.3783525  )
       128           C   tau( 128) = (   0.5027348   1.1529983   2.3782279  )
       129           C   tau( 129) = (   0.6683946   1.2470019   2.3670396  )
       130           C   tau( 130) = (   0.8349958   1.1529673   2.3712010  )
       131           H   tau( 131) = (   0.1703124  -0.1558825   2.3542720  )
       132           H   tau( 132) = (   0.5036468  -0.1555731   2.3419254  )
       133           H   tau( 133) = (   0.8367549  -0.1557556   2.3520774  )
       134           H   tau( 134) = (  -0.0038260   1.3952395   2.3878624  )
       135           O   tau( 135) = (   0.3451189   1.4329301   2.3821454  )
       136           H   tau( 136) = (   0.2536346   1.4867771   2.2985179  )
       137           H   tau( 137) = (   0.6682628   1.3945325   2.3654952  )

     number of k points=     6  gaussian smearing, width (Ry)=  0.1000
                       cart. coord. in units 2pi/alat
        k(    1) = (   0.0000000   0.0000000   0.0000000), wk =   0.2500000
        k(    2) = (   0.0000000  -0.2165064   0.0000000), wk =   0.2500000
        k(    3) = (   0.2500000   0.0000000   0.0000000), wk =   0.5000000
        k(    4) = (   0.2500000  -0.2165064   0.0000000), wk =   0.5000000
        k(    5) = (  -0.5000000   0.0000000   0.0000000), wk =   0.2500000
        k(    6) = (  -0.5000000  -0.2165064   0.0000000), wk =   0.2500000

     Dense  grid:  2050409 G-vectors     FFT dimensions: (  80, 192, 270)

     Largest allocated arrays     est. size (Mb)     dimensions
        Kohn-Sham Wavefunctions       103.41 Mb     (    9171,  739)
        NL pseudopotentials           258.05 Mb     (    9171, 1844)
        Each V/rho on FFT grid          2.34 Mb     (  153600)
        Each G-vector array             0.56 Mb     (   73230)
        G-vector shells                 0.27 Mb     (   35784)
     Largest temporary arrays     est. size (Mb)     dimensions
        Auxiliary wavefunctions       413.66 Mb     (    9171, 2956)
        Each subspace H/S matrix       14.80 Mb     (     985,  985)
        Each <psi_i|beta_j> matrix     20.79 Mb     (    1844,  739)
        Arrays for rho mixing          18.75 Mb     (  153600,    8)

     Initial potential from superposition of free atoms
     Check: negative starting charge=   -0.002183

     starting charge 1215.81748, renormalised to 1232.00000

     negative rho (up, down):  2.212E-03 0.000E+00
     Starting wfc are 1150 randomized atomic wfcs

     total cpu time spent up to now is      180.3 secs

     Self-consistent Calculation

     iteration #  1     ecut=    80.00 Ry     beta=0.70
     Davidson diagonalization with overlap
     c_bands:  1 eigenvalues not converged
     c_bands:  1 eigenvalues not converged
     ethr =  1.00E-04,  avg # of iterations = 20.0

     negative rho (up, down):  2.778E+01 0.000E+00

     total cpu time spent up to now is     3189.8 secs

     total energy              =   -8400.71676097 Ry
     Harris-Foulkes estimate   =  -14978.58002579 Ry
     estimated scf accuracy    <  145486.71112859 Ry

     iteration #  2     ecut=    80.00 Ry     beta=0.70
     Davidson diagonalization with overlap
     ethr =  1.00E-02,  avg # of iterations = 13.8

     negative rho (up, down):  2.018E+01 0.000E+00

     total cpu time spent up to now is     4844.9 secs

     total energy              =  -12597.61189144 Ry
     Harris-Foulkes estimate   =  -13172.37963563 Ry
     estimated scf accuracy    <    1727.57135141 Ry

     iteration #  3     ecut=    80.00 Ry     beta=0.70
     Davidson diagonalization with overlap
     ethr =  1.00E-02,  avg # of iterations =  4.8

     negative rho (up, down):  1.629E+01 0.000E+00

     total cpu time spent up to now is     5482.7 secs

     total energy              =  -12672.17738056 Ry
     Harris-Foulkes estimate   =  -12744.37824217 Ry
     estimated scf accuracy    <     894.04539888 Ry

     iteration #  4     ecut=    80.00 Ry     beta=0.70
     Davidson diagonalization with overlap
     ethr =  1.00E-02,  avg # of iterations =  4.0

     negative rho (up, down):  1.521E+01 0.000E+00

     total cpu time spent up to now is     5947.6 secs

     total energy              =  -12667.96496986 Ry
     Harris-Foulkes estimate   =  -12702.00538192 Ry
     estimated scf accuracy    <     959.94523721 Ry

     iteration #  5     ecut=    80.00 Ry     beta=0.70
     Davidson diagonalization with overlap
     ethr =  1.00E-02,  avg # of iterations =  2.8

     negative rho (up, down):  1.012E+01 0.000E+00

     total cpu time spent up to now is     6299.4 secs

     total energy              =  -12647.53262955 Ry
     Harris-Foulkes estimate   =  -12689.91611214 Ry
     estimated scf accuracy    <     300.07043133 Ry

     iteration #  6     ecut=    80.00 Ry     beta=0.70
     Davidson diagonalization with overlap
     ethr =  1.00E-02,  avg # of iterations =  3.3

     negative rho (up, down):  7.972E+00 0.000E+00

     total cpu time spent up to now is     6669.5 secs

     total energy              =  -12625.60723402 Ry
     Harris-Foulkes estimate   =  -12669.62507808 Ry
     estimated scf accuracy    <     709.63555009 Ry

     iteration #  7     ecut=    80.00 Ry     beta=0.70
     Davidson diagonalization with overlap
     ethr =  1.00E-02,  avg # of iterations =  2.8

     negative rho (up, down):  6.185E+00 0.000E+00

     total cpu time spent up to now is     7017.8 secs

     total energy              =  -12627.88836520 Ry
     Harris-Foulkes estimate   =  -12652.78778113 Ry
     estimated scf accuracy    <     326.15562066 Ry

     iteration #  8     ecut=    80.00 Ry     beta=0.70
     Davidson diagonalization with overlap
     ethr =  1.00E-02,  avg # of iterations =  1.0

     negative rho (up, down):  2.556E+00 0.000E+00

     total cpu time spent up to now is     7322.5 secs

     total energy              =  -12593.92738000 Ry
     Harris-Foulkes estimate   =  -12630.83891645 Ry
     estimated scf accuracy    <     227.60908469 Ry

     iteration #  9     ecut=    80.00 Ry     beta=0.70
     Davidson diagonalization with overlap
     ethr =  1.00E-02,  avg # of iterations =  1.8

     negative rho (up, down):  1.258E+00 0.000E+00

     total cpu time spent up to now is     7645.4 secs

     total energy              =  -12580.04932595 Ry
     Harris-Foulkes estimate   =  -12598.37368326 Ry
     estimated scf accuracy    <     155.29361733 Ry

     iteration # 10     ecut=    80.00 Ry     beta=0.70
     Davidson diagonalization with overlap
     ethr =  1.00E-02,  avg # of iterations =  1.2

     negative rho (up, down):  4.521E+00 0.000E+00

     total cpu time spent up to now is     7954.0 secs

     total energy              =  -12555.53492084 Ry
     Harris-Foulkes estimate   =  -12584.75236185 Ry
     estimated scf accuracy    <     101.62805862 Ry

     iteration # 11     ecut=    80.00 Ry     beta=0.70
     Davidson diagonalization with overlap
     ethr =  8.25E-03,  avg # of iterations =  2.2

     negative rho (up, down):  7.028E+00 0.000E+00

     total cpu time spent up to now is     8279.6 secs

     total energy              =  -12550.50130320 Ry
     Harris-Foulkes estimate   =  -12558.86626277 Ry
     estimated scf accuracy    <      72.39866662 Ry

     iteration # 12     ecut=    80.00 Ry     beta=0.70
     Davidson diagonalization with overlap
     ethr =  5.88E-03,  avg # of iterations =  1.3

     negative rho (up, down):  8.101E+00 0.000E+00

     total cpu time spent up to now is     8590.5 secs

     total energy              =  -12549.04716243 Ry
     Harris-Foulkes estimate   =  -12553.53944696 Ry
     estimated scf accuracy    <      64.61740903 Ry

     iteration # 13     ecut=    80.00 Ry     beta=0.70
     Davidson diagonalization with overlap
     ethr =  5.24E-03,  avg # of iterations =  1.0

     negative rho (up, down):  4.611E+00 0.000E+00

     total cpu time spent up to now is     8897.0 secs

     total energy              =  -12547.61926935 Ry
     Harris-Foulkes estimate   =  -12551.35665716 Ry
     estimated scf accuracy    <      34.01636398 Ry

     iteration # 14     ecut=    80.00 Ry     beta=0.70
     Davidson diagonalization with overlap
     ethr =  2.76E-03,  avg # of iterations =  2.0

     negative rho (up, down):  3.827E+00 0.000E+00

     total cpu time spent up to now is     9225.8 secs

     total energy              =  -12543.25811936 Ry
     Harris-Foulkes estimate   =  -12551.53724768 Ry
     estimated scf accuracy    <      95.31975389 Ry

     iteration # 15     ecut=    80.00 Ry     beta=0.70
     Davidson diagonalization with overlap
     ethr =  2.76E-03,  avg # of iterations =  2.3

     negative rho (up, down):  4.246E+00 0.000E+00

     total cpu time spent up to now is     9554.9 secs

     total energy              =  -12546.18888192 Ry
     Harris-Foulkes estimate   =  -12547.30447536 Ry
     estimated scf accuracy    <      15.88630000 Ry

     iteration # 16     ecut=    80.00 Ry     beta=0.70
     Davidson diagonalization with overlap
     ethr =  1.29E-03,  avg # of iterations =  2.2

     negative rho (up, down):  4.245E+00 0.000E+00

     total cpu time spent up to now is     9887.0 secs

     total energy              =  -12545.82250696 Ry
     Harris-Foulkes estimate   =  -12546.84502086 Ry
     estimated scf accuracy    <       9.92759850 Ry

     iteration # 17     ecut=    80.00 Ry     beta=0.70
     Davidson diagonalization with overlap
     ethr =  8.06E-04,  avg # of iterations =  5.8

     negative rho (up, down):  1.723E+00 0.000E+00

     total cpu time spent up to now is    10307.1 secs

     total energy              =  -12543.79307508 Ry
     Harris-Foulkes estimate   =  -12546.05746320 Ry
     estimated scf accuracy    <       9.46773683 Ry

     iteration # 18     ecut=    80.00 Ry     beta=0.70
     Davidson diagonalization with overlap
     ethr =  7.68E-04,  avg # of iterations =  4.0

     negative rho (up, down):  1.043E+00 0.000E+00

     total cpu time spent up to now is    10667.6 secs

     total energy              =  -12543.44493822 Ry
     Harris-Foulkes estimate   =  -12544.00818180 Ry
     estimated scf accuracy    <       7.22022526 Ry

     iteration # 19     ecut=    80.00 Ry     beta=0.70
     Davidson diagonalization with overlap
     ethr =  5.86E-04,  avg # of iterations =  8.0

     negative rho (up, down):  8.867E-01 0.000E+00

     total cpu time spent up to now is    11102.0 secs

     total energy              =  -12542.29591174 Ry
     Harris-Foulkes estimate   =  -12543.70895239 Ry
     estimated scf accuracy    <       6.53243379 Ry

     iteration # 20     ecut=    80.00 Ry     beta=0.70
     Davidson diagonalization with overlap
     ethr =  5.30E-04,  avg # of iterations =  4.7

     negative rho (up, down):  6.444E-01 0.000E+00

     total cpu time spent up to now is    11480.2 secs

     total energy              =  -12542.19118414 Ry
     Harris-Foulkes estimate   =  -12542.44445749 Ry
     estimated scf accuracy    <      11.05310680 Ry

     iteration # 21     ecut=    80.00 Ry     beta=0.70
     Davidson diagonalization with overlap
     ethr =  5.30E-04,  avg # of iterations =  4.8

     negative rho (up, down):  1.342E-01 0.000E+00

     total cpu time spent up to now is    11852.4 secs

     total energy              =  -12541.88855163 Ry
     Harris-Foulkes estimate   =  -12542.22166085 Ry
     estimated scf accuracy    <       8.74410400 Ry

     iteration # 22     ecut=    80.00 Ry     beta=0.70
     Davidson diagonalization with overlap
     ethr =  5.30E-04,  avg # of iterations =  4.8

     negative rho (up, down):  1.943E-01 0.000E+00

     total cpu time spent up to now is    12226.7 secs

     total energy              =  -12541.89824638 Ry
     Harris-Foulkes estimate   =  -12542.12087015 Ry
     estimated scf accuracy    <       6.13025479 Ry

     iteration # 23     ecut=    80.00 Ry     beta=0.70
     Davidson diagonalization with overlap
     ethr =  4.98E-04,  avg # of iterations =  5.2

     negative rho (up, down):  3.424E-01 0.000E+00

     total cpu time spent up to now is    12607.1 secs

     total energy              =  -12541.66074633 Ry
     Harris-Foulkes estimate   =  -12542.04871664 Ry
     estimated scf accuracy    <       5.82426496 Ry

     iteration # 24     ecut=    80.00 Ry     beta=0.70
     Davidson diagonalization with overlap
     ethr =  4.73E-04,  avg # of iterations =  1.5

     negative rho (up, down):  2.766E-02 0.000E+00

     total cpu time spent up to now is    12921.3 secs

     total energy              =  -12541.31311448 Ry
     Harris-Foulkes estimate   =  -12541.82011587 Ry
     estimated scf accuracy    <       6.57239190 Ry

     iteration # 25     ecut=    80.00 Ry     beta=0.70
     Davidson diagonalization with overlap
     ethr =  4.73E-04,  avg # of iterations =  3.2

     negative rho (up, down):  2.128E-04 0.000E+00

     total cpu time spent up to now is    13265.7 secs

     total energy              =  -12541.29001874 Ry
     Harris-Foulkes estimate   =  -12541.56916320 Ry
     estimated scf accuracy    <       2.94268274 Ry

     iteration # 26     ecut=    80.00 Ry     beta=0.70
     Davidson diagonalization with overlap
     ethr =  2.39E-04,  avg # of iterations =  3.3

     negative rho (up, down):  1.156E-01 0.000E+00

     total cpu time spent up to now is    13618.1 secs

     total energy              =  -12540.68431755 Ry
     Harris-Foulkes estimate   =  -12541.41609497 Ry
     estimated scf accuracy    <       2.36037098 Ry

     iteration # 27     ecut=    80.00 Ry     beta=0.70
     Davidson diagonalization with overlap
     ethr =  1.92E-04,  avg # of iterations =  5.7

     negative rho (up, down):  1.892E-01 0.000E+00

     total cpu time spent up to now is    14026.0 secs

     total energy              =  -12540.40904709 Ry
     Harris-Foulkes estimate   =  -12540.79815845 Ry
     estimated scf accuracy    <       1.55775828 Ry

     iteration # 28     ecut=    80.00 Ry     beta=0.70
     Davidson diagonalization with overlap
     ethr =  1.26E-04,  avg # of iterations =  7.0

     negative rho (up, down):  2.645E-01 0.000E+00

     total cpu time spent up to now is    14487.0 secs

     total energy              =  -12540.46181099 Ry
     Harris-Foulkes estimate   =  -12540.50688550 Ry
     estimated scf accuracy    <       1.03555313 Ry

     iteration # 29     ecut=    80.00 Ry     beta=0.70
     Davidson diagonalization with overlap
     ethr =  8.41E-05,  avg # of iterations = 10.8

     negative rho (up, down):  3.555E-01 0.000E+00

     total cpu time spent up to now is    15005.2 secs

     total energy              =  -12540.45852653 Ry
     Harris-Foulkes estimate   =  -12540.51396040 Ry
     estimated scf accuracy    <       0.38009197 Ry

     iteration # 30     ecut=    80.00 Ry     beta=0.70
     Davidson diagonalization with overlap
     ethr =  3.09E-05,  avg # of iterations =  7.0

     negative rho (up, down):  2.073E-01 0.000E+00

     total cpu time spent up to now is    15449.1 secs

     total energy              =  -12540.40264768 Ry
     Harris-Foulkes estimate   =  -12540.47039248 Ry
     estimated scf accuracy    <       0.20318681 Ry

     iteration # 31     ecut=    80.00 Ry     beta=0.70
     Davidson diagonalization with overlap
     ethr =  1.65E-05,  avg # of iterations =  8.0

     negative rho (up, down):  7.392E-02 0.000E+00

     total cpu time spent up to now is    15923.8 secs

     total energy              =  -12540.38938935 Ry
     Harris-Foulkes estimate   =  -12540.41432210 Ry
     estimated scf accuracy    <       0.08197631 Ry

     iteration # 32     ecut=    80.00 Ry     beta=0.70
     Davidson diagonalization with overlap
     c_bands:  1 eigenvalues not converged
     ethr =  6.65E-06,  avg # of iterations = 11.8

     negative rho (up, down):  6.001E-02 0.000E+00

     total cpu time spent up to now is    16498.5 secs

     total energy              =  -12540.38780448 Ry
     Harris-Foulkes estimate   =  -12540.39763217 Ry
     estimated scf accuracy    <       0.04028931 Ry

     iteration # 33     ecut=    80.00 Ry     beta=0.70
     Davidson diagonalization with overlap
     ethr =  3.27E-06,  avg # of iterations = 11.0

     negative rho (up, down):  6.392E-02 0.000E+00

     total cpu time spent up to now is    17043.1 secs

     total energy              =  -12540.39041203 Ry
     Harris-Foulkes estimate   =  -12540.39417596 Ry
     estimated scf accuracy    <       0.02149480 Ry

     iteration # 34     ecut=    80.00 Ry     beta=0.70
     Davidson diagonalization with overlap
     ethr =  1.74E-06,  avg # of iterations = 11.0

     negative rho (up, down):  6.774E-02 0.000E+00

     total cpu time spent up to now is    17595.5 secs

     total energy              =  -12540.39239291 Ry
     Harris-Foulkes estimate   =  -12540.39204275 Ry
     estimated scf accuracy    <       0.00405215 Ry

     iteration # 35     ecut=    80.00 Ry     beta=0.70
     Davidson diagonalization with overlap
     ethr =  3.29E-07,  avg # of iterations =  7.0

     negative rho (up, down):  2.179E-02 0.000E+00

     total cpu time spent up to now is    18048.2 secs

     total energy              =  -12540.39182920 Ry
     Harris-Foulkes estimate   =  -12540.39260209 Ry
     estimated scf accuracy    <       0.00155472 Ry

     iteration # 36     ecut=    80.00 Ry     beta=0.70
     Davidson diagonalization with overlap
     c_bands:  1 eigenvalues not converged
     ethr =  1.26E-07,  avg # of iterations = 14.0

     negative rho (up, down):  1.595E-02 0.000E+00

     total cpu time spent up to now is    18668.6 secs

     total energy              =  -12540.39193206 Ry
     Harris-Foulkes estimate   =  -12540.39194779 Ry
     estimated scf accuracy    <       0.00051534 Ry

     iteration # 37     ecut=    80.00 Ry     beta=0.70
     Davidson diagonalization with overlap
     ethr =  4.18E-08,  avg # of iterations =  9.3

     negative rho (up, down):  1.241E-02 0.000E+00

     total cpu time spent up to now is    19163.9 secs

     total energy              =  -12540.39198021 Ry
     Harris-Foulkes estimate   =  -12540.39196881 Ry
     estimated scf accuracy    <       0.00017485 Ry

     iteration # 38     ecut=    80.00 Ry     beta=0.70
     Davidson diagonalization with overlap
     ethr =  1.42E-08,  avg # of iterations =  7.5

     negative rho (up, down):  7.176E-03 0.000E+00

     total cpu time spent up to now is    19630.2 secs

     total energy              =  -12540.39191565 Ry
     Harris-Foulkes estimate   =  -12540.39199908 Ry
     estimated scf accuracy    <       0.00008596 Ry

     iteration # 39     ecut=    80.00 Ry     beta=0.70
     Davidson diagonalization with overlap
     ethr =  6.98E-09,  avg # of iterations =  9.8

     negative rho (up, down):  5.182E-03 0.000E+00

     total cpu time spent up to now is    20135.7 secs

     total energy              =  -12540.39188645 Ry
     Harris-Foulkes estimate   =  -12540.39192040 Ry
     estimated scf accuracy    <       0.00002547 Ry

     iteration # 40     ecut=    80.00 Ry     beta=0.70
     Davidson diagonalization with overlap
     ethr =  2.07E-09,  avg # of iterations =  3.5

     negative rho (up, down):  3.810E-03 0.000E+00

     total cpu time spent up to now is    20509.5 secs

     total energy              =  -12540.39186578 Ry
     Harris-Foulkes estimate   =  -12540.39188795 Ry
     estimated scf accuracy    <       0.00001442 Ry

     iteration # 41     ecut=    80.00 Ry     beta=0.70
     Davidson diagonalization with overlap
     c_bands:  1 eigenvalues not converged
     ethr =  1.17E-09,  avg # of iterations =  7.7

     negative rho (up, down):  3.137E-03 0.000E+00

     total cpu time spent up to now is    20972.0 secs

     total energy              =  -12540.39186136 Ry
     Harris-Foulkes estimate   =  -12540.39186678 Ry
     estimated scf accuracy    <       0.00000697 Ry

     iteration # 42     ecut=    80.00 Ry     beta=0.70
     Davidson diagonalization with overlap
     ethr =  5.66E-10,  avg # of iterations =  5.2

     negative rho (up, down):  2.638E-03 0.000E+00

     total cpu time spent up to now is    21369.1 secs

     total energy              =  -12540.39186042 Ry
     Harris-Foulkes estimate   =  -12540.39186189 Ry
     estimated scf accuracy    <       0.00000266 Ry

     iteration # 43     ecut=    80.00 Ry     beta=0.70
     Davidson diagonalization with overlap
     ethr =  2.16E-10,  avg # of iterations =  2.0

     negative rho (up, down):  2.532E-03 0.000E+00

     total cpu time spent up to now is    21711.0 secs

     total energy              =  -12540.39186077 Ry
     Harris-Foulkes estimate   =  -12540.39186064 Ry
     estimated scf accuracy    <       0.00000056 Ry

     iteration # 44     ecut=    80.00 Ry     beta=0.70
     Davidson diagonalization with overlap
     ethr =  4.54E-11,  avg # of iterations =  2.2

     negative rho (up, down):  2.448E-03 0.000E+00

     total cpu time spent up to now is    22062.9 secs

     total energy              =  -12540.39186100 Ry
     Harris-Foulkes estimate   =  -12540.39186083 Ry
     estimated scf accuracy    <       0.00000018 Ry

     iteration # 45     ecut=    80.00 Ry     beta=0.70
     Davidson diagonalization with overlap
     ethr =  1.45E-11,  avg # of iterations =  3.2

     negative rho (up, down):  2.423E-03 0.000E+00

     total cpu time spent up to now is    22431.1 secs

     total energy              =  -12540.39186105 Ry
     Harris-Foulkes estimate   =  -12540.39186102 Ry
     estimated scf accuracy    <       0.00000005 Ry

     iteration # 46     ecut=    80.00 Ry     beta=0.70
     Davidson diagonalization with overlap
     ethr =  4.30E-12,  avg # of iterations =  2.8

     negative rho (up, down):  2.415E-03 0.000E+00

     total cpu time spent up to now is    22789.0 secs

     total energy              =  -12540.39186108 Ry
     Harris-Foulkes estimate   =  -12540.39186106 Ry
     estimated scf accuracy    <       0.00000002 Ry

     iteration # 47     ecut=    80.00 Ry     beta=0.70
     Davidson diagonalization with overlap
     ethr =  1.23E-12,  avg # of iterations =  3.0

     negative rho (up, down):  2.418E-03 0.000E+00

     total cpu time spent up to now is    23145.3 secs

     End of self-consistent calculation

          k = 0.0000 0.0000 0.0000 (256287 PWs)   bands (ev):

   -21.3464 -16.8309 -16.3121 -15.4580 -14.8736 -14.8605 -14.4455 -14.3429
   -14.0445 -13.5056 -13.4700 -12.6199 -12.3069 -12.2658 -10.9885 -10.8660
   -10.0469  -9.6501  -9.6207  -9.3024  -8.9694  -8.7685  -8.3040  -8.0126
    -7.8286  -7.7223  -7.2686  -7.0672  -6.8750  -6.5825  -6.4199  -6.0727
    -6.0537  -6.0511  -5.8337  -5.8290  -5.7619  -5.5345  -5.3836  -5.1385
    -4.9804  -4.8194  -4.7557  -4.5615  -4.5465  -4.3822  -4.2452  -4.0107
    -3.9737  -3.9644  -3.8340  -3.7494  -3.6718  -3.6599  -3.6042  -3.5923
    -3.5789  -3.5720  -3.5675  -3.5651  -3.5433  -3.3860  -3.3507  -3.2923
    -3.2370  -3.1849  -3.1658  -3.1341  -3.1182  -2.9381  -2.9174  -2.9044
    -2.9017  -2.8208  -2.7722  -2.7643  -2.7564  -2.7236  -2.7206  -2.7179
    -2.7144  -2.6925  -2.6597  -2.5904  -2.5891  -2.5862  -2.5842  -2.5233
    -2.4686  -2.4439  -2.4129  -2.3445  -2.3178  -2.3088  -2.3011  -2.2957
    -2.2799  -2.2537  -2.2430  -2.2270  -2.2194  -2.2180  -2.1902  -2.1689
    -2.1413  -2.1395  -2.1365  -2.1243  -2.1065  -2.0924  -2.0867  -2.0802
    -2.0722  -2.0514  -2.0151  -2.0112  -1.9831  -1.9587  -1.9436  -1.9216
    -1.8881  -1.8689  -1.8566  -1.8365  -1.8267  -1.8184  -1.7938  -1.7806
    -1.7799  -1.7645  -1.7623  -1.7545  -1.7396  -1.7290  -1.6802  -1.6281
    -1.6206  -1.6202  -1.6038  -1.6023  -1.6006  -1.5996  -1.5965  -1.5950
    -1.5914  -1.5902  -1.5789  -1.5732  -1.5700  -1.5676  -1.5555  -1.5393
    -1.5199  -1.5104  -1.5062  -1.4967  -1.4872  -1.4855  -1.4805  -1.4389
    -1.4335  -1.4297  -1.4293  -1.4269  -1.4246  -1.4235  -1.4225  -1.4190
    -1.4168  -1.4165  -1.4107  -1.4098  -1.4098  -1.4087  -1.3979  -1.3928
    -1.3511  -1.3361  -1.2625  -1.2580  -1.2537  -1.2501  -1.2426  -1.2306
    -1.2184  -1.2095  -1.2091  -1.1918  -1.1871  -1.1752  -1.1727  -1.1708
    -1.1620  -1.1583  -1.1411  -1.1347  -1.1294  -1.1267  -1.1239  -1.1213
    -1.1155  -1.1107  -1.0637  -1.0584  -1.0179  -1.0121  -1.0081  -1.0049
    -1.0025  -0.9946  -0.9909  -0.9834  -0.9808  -0.9784  -0.9743  -0.9735
    -0.9704  -0.9694  -0.9676  -0.9635  -0.9561  -0.9551  -0.9545  -0.9517
    -0.9355  -0.9297  -0.9183  -0.9130  -0.8798  -0.8683  -0.8639  -0.8621
    -0.8588  -0.8552  -0.8404  -0.8391  -0.8330  -0.8316  -0.8216  -0.8204
    -0.8154  -0.8127  -0.8114  -0.7976  -0.7951  -0.7949  -0.7898  -0.7885
    -0.7868  -0.7832  -0.7786  -0.7778  -0.7771  -0.7681  -0.7615  -0.7587
    -0.7503  -0.7383  -0.7152  -0.6966  -0.6907  -0.6895  -0.6894  -0.6866
    -0.6558  -0.6489  -0.6427  -0.6409  -0.6342  -0.6335  -0.6311  -0.6301
    -0.6289  -0.6243  -0.6058  -0.5892  -0.5876  -0.5864  -0.5770  -0.5755
    -0.5711  -0.5645  -0.5498  -0.5490  -0.5460  -0.5393  -0.5353  -0.5294
    -0.5265  -0.5245  -0.5243  -0.5238  -0.5155  -0.5125  -0.5092  -0.5082
    -0.5071  -0.4954  -0.4867  -0.4823  -0.4739  -0.4626  -0.4549  -0.4396
    -0.4341  -0.4102  -0.4085  -0.4058  -0.3841  -0.3765  -0.3472  -0.3433
    -0.3418  -0.3266  -0.3227  -0.3208  -0.3170  -0.3078  -0.3041  -0.3008
    -0.2962  -0.2924  -0.2876  -0.2808  -0.2678  -0.2402  -0.2337  -0.2318
    -0.2304  -0.2248  -0.2187  -0.2141  -0.2017  -0.1999  -0.1948  -0.1904
    -0.1878  -0.1775  -0.1584  -0.1486  -0.1405  -0.1388  -0.1318  -0.1309
    -0.1259  -0.1073  -0.0934  -0.0866  -0.0847  -0.0832  -0.0757  -0.0685
    -0.0665  -0.0626  -0.0589  -0.0526  -0.0485  -0.0454  -0.0439  -0.0410
    -0.0368  -0.0322  -0.0295  -0.0265  -0.0203  -0.0196  -0.0183  -0.0146
    -0.0124  -0.0055  -0.0029   0.0139   0.0308   0.0324   0.0330   0.0337
     0.0395   0.0478   0.0657   0.0710   0.0734   0.0756   0.0782   0.0811
     0.0816   0.0859   0.0914   0.0998   0.1026   0.1069   0.1105   0.1117
     0.1159   0.1161   0.1229   0.1277   0.1296   0.1410   0.1432   0.1544
     0.1566   0.1587   0.1611   0.1682   0.1753   0.1755   0.1758   0.1802
     0.1846   0.1880   0.1951   0.2014   0.2292   0.2345   0.2412   0.2433
     0.2445   0.2469   0.2561   0.2593   0.2788   0.2864   0.2881   0.2992
     0.3035   0.3045   0.3142   0.3175   0.3207   0.3222   0.3273   0.3287
     0.3384   0.3411   0.3477   0.3497   0.3519   0.3584   0.3642   0.3656
     0.3711   0.3788   0.3821   0.3890   0.3991   0.4089   0.4125   0.4143
     0.4183   0.4281   0.4301   0.4339   0.4368   0.4419   0.4430   0.4468
     0.4487   0.4507   0.4568   0.4593   0.4640   0.4675   0.4700   0.4778
     0.4847   0.4868   0.4967   0.5004   0.5060   0.5101   0.5125   0.5211
     0.5229   0.5243   0.5309   0.5367   0.5398   0.5424   0.5446   0.5460
     0.5468   0.5520   0.5546   0.5620   0.5636   0.5655   0.5902   0.5922
     0.5974   0.6065   0.6219   0.6238   0.6287   0.6301   0.6337   0.6356
     0.6366   0.6399   0.6449   0.6521   0.6552   0.6611   0.6667   0.6683
     0.6748   0.6760   0.6778   0.6826   0.6869   0.6920   0.6988   0.7001
     0.7055   0.7066   0.7090   0.7098   0.7107   0.7169   0.7202   0.7279
     0.7294   0.7323   0.7352   0.7365   0.7375   0.7388   0.7394   0.7463
     0.7481   0.7502   0.7610   0.7706   0.7739   0.7781   0.7819   0.7873
     0.7899   0.7966   0.8049   0.8098   0.8195   0.8214   0.8308   0.8341
     0.8358   0.8370   0.8430   0.8442   0.8461   0.8491   0.8550   0.8561
     0.8595   0.8608   0.8648   0.8686   0.8701   0.8752   0.8789   0.8797
     0.8900   0.8928   0.8954   0.8974   0.9008   0.9084   0.9107   0.9117
     0.9186   0.9231   0.9424   0.9485   0.9790   0.9855   0.9881   0.9964
     0.9972   1.0029   1.0089   1.0099   1.0269   1.0374   1.0502   1.0562
     1.0578   1.0686   1.0712   1.0724   1.0739   1.0829   1.3216   1.3564
     1.3830   1.4710   1.5077   1.5309   1.5787   1.6181   1.6264   1.6347
     1.6378   1.6417   1.6497   1.6553   1.6967   1.7173   1.8057   1.8563
     1.8911   1.8980   1.9020   1.9085   1.9243   1.9493   2.1266   2.1523
     2.1612   2.2124   2.5516   2.8159   2.9018   2.9615   3.0361   3.2177
     3.2345   3.2441   3.2772   3.2861   3.3108   3.3182   3.3665   3.3951
     3.4009   3.4213   3.4246   3.4479   3.4565   3.4686   3.5278   3.6550
     3.6707   3.6932   3.7759   3.8595   4.1740   4.2894   4.3505   4.5304
     4.7069   4.7262   4.7761   5.0349   5.0727   5.1329   5.1917   5.2794
     5.3244   5.3678   5.5372   5.6297   5.6989   5.7276   5.8078   5.8664
     5.8967   5.9127   5.9436   6.0548   6.1164   6.1610   6.1665   6.2144
     6.2865   6.3127   6.3946   6.4161   6.4923   6.5177   6.5935   6.7523
     6.7826   6.8016   6.9067   6.9416   7.0424   7.1109   7.1223   7.1658
     7.1725   7.1997   7.3367   7.4091   7.4864   7.5176   7.5613   7.6224
     7.7341   7.7428   7.7675   7.7782   7.7843   7.8374   7.8701   7.9240
     7.9584   7.9870   7.9994   8.0425   8.0866   8.1421   8.1638   8.2216
     8.2377   8.2551   8.2664   8.2826   8.2962   8.3220   8.3661   8.3833
     8.4549   8.4949   8.5439   8.5952   8.5996   8.6874   8.7606   8.7912
     8.7997   8.9858   9.0161   9.0408   9.1790   9.1847   9.2533   9.2587
     9.2864   9.3420   9.4408

          k = 0.0000-0.2165 0.0000 (256176 PWs)   bands (ev):

   -21.3464 -16.8309 -16.3121 -15.4580 -14.8736 -14.8605 -14.4455 -14.3429
   -14.0445 -13.5056 -13.4700 -12.6199 -12.3069 -12.2657 -10.9885 -10.8660
   -10.0467  -9.6502  -9.6207  -9.3025  -8.9697  -8.7687  -8.3040  -8.0126
    -7.8282  -7.7220  -7.2683  -7.0672  -6.8749  -6.4576  -6.4412  -6.4192
    -6.0657  -5.8463  -5.8319  -5.7625  -5.5153  -5.4323  -5.3983  -5.3516
    -5.2697  -4.9242  -4.7932  -4.5551  -4.3764  -4.2962  -4.1378  -4.0075
    -3.8757  -3.8686  -3.8632  -3.8535  -3.7677  -3.6817  -3.6640  -3.6613
    -3.6031  -3.5916  -3.5895  -3.5619  -3.4048  -3.3470  -3.1726  -3.1681
    -3.1510  -3.1422  -3.1376  -3.1352  -3.1291  -3.1216  -3.0254  -3.0174
    -2.9055  -2.8217  -2.8083  -2.7998  -2.7945  -2.7398  -2.7261  -2.7148
    -2.6968  -2.6952  -2.6699  -2.6177  -2.5540  -2.5531  -2.5297  -2.5294
    -2.4913  -2.4701  -2.4146  -2.3647  -2.3407  -2.3324  -2.3181  -2.3135
    -2.3083  -2.3078  -2.2924  -2.2862  -2.2609  -2.2473  -2.2266  -2.2128
    -2.2084  -2.1931  -2.1802  -2.0473  -2.0352  -2.0281  -2.0175  -2.0018
    -1.9533  -1.9405  -1.9382  -1.9252  -1.8864  -1.8844  -1.8660  -1.8508
    -1.8470  -1.8442  -1.8416  -1.8369  -1.8320  -1.8203  -1.8050  -1.8027
    -1.7938  -1.7910  -1.7879  -1.7816  -1.7732  -1.7526  -1.7377  -1.7178
    -1.7032  -1.6969  -1.6677  -1.6577  -1.6566  -1.6230  -1.6194  -1.6155
    -1.6152  -1.5799  -1.5643  -1.5618  -1.5546  -1.5525  -1.5508  -1.5424
    -1.5381  -1.5169  -1.5002  -1.4916  -1.4899  -1.4870  -1.4827  -1.4817
    -1.4775  -1.4754  -1.4631  -1.4505  -1.4239  -1.4028  -1.3968  -1.3917
    -1.3887  -1.3863  -1.3792  -1.3660  -1.3622  -1.3544  -1.3410  -1.3261
    -1.3237  -1.3216  -1.3145  -1.2901  -1.2334  -1.2289  -1.2198  -1.2139
    -1.2130  -1.2043  -1.2015  -1.1830  -1.1754  -1.1725  -1.1710  -1.1705
    -1.1666  -1.1470  -1.1465  -1.1218  -1.1130  -1.1121  -1.1117  -1.1114
    -1.0972  -1.0970  -1.0959  -1.0731  -1.0685  -1.0674  -1.0564  -1.0564
    -1.0292  -1.0252  -1.0235  -1.0224  -1.0199  -1.0152  -1.0128  -1.0058
    -0.9891  -0.9854  -0.9484  -0.9394  -0.9378  -0.9283  -0.9201  -0.9146
    -0.9095  -0.8962  -0.8921  -0.8756  -0.8724  -0.8703  -0.8644  -0.8636
    -0.8622  -0.8543  -0.8511  -0.8470  -0.8328  -0.8279  -0.8242  -0.8206
    -0.8180  -0.8159  -0.8151  -0.8138  -0.8081  -0.8000  -0.7913  -0.7855
    -0.7820  -0.7815  -0.7717  -0.7692  -0.7396  -0.7207  -0.7142  -0.7117
    -0.7099  -0.7073  -0.7043  -0.6998  -0.6964  -0.6811  -0.6754  -0.6701
    -0.6662  -0.6603  -0.6538  -0.6533  -0.6529  -0.6510  -0.6476  -0.6441
    -0.6367  -0.6343  -0.6038  -0.5949  -0.5940  -0.5869  -0.5858  -0.5823
    -0.5673  -0.5660  -0.5617  -0.5580  -0.5523  -0.5500  -0.5443  -0.5418
    -0.5396  -0.5310  -0.5217  -0.5054  -0.4994  -0.4987  -0.4965  -0.4933
    -0.4805  -0.4778  -0.4718  -0.4669  -0.4590  -0.4547  -0.4535  -0.4462
    -0.4409  -0.4346  -0.4178  -0.4070  -0.4035  -0.3908  -0.3850  -0.3824
    -0.3705  -0.3687  -0.3652  -0.3623  -0.3500  -0.3430  -0.3184  -0.3096
    -0.3050  -0.2949  -0.2798  -0.2642  -0.2540  -0.2384  -0.2172  -0.1987
    -0.1967  -0.1865  -0.1852  -0.1788  -0.1745  -0.1601  -0.1559  -0.1509
    -0.1464  -0.1389  -0.1358  -0.1328  -0.1287  -0.1229  -0.1120  -0.1057
    -0.1048  -0.1001  -0.0973  -0.0961  -0.0936  -0.0898  -0.0867  -0.0849
    -0.0792  -0.0697  -0.0561  -0.0552  -0.0491  -0.0463  -0.0446  -0.0388
    -0.0370  -0.0367  -0.0314  -0.0269  -0.0232  -0.0183  -0.0150  -0.0126
    -0.0083  -0.0029  -0.0001   0.0041   0.0112   0.0121   0.0127   0.0134
     0.0180   0.0201   0.0280   0.0310   0.0422   0.0643   0.0651   0.0741
     0.0826   0.0851   0.0861   0.0879   0.0932   0.0963   0.1026   0.1069
     0.1074   0.1099   0.1101   0.1106   0.1153   0.1350   0.1449   0.1517
     0.1549   0.1577   0.1614   0.1655   0.1696   0.1728   0.1788   0.1874
     0.1955   0.1966   0.2005   0.2103   0.2121   0.2142   0.2284   0.2504
     0.2579   0.2655   0.3032   0.3093   0.3107   0.3150   0.3183   0.3189
     0.3248   0.3277   0.3324   0.3364   0.3392   0.3426   0.3445   0.3459
     0.3491   0.3523   0.3560   0.3627   0.3665   0.3673   0.3698   0.3747
     0.3761   0.3823   0.3866   0.3875   0.3933   0.3939   0.3945   0.3966
     0.4000   0.4068   0.4106   0.4142   0.4158   0.4168   0.4184   0.4202
     0.4213   0.4273   0.4378   0.4398   0.4473   0.4512   0.4551   0.4577
     0.4591   0.4637   0.4663   0.4685   0.4696   0.4716   0.4741   0.4783
     0.5048   0.5122   0.5176   0.5536   0.5555   0.5564   0.5595   0.5741
     0.5760   0.5821   0.5934   0.5953   0.5992   0.6008   0.6073   0.6086
     0.6114   0.6147   0.6154   0.6177   0.6235   0.6263   0.6279   0.6325
     0.6335   0.6344   0.6388   0.6394   0.6422   0.6446   0.6492   0.6545
     0.6575   0.6612   0.6641   0.6697   0.6717   0.6736   0.6883   0.6900
     0.6944   0.6961   0.6999   0.7014   0.7050   0.7121   0.7186   0.7212
     0.7239   0.7267   0.7299   0.7312   0.7365   0.7389   0.7469   0.7474
     0.7552   0.7571   0.7634   0.7686   0.7770   0.7805   0.7827   0.7883
     0.7974   0.8018   0.8070   0.8102   0.8122   0.8126   0.8168   0.8201
     0.8210   0.8264   0.8345   0.8418   0.8455   0.8514   0.8572   0.8594
     0.8662   0.8728   0.8741   0.8765   0.8768   0.8776   0.8813   0.8835
     0.9044   0.9083   0.9098   0.9153   0.9164   0.9179   0.9358   0.9376
     0.9413   0.9466   0.9505   0.9514   0.9529   0.9623   0.9648   0.9791
     1.0012   1.0153   1.0288   1.0322   1.0745   1.1202   1.1454   1.1633
     1.1650   1.1797   1.1886   1.1946   1.1985   1.2129   1.2303   1.2357
     1.2397   1.2467   1.2476   1.2514   1.2782   1.2825   1.4878   1.6098
     1.8011   1.8167   1.8689   1.8825   1.9087   1.9277   1.9734   1.9963
     2.0054   2.0153   2.0335   2.0735   2.1222   2.1354   2.1483   2.1566
     2.2228   2.2426   2.3451   2.3567   2.5957   2.5972   2.5978   2.6167
     2.7204   2.8637   2.9504   3.0583   3.0971   3.1111   3.3951   3.4891
     3.5555   3.5832   3.7363   3.7547   3.7630   3.7749   3.7956   3.8356
     3.9444   4.1844   4.2126   4.2518   4.3073   4.4686   4.4933   4.5414
     4.6090   4.6922   4.7734   4.7795   4.7905   4.8195   4.9076   5.0033
     5.1353   5.5407   5.6230   5.6482   5.7049   5.7556   5.8301   5.8832
     5.9398   5.9772   6.0320   6.0844   6.1004   6.1438   6.2204   6.2625
     6.3032   6.4337   6.4607   6.4759   6.5242   6.5411   6.5726   6.5815
     6.5909   6.6177   6.7630   6.7840   6.8113   6.8603   6.8891   6.9642
     7.0520   7.1282   7.1787   7.2705   7.4646   7.5346   7.5528   7.6629
     7.7177   7.7799   7.7981   7.8311   7.9076   7.9215   7.9349   8.0114
     8.0940   8.1070   8.1275   8.1390   8.1471   8.1772   8.2120   8.2500
     8.2841   8.3115   8.3255   8.3962   8.4209   8.4380   8.5614   8.6573
     8.7136   8.7536   8.7874   8.8055   8.8239   8.8287   8.8373   8.8609
     8.8771   8.9200   8.9306   9.0160   9.0543   9.1199   9.2009   9.2108
     9.2237   9.2792   9.3004

          k = 0.2500 0.0000 0.0000 (256240 PWs)   bands (ev):

   -21.3462 -16.7189 -16.2134 -15.7177 -15.3487 -15.1002 -14.3498 -14.0212
   -13.7631 -13.3190 -13.0937 -12.5725 -12.3842 -11.6712 -11.4538 -11.0219
   -10.4931 -10.0594  -9.8623  -9.6026  -9.2860  -8.7640  -8.5480  -7.8041
    -7.6590  -7.3880  -7.1589  -6.8040  -6.6613  -6.4028  -6.1698  -5.9013
    -5.8783  -5.7828  -5.7324  -5.5721  -5.3726  -5.2807  -5.0276  -4.9866
    -4.8452  -4.8080  -4.7412  -4.6413  -4.5675  -4.5552  -4.4177  -4.4042
    -4.3911  -4.2558  -4.2309  -4.1830  -4.0973  -3.9517  -3.8169  -3.7939
    -3.7422  -3.6691  -3.6320  -3.5681  -3.5601  -3.5224  -3.4674  -3.3681
    -3.3646  -3.2835  -3.2370  -3.2118  -3.1744  -3.1265  -2.9656  -2.9062
    -2.8833  -2.8142  -2.7046  -2.6692  -2.6641  -2.6510  -2.6455  -2.6078
    -2.4989  -2.4732  -2.4506  -2.4139  -2.4006  -2.3774  -2.3698  -2.3688
    -2.3630  -2.3612  -2.3511  -2.3424  -2.3251  -2.3199  -2.2853  -2.2498
    -2.2274  -2.2109  -2.2072  -2.1817  -2.1746  -2.1528  -2.1497  -2.1452
    -2.1441  -2.1318  -2.1146  -2.1003  -2.0759  -2.0724  -2.0673  -2.0638
    -2.0479  -1.9404  -1.9095  -1.9040  -1.8931  -1.8811  -1.8490  -1.8243
    -1.8193  -1.8157  -1.8115  -1.8078  -1.8030  -1.7799  -1.7691  -1.7569
    -1.7559  -1.7491  -1.7424  -1.7311  -1.7128  -1.7085  -1.7057  -1.6990
    -1.6901  -1.6845  -1.6798  -1.6733  -1.6701  -1.6412  -1.6330  -1.6226
    -1.6158  -1.5966  -1.5892  -1.5860  -1.5789  -1.5774  -1.5740  -1.5710
    -1.5671  -1.5587  -1.5555  -1.5545  -1.5496  -1.5462  -1.5434  -1.5417
    -1.5383  -1.5311  -1.5173  -1.5113  -1.4910  -1.4748  -1.4696  -1.4564
    -1.4227  -1.4211  -1.3848  -1.3844  -1.3760  -1.3699  -1.3616  -1.3564
    -1.3415  -1.3391  -1.3297  -1.3251  -1.3234  -1.3156  -1.3088  -1.3058
    -1.2981  -1.2887  -1.1911  -1.1799  -1.1703  -1.1661  -1.1630  -1.1422
    -1.1385  -1.1375  -1.1300  -1.1228  -1.1212  -1.1178  -1.1091  -1.1052
    -1.1010  -1.0974  -1.0928  -1.0678  -1.0613  -1.0580  -1.0540  -1.0531
    -1.0469  -1.0320  -1.0313  -1.0276  -1.0265  -1.0083  -0.9742  -0.9716
    -0.9688  -0.9664  -0.9643  -0.9549  -0.9523  -0.9495  -0.9456  -0.9271
    -0.9229  -0.9076  -0.9067  -0.9038  -0.8935  -0.8685  -0.8673  -0.8644
    -0.8604  -0.8545  -0.8520  -0.8482  -0.8393  -0.8300  -0.8193  -0.8168
    -0.8147  -0.8024  -0.7961  -0.7890  -0.7807  -0.7716  -0.7674  -0.7665
    -0.7602  -0.7515  -0.7504  -0.7475  -0.7275  -0.7260  -0.7228  -0.7143
    -0.7033  -0.6911  -0.6863  -0.6851  -0.6812  -0.6663  -0.6428  -0.6391
    -0.6357  -0.6313  -0.6271  -0.6133  -0.6091  -0.6001  -0.5927  -0.5851
    -0.5831  -0.5819  -0.5806  -0.5718  -0.5681  -0.5656  -0.5636  -0.5613
    -0.5598  -0.5587  -0.5514  -0.5450  -0.5402  -0.5371  -0.5331  -0.5282
    -0.5246  -0.5139  -0.5105  -0.5035  -0.4978  -0.4904  -0.4812  -0.4614
    -0.4595  -0.4567  -0.4549  -0.4489  -0.4422  -0.4342  -0.4325  -0.4302
    -0.4266  -0.4233  -0.4026  -0.3899  -0.3672  -0.3287  -0.3209  -0.3200
    -0.3176  -0.3112  -0.3052  -0.3021  -0.2979  -0.2964  -0.2921  -0.2886
    -0.2863  -0.2811  -0.2794  -0.2759  -0.2749  -0.2705  -0.2681  -0.2660
    -0.2595  -0.2519  -0.2463  -0.2418  -0.2371  -0.2343  -0.2301  -0.2210
    -0.2173  -0.2096  -0.2051  -0.1750  -0.1662  -0.1593  -0.1521  -0.1491
    -0.1410  -0.1333  -0.1293  -0.1271  -0.1216  -0.1088  -0.1022  -0.0962
    -0.0951  -0.0908  -0.0867  -0.0814  -0.0786  -0.0764  -0.0718  -0.0707
    -0.0608  -0.0541  -0.0498  -0.0465  -0.0391  -0.0344  -0.0249  -0.0224
    -0.0211  -0.0146  -0.0138  -0.0090   0.0016   0.0080   0.0104   0.0113
     0.0129   0.0213   0.0278   0.0313   0.0335   0.0363   0.0413   0.0470
     0.0564   0.0647   0.0674   0.0725   0.0811   0.0833   0.0892   0.0932
     0.0963   0.0993   0.1084   0.1237   0.1338   0.1456   0.1543   0.1620
     0.1659   0.1679   0.1729   0.1770   0.1818   0.1893   0.1937   0.1989
     0.2015   0.2076   0.2110   0.2114   0.2179   0.2204   0.2403   0.2462
     0.2493   0.2553   0.2593   0.2665   0.2725   0.2756   0.2861   0.2882
     0.2966   0.3066   0.3094   0.3137   0.3167   0.3190   0.3206   0.3215
     0.3241   0.3277   0.3353   0.3423   0.3513   0.3730   0.3759   0.3789
     0.3852   0.3894   0.3979   0.4057   0.4083   0.4153   0.4168   0.4213
     0.4246   0.4261   0.4288   0.4327   0.4351   0.4392   0.4436   0.4454
     0.4458   0.4498   0.4515   0.4550   0.4600   0.4610   0.4641   0.4661
     0.4693   0.4823   0.4845   0.4878   0.4941   0.4953   0.4964   0.4992
     0.5045   0.5103   0.5171   0.5204   0.5242   0.5315   0.5340   0.5366
     0.5404   0.5415   0.5485   0.5514   0.5552   0.5596   0.5651   0.5664
     0.5754   0.5821   0.5831   0.5879   0.6061   0.6133   0.6159   0.6173
     0.6198   0.6260   0.6336   0.6407   0.6529   0.6613   0.6666   0.6706
     0.6730   0.6786   0.6808   0.6845   0.6865   0.6895   0.6955   0.7035
     0.7041   0.7104   0.7116   0.7159   0.7182   0.7216   0.7243   0.7261
     0.7296   0.7319   0.7353   0.7389   0.7422   0.7453   0.7482   0.7519
     0.7545   0.7594   0.7629   0.7711   0.7779   0.7795   0.7846   0.7867
     0.7909   0.7957   0.8035   0.8069   0.8086   0.8176   0.8228   0.8257
     0.8297   0.8363   0.8419   0.8448   0.8464   0.8508   0.8529   0.8539
     0.8564   0.8573   0.8610   0.8629   0.8652   0.8678   0.8687   0.8836
     0.8843   0.8894   0.8939   0.8976   0.8998   0.9028   0.9087   0.9104
     0.9151   0.9187   0.9205   0.9295   0.9342   0.9379   0.9438   0.9504
     0.9655   0.9722   0.9831   0.9962   1.0085   1.0206   1.0473   1.0492
     1.0517   1.0582   1.0840   1.1151   1.1569   1.1870   1.1906   1.2057
     1.2102   1.2430   1.2636   1.4528   1.4606   1.4658   1.4951   1.5108
     1.5302   1.6030   1.6344   1.7024   1.7830   1.9693   1.9835   1.9886
     1.9996   2.2843   2.4021   2.4076   2.4376   2.6164   2.6255   2.6454
     2.6459   2.6827   2.7527   2.8170   2.8941   2.9512   3.0333   3.0654
     3.0763   3.1154   3.1295   3.1414   3.1903   3.2388   3.2733   3.2933
     3.3583   3.4186   3.5002   3.6677   3.6972   3.7180   3.7879   3.9528
     4.1568   4.2140   4.2612   4.4114   4.4729   4.5092   4.6336   4.6685
     4.6752   4.7391   4.8931   4.8958   4.9069   4.9402   4.9517   4.9840
     5.0810   5.0963   5.1822   5.2396   5.2606   5.3260   5.3720   5.4305
     5.4411   5.4515   5.5331   5.5713   6.0270   6.0811   6.1190   6.1479
     6.1751   6.2216   6.3522   6.3878   6.4438   6.4591   6.4727   6.4857
     6.4993   6.5456   6.6529   6.7139   6.7853   6.8489   6.8920   6.9334
     7.0006   7.0126   7.0763   7.1772   7.2614   7.2810   7.3989   7.4414
     7.4897   7.5120   7.5254   7.5832   7.6018   7.6932   7.7310   7.7512
     7.8030   7.8269   7.9113   7.9437   7.9643   8.0529   8.0665   8.1803
     8.2828   8.3562   8.4171   8.4266   8.4622   8.4806   8.5044   8.5688
     8.5820   8.6076   8.6321   8.6463   8.6833   8.7335   8.7639   8.8118
     8.8652   8.8712   8.8842   8.9215   8.9873   9.0399   9.0922   9.1336
     9.1684   9.2611   9.3258

          k = 0.2500-0.2165 0.0000 (256316 PWs)   bands (ev):

   -21.3462 -16.7189 -16.2134 -15.7177 -15.3487 -15.1003 -14.3498 -14.0212
   -13.7631 -13.3190 -13.0937 -12.5726 -12.3842 -11.6713 -11.4538 -11.0219
   -10.4931 -10.0594  -9.8621  -9.6027  -9.2860  -8.7644  -8.5483  -7.8038
    -7.6586  -7.3874  -7.1588  -6.8040  -6.6611  -6.2802  -6.2633  -6.1693
    -5.7984  -5.7466  -5.5717  -5.3546  -5.2924  -5.2374  -5.2054  -5.1355
    -4.9161  -4.9032  -4.8180  -4.7818  -4.7287  -4.4415  -4.3912  -4.2449
    -4.2156  -4.2003  -4.1177  -4.0428  -4.0234  -3.9976  -3.9493  -3.9160
    -3.7869  -3.6742  -3.6407  -3.5743  -3.5312  -3.5103  -3.4701  -3.4683
    -3.4166  -3.3075  -3.2720  -3.1955  -3.1401  -2.8847  -2.8756  -2.8530
    -2.7787  -2.7522  -2.7499  -2.7375  -2.7357  -2.7138  -2.6390  -2.5784
    -2.5760  -2.5679  -2.5309  -2.4797  -2.4287  -2.3998  -2.3830  -2.3798
    -2.3759  -2.3365  -2.3037  -2.2926  -2.2848  -2.2805  -2.2749  -2.2679
    -2.2588  -2.2473  -2.2425  -2.2408  -2.2389  -2.2364  -2.2328  -2.2023
    -2.1633  -2.1470  -2.1450  -2.0400  -2.0358  -2.0007  -1.9572  -1.9009
    -1.8973  -1.8901  -1.8538  -1.8481  -1.8456  -1.8414  -1.8329  -1.8319
    -1.8198  -1.8164  -1.8106  -1.8023  -1.7972  -1.7958  -1.7890  -1.7856
    -1.7827  -1.7752  -1.7636  -1.7596  -1.7512  -1.7479  -1.7460  -1.7201
    -1.7041  -1.6978  -1.6931  -1.6844  -1.6812  -1.6798  -1.6686  -1.6513
    -1.6371  -1.6164  -1.6112  -1.6074  -1.5989  -1.5951  -1.5858  -1.5674
    -1.5661  -1.5573  -1.5523  -1.5342  -1.5320  -1.5310  -1.5286  -1.5227
    -1.5218  -1.5177  -1.5003  -1.4943  -1.4874  -1.4766  -1.4486  -1.4443
    -1.4338  -1.4294  -1.4287  -1.3631  -1.3572  -1.3520  -1.3451  -1.3376
    -1.3351  -1.3326  -1.2967  -1.2916  -1.2887  -1.2828  -1.2810  -1.2764
    -1.2734  -1.2644  -1.2572  -1.2205  -1.2154  -1.1917  -1.1847  -1.1804
    -1.1621  -1.1512  -1.1403  -1.1351  -1.1319  -1.1298  -1.1070  -1.1052
    -1.1027  -1.0829  -1.0791  -1.0773  -1.0674  -1.0637  -1.0596  -1.0447
    -1.0355  -1.0209  -1.0148  -1.0038  -1.0016  -0.9865  -0.9810  -0.9793
    -0.9716  -0.9639  -0.9590  -0.9558  -0.9436  -0.9404  -0.9358  -0.9340
    -0.9323  -0.9244  -0.9218  -0.9189  -0.9130  -0.9072  -0.8969  -0.8883
    -0.8874  -0.8659  -0.8566  -0.8492  -0.8368  -0.8322  -0.8247  -0.8199
    -0.8112  -0.8102  -0.8004  -0.7916  -0.7896  -0.7864  -0.7781  -0.7619
    -0.7549  -0.7354  -0.7307  -0.7273  -0.6911  -0.6856  -0.6819  -0.6802
    -0.6782  -0.6747  -0.6662  -0.6605  -0.6575  -0.6443  -0.6405  -0.6364
    -0.6284  -0.6268  -0.6213  -0.6178  -0.6113  -0.6040  -0.5987  -0.5938
    -0.5926  -0.5833  -0.5803  -0.5773  -0.5764  -0.5733  -0.5695  -0.5672
    -0.5645  -0.5602  -0.5526  -0.5511  -0.5443  -0.5419  -0.5405  -0.5371
    -0.5292  -0.5103  -0.5061  -0.5007  -0.4969  -0.4938  -0.4875  -0.4758
    -0.4650  -0.4447  -0.4390  -0.4359  -0.4351  -0.4257  -0.4243  -0.4224
    -0.4198  -0.4065  -0.4059  -0.4007  -0.3983  -0.3913  -0.3722  -0.3666
    -0.3450  -0.3121  -0.3061  -0.3030  -0.2992  -0.2980  -0.2908  -0.2870
    -0.2828  -0.2784  -0.2739  -0.2699  -0.2679  -0.2632  -0.2550  -0.2523
    -0.2499  -0.2462  -0.2445  -0.2349  -0.2329  -0.2206  -0.2124  -0.2078
    -0.1991  -0.1956  -0.1921  -0.1865  -0.1809  -0.1739  -0.1662  -0.1590
    -0.1485  -0.1437  -0.1291  -0.1251  -0.1218  -0.1189  -0.1164  -0.1069
    -0.0993  -0.0966  -0.0928  -0.0900  -0.0840  -0.0817  -0.0785  -0.0647
    -0.0603  -0.0560  -0.0514  -0.0441  -0.0371  -0.0085  -0.0048  -0.0031
     0.0045   0.0129   0.0194   0.0213   0.0247   0.0313   0.0333   0.0359
     0.0432   0.0436   0.0493   0.0530   0.0538   0.0669   0.0730   0.0769
     0.0796   0.0809   0.0879   0.0922   0.0945   0.0979   0.0993   0.1003
     0.1072   0.1141   0.1160   0.1172   0.1229   0.1268   0.1326   0.1352
     0.1371   0.1383   0.1417   0.1460   0.1486   0.1515   0.1587   0.1778
     0.1835   0.1882   0.1910   0.1945   0.2093   0.2135   0.2266   0.2379
     0.2484   0.2504   0.2522   0.2541   0.2559   0.2584   0.2667   0.2785
     0.2797   0.2804   0.2819   0.2826   0.2850   0.2922   0.3046   0.3066
     0.3110   0.3195   0.3230   0.3259   0.3328   0.3401   0.3476   0.3495
     0.3555   0.3574   0.3685   0.3717   0.3820   0.3880   0.3904   0.3956
     0.4010   0.4079   0.4127   0.4247   0.4291   0.4360   0.4388   0.4403
     0.4556   0.4626   0.4681   0.4759   0.4778   0.4925   0.5008   0.5062
     0.5099   0.5137   0.5144   0.5162   0.5169   0.5189   0.5203   0.5232
     0.5271   0.5307   0.5337   0.5370   0.5415   0.5450   0.5470   0.5561
     0.5573   0.5723   0.5782   0.5853   0.5886   0.5924   0.5944   0.5983
     0.6003   0.6038   0.6050   0.6102   0.6136   0.6152   0.6184   0.6237
     0.6253   0.6297   0.6322   0.6365   0.6434   0.6458   0.6476   0.6509
     0.6526   0.6554   0.6580   0.6614   0.6682   0.6716   0.6775   0.6930
     0.6953   0.6973   0.7028   0.7042   0.7086   0.7158   0.7231   0.7251
     0.7337   0.7352   0.7368   0.7458   0.7502   0.7538   0.7567   0.7592
     0.7633   0.7673   0.7715   0.7735   0.7782   0.7805   0.7846   0.7941
     0.7958   0.8003   0.8032   0.8061   0.8091   0.8104   0.8154   0.8183
     0.8206   0.8218   0.8271   0.8282   0.8307   0.8337   0.8394   0.8446
     0.8480   0.8579   0.8632   0.8641   0.8654   0.8676   0.8688   0.8701
     0.8761   0.8786   0.8806   0.8831   0.8895   0.9028   0.9044   0.9097
     0.9207   0.9267   0.9295   0.9330   0.9436   0.9482   0.9538   0.9621
     0.9736   0.9769   0.9797   0.9852   0.9866   1.0153   1.0282   1.0725
     1.0821   1.0967   1.1274   1.1531   1.1799   1.1824   1.1929   1.2038
     1.2095   1.2239   1.2580   1.2944   1.3371   1.5435   1.5485   1.5775
     1.5820   1.6678   1.7111   1.7457   2.0042   2.0104   2.1626   2.1695
     2.1943   2.2103   2.2239   2.2334   2.2494   2.2679   2.3312   2.4055
     2.4524   2.4618   2.5743   2.9226   2.9878   3.0124   3.0323   3.0605
     3.1873   3.2286   3.2703   3.2738   3.2972   3.3991   3.4260   3.4886
     3.5137   3.5839   3.5919   3.7564   3.8064   3.8203   3.8743   3.9453
     3.9741   4.0794   4.1004   4.1169   4.3388   4.3941   4.4503   4.5085
     4.5910   4.6599   4.7506   4.7688   4.8145   4.8556   4.8811   4.9267
     4.9765   5.1439   5.1866   5.2186   5.2942   5.3054   5.3995   5.4387
     5.5676   5.8163   5.9695   5.9850   6.0242   6.0837   6.1472   6.1953
     6.2389   6.3247   6.3514   6.3789   6.4298   6.4938   6.5408   6.5620
     6.6084   6.6339   6.6583   6.7173   6.7716   6.7834   6.8310   6.8639
     6.8844   6.9590   6.9809   7.1368   7.1852   7.2042   7.2666   7.3438
     7.3965   7.4712   7.5589   7.6034   7.6236   7.7173   7.7385   7.9257
     7.9628   7.9906   8.0023   8.0353   8.0796   8.0857   8.0930   8.1357
     8.1846   8.2423   8.3134   8.3330   8.3711   8.4410   8.4813   8.5252
     8.5495   8.5852   8.6402   8.6490   8.6690   8.6755   8.7071   8.7274
     8.7390   8.7847   8.8352   8.8421   8.8662   8.9599   8.9862   9.0804
     9.1077   9.1620   9.1778

          k =-0.5000 0.0000 0.0000 (256496 PWs)   bands (ev):

   -21.3460 -16.4820 -16.2408 -15.9117 -15.6833 -15.0170 -14.7694 -13.7773
   -13.5444 -12.6945 -12.5255 -12.2798 -12.1910 -12.0553 -11.9592 -11.3741
   -10.8853 -10.2132  -9.9390  -9.6475  -9.4598  -8.8801  -8.7107  -8.4451
    -7.7075  -7.2710  -6.7179  -5.8894  -5.8719  -5.8540  -5.8243  -5.7913
    -5.7025  -5.4739  -5.4122  -5.3714  -5.3692  -5.3608  -5.3402  -5.2342
    -4.9505  -4.9188  -4.8955  -4.8442  -4.5597  -4.5309  -4.5207  -4.4831
    -4.4584  -4.3727  -4.2510  -4.2330  -4.1994  -4.0326  -3.9937  -3.9936
    -3.9873  -3.9806  -3.9661  -3.8889  -3.7886  -3.7637  -3.4185  -3.3372
    -3.2857  -3.2473  -3.2158  -3.2059  -3.1957  -3.1680  -3.0206  -2.9562
    -2.9021  -2.8840  -2.8558  -2.8326  -2.7977  -2.7821  -2.4892  -2.4489
    -2.4482  -2.4468  -2.4447  -2.4430  -2.4402  -2.3855  -2.3489  -2.3197
    -2.2968  -2.2573  -2.2206  -2.2184  -2.2181  -2.2100  -2.1747  -2.1697
    -2.1683  -2.1658  -2.1122  -2.0756  -2.0657  -2.0594  -2.0543  -2.0117
    -1.9949  -1.9896  -1.9843  -1.9779  -1.9743  -1.9390  -1.9365  -1.9328
    -1.9265  -1.9258  -1.9171  -1.9135  -1.9096  -1.9092  -1.8966  -1.8693
    -1.8663  -1.8654  -1.8580  -1.8400  -1.8381  -1.8335  -1.8328  -1.8076
    -1.7743  -1.7738  -1.7567  -1.7546  -1.7530  -1.7492  -1.7448  -1.7303
    -1.7195  -1.7132  -1.7116  -1.7025  -1.6944  -1.6791  -1.6763  -1.6745
    -1.6734  -1.6720  -1.6538  -1.6516  -1.6340  -1.6269  -1.6238  -1.5983
    -1.5793  -1.5762  -1.5537  -1.5535  -1.5477  -1.5459  -1.5435  -1.5209
    -1.5187  -1.5108  -1.5093  -1.5069  -1.5058  -1.4949  -1.4933  -1.4841
    -1.4819  -1.4730  -1.4676  -1.4226  -1.4124  -1.4090  -1.4031  -1.4017
    -1.3649  -1.3624  -1.3389  -1.2817  -1.2815  -1.2800  -1.2785  -1.2455
    -1.2432  -1.2421  -1.2409  -1.2386  -1.2357  -1.2118  -1.2079  -1.2009
    -1.1991  -1.1836  -1.1822  -1.1788  -1.1770  -1.1740  -1.1729  -1.1479
    -1.1438  -1.1309  -1.1172  -1.0386  -1.0369  -1.0362  -1.0286  -1.0266
    -1.0222  -1.0067  -1.0035  -0.9971  -0.9937  -0.9813  -0.9786  -0.9713
    -0.9693  -0.9456  -0.9437  -0.9400  -0.9376  -0.9244  -0.9167  -0.9041
    -0.9013  -0.8999  -0.8968  -0.8796  -0.8739  -0.8690  -0.8672  -0.8663
    -0.8643  -0.8541  -0.8531  -0.8467  -0.8366  -0.8233  -0.8226  -0.8182
    -0.8170  -0.7895  -0.7830  -0.7781  -0.7768  -0.7144  -0.7116  -0.7096
    -0.7085  -0.7027  -0.7022  -0.6985  -0.6978  -0.6666  -0.6649  -0.6587
    -0.6539  -0.6292  -0.6272  -0.6069  -0.6021  -0.6001  -0.5993  -0.5970
    -0.5956  -0.5947  -0.5931  -0.5920  -0.5911  -0.5896  -0.5886  -0.5798
    -0.5405  -0.5223  -0.5183  -0.5179  -0.5121  -0.5089  -0.5043  -0.5018
    -0.5010  -0.4980  -0.4957  -0.4917  -0.4906  -0.4874  -0.4858  -0.4802
    -0.4766  -0.4743  -0.4715  -0.4706  -0.4593  -0.4575  -0.4559  -0.4554
    -0.4518  -0.4512  -0.4489  -0.4448  -0.4439  -0.4434  -0.4413  -0.4328
    -0.4304  -0.4218  -0.4210  -0.4190  -0.4168  -0.4099  -0.4088  -0.3970
    -0.3892  -0.3838  -0.3610  -0.2983  -0.2916  -0.2879  -0.2856  -0.2827
    -0.2634  -0.2572  -0.2556  -0.2544  -0.2498  -0.2463  -0.2443  -0.2407
    -0.2388  -0.2334  -0.2300  -0.2233  -0.2226  -0.2206  -0.2146  -0.2112
    -0.2098  -0.2089  -0.2071  -0.2028  -0.1991  -0.1963  -0.1962  -0.1894
    -0.1852  -0.1757  -0.1722  -0.1655  -0.1638  -0.1603  -0.1503  -0.1097
    -0.0924  -0.0891  -0.0843  -0.0795  -0.0776  -0.0684  -0.0628  -0.0570
    -0.0531  -0.0508  -0.0494  -0.0470  -0.0434  -0.0410  -0.0369  -0.0360
    -0.0346  -0.0332  -0.0298  -0.0278  -0.0246  -0.0241  -0.0174  -0.0119
    -0.0056   0.0020   0.0104   0.0114   0.0191   0.0333   0.0364   0.0453
     0.0479   0.0571   0.0585   0.0600   0.0633   0.0653   0.0674   0.0696
     0.0739   0.0776   0.0795   0.0912   0.0921   0.0929   0.0955   0.1021
     0.1053   0.1202   0.1251   0.1343   0.1361   0.1390   0.1404   0.1483
     0.1556   0.1619   0.1680   0.1816   0.1893   0.1921   0.1954   0.2015
     0.2106   0.2340   0.2375   0.2450   0.2459   0.2576   0.2646   0.2658
     0.2670   0.2680   0.2684   0.2705   0.2744   0.2786   0.2806   0.2936
     0.2953   0.3057   0.3098   0.3109   0.3172   0.3182   0.3298   0.3303
     0.3326   0.3347   0.3359   0.3366   0.3497   0.3548   0.3686   0.3790
     0.3850   0.4058   0.4190   0.4311   0.4369   0.4400   0.4427   0.4479
     0.4528   0.4675   0.4697   0.4723   0.4792   0.4873   0.4911   0.5026
     0.5040   0.5087   0.5114   0.5275   0.5320   0.5365   0.5365   0.5394
     0.5419   0.5487   0.5498   0.5512   0.5544   0.5562   0.5590   0.5616
     0.5619   0.5628   0.5639   0.5675   0.5702   0.5748   0.5802   0.5844
     0.5894   0.6024   0.6032   0.6047   0.6099   0.6222   0.6251   0.6344
     0.6366   0.6374   0.6401   0.6483   0.6580   0.6632   0.6647   0.6673
     0.6688   0.6703   0.6725   0.6743   0.6746   0.6774   0.6860   0.6887
     0.6985   0.7159   0.7207   0.7226   0.7264   0.7356   0.7389   0.7409
     0.7433   0.7434   0.7448   0.7476   0.7504   0.7539   0.7546   0.7564
     0.7570   0.7585   0.7602   0.7617   0.7640   0.7647   0.7671   0.7684
     0.7719   0.7733   0.7781   0.7802   0.7858   0.7910   0.7927   0.7951
     0.8073   0.8121   0.8139   0.8189   0.8246   0.8353   0.8396   0.8402
     0.8423   0.8438   0.8494   0.8526   0.8574   0.8599   0.8631   0.8720
     0.8733   0.8751   0.8761   0.8917   0.8957   0.8969   0.8995   0.9016
     0.9029   0.9039   0.9054   0.9129   0.9215   0.9223   0.9278   0.9324
     0.9384   0.9393   0.9396   0.9412   0.9445   0.9504   0.9555   0.9956
     0.9980   1.0020   1.0155   1.0293   1.0298   1.0377   1.0406   1.3015
     1.4452   1.4536   1.4624   1.4827   1.6265   1.6624   1.6945   1.7014
     1.7121   1.7134   1.7177   1.7565   2.0110   2.0225   2.0449   2.0798
     2.2514   2.2522   2.2585   2.2642   2.2983   2.6058   2.6103   2.6204
     2.6429   2.8987   2.9352   3.0986   3.1310   3.1611   3.1912   3.3278
     3.3353   3.3519   3.3610   3.4797   3.4885   3.5036   3.5452   3.5663
     3.6303   4.0380   4.0694   4.0946   4.1382   4.1600   4.1920   4.2477
     4.2605   4.2876   4.3089   4.3463   4.3955   4.4344   4.4403   4.4542
     4.4735   4.4780   4.4880   4.5061   4.5264   4.5589   4.6472   4.7642
     4.7832   4.8954   4.9173   4.9391   4.9955   5.0278   5.0613   5.3425
     5.3763   5.4007   5.4201   5.4326   5.4852   5.4905   5.5205   5.7439
     5.7823   5.7871   5.9487   6.0287   6.0709   6.4227   6.4840   6.4962
     6.5554   6.6204   6.6393   6.8531   6.9452   7.0168   7.0255   7.0460
     7.0478   7.0605   7.0825   7.2029   7.2273   7.2385   7.2784   7.2839
     7.3073   7.3381   7.3647   7.4045   7.4171   7.4422   7.4748   7.4951
     7.5241   7.6554   7.6913   7.8279   7.9324   7.9688   8.0023   8.1542
     8.1903   8.2416   8.2499   8.2704   8.4321   8.4551   8.4591   8.4674
     8.4837   8.4913   8.5160   8.5691   8.6889   8.7046   8.7462   8.7925
     8.8709   8.8733   8.9424   8.9585   8.9614   8.9633   8.9767   8.9998
     9.0241   9.0943   9.1515

          k =-0.5000-0.2165 0.0000 (256328 PWs)   bands (ev):

   -21.3460 -16.4820 -16.2408 -15.9117 -15.6833 -15.0170 -14.7694 -13.7773
   -13.5444 -12.6945 -12.5256 -12.2799 -12.1910 -12.0553 -11.9592 -11.3741
   -10.8853 -10.2132  -9.9388  -9.6474  -9.4599  -8.8804  -8.7109  -8.4454
    -7.7071  -7.2699  -6.7177  -5.8601  -5.8278  -5.8125  -5.7883  -5.7501
    -5.7397  -5.7292  -5.6441  -5.4736  -5.4067  -5.2345  -4.9489  -4.8959
    -4.8771  -4.8349  -4.7738  -4.7632  -4.7533  -4.7378  -4.6981  -4.6586
    -4.5409  -4.4773  -4.3734  -4.3417  -4.2416  -4.0961  -4.0303  -4.0004
    -3.9807  -3.8469  -3.8092  -3.7630  -3.7031  -3.6502  -3.3887  -3.2672
    -3.1825  -3.1613  -3.1460  -3.1446  -3.1386  -3.1215  -3.1158  -3.0831
    -3.0386  -2.9801  -2.8457  -2.8020  -2.6643  -2.6509  -2.6410  -2.6390
    -2.6184  -2.5932  -2.5705  -2.5227  -2.3780  -2.3743  -2.3704  -2.3673
    -2.3601  -2.3036  -2.1959  -2.1694  -2.1499  -2.1399  -2.1039  -2.0650
    -2.0639  -2.0621  -2.0616  -2.0561  -2.0360  -2.0123  -2.0094  -2.0072
    -2.0040  -2.0016  -1.9879  -1.9617  -1.9596  -1.9529  -1.9491  -1.9488
    -1.9470  -1.9423  -1.9373  -1.9300  -1.9296  -1.9286  -1.9271  -1.8783
    -1.8772  -1.8735  -1.8714  -1.8356  -1.8161  -1.8074  -1.8018  -1.7946
    -1.7660  -1.7626  -1.7607  -1.7581  -1.7572  -1.7397  -1.7371  -1.7242
    -1.7185  -1.7079  -1.7020  -1.6925  -1.6909  -1.6885  -1.6876  -1.6857
    -1.6836  -1.6802  -1.6722  -1.6576  -1.6339  -1.6305  -1.6255  -1.6189
    -1.6180  -1.6155  -1.6143  -1.6092  -1.6073  -1.6042  -1.6023  -1.6005
    -1.5983  -1.5594  -1.4676  -1.4550  -1.4464  -1.4417  -1.4404  -1.4234
    -1.4217  -1.4210  -1.4197  -1.3592  -1.3488  -1.3455  -1.3422  -1.3334
    -1.3317  -1.3305  -1.3285  -1.3279  -1.3267  -1.3075  -1.2896  -1.2739
    -1.2703  -1.2677  -1.2650  -1.2618  -1.2594  -1.2492  -1.2424  -1.2406
    -1.2256  -1.2252  -1.2189  -1.1628  -1.1601  -1.1462  -1.1442  -1.1199
    -1.1129  -1.1113  -1.0999  -1.0712  -1.0692  -1.0658  -1.0654  -1.0222
    -1.0218  -1.0188  -1.0160  -1.0036  -1.0027  -0.9951  -0.9924  -0.9813
    -0.9755  -0.9661  -0.9649  -0.9600  -0.9589  -0.9540  -0.9531  -0.9159
    -0.9120  -0.8859  -0.8786  -0.8513  -0.8497  -0.8391  -0.8382  -0.8288
    -0.8272  -0.8256  -0.8244  -0.8144  -0.8124  -0.8078  -0.8062  -0.7464
    -0.7421  -0.7328  -0.7296  -0.7276  -0.7271  -0.7254  -0.7241  -0.7213
    -0.7195  -0.7151  -0.7142  -0.6873  -0.6868  -0.6852  -0.6841  -0.6809
    -0.6778  -0.6735  -0.6715  -0.6642  -0.6629  -0.6621  -0.6610  -0.6119
    -0.6090  -0.5967  -0.5942  -0.5913  -0.5852  -0.5806  -0.5661  -0.5585
    -0.5350  -0.5292  -0.5232  -0.5138  -0.5090  -0.5039  -0.4971  -0.4953
    -0.4938  -0.4919  -0.4903  -0.4891  -0.4868  -0.4829  -0.4807  -0.4760
    -0.4746  -0.4690  -0.4674  -0.4669  -0.4661  -0.4637  -0.4619  -0.4608
    -0.4563  -0.4528  -0.4499  -0.4468  -0.4460  -0.4248  -0.4240  -0.4228
    -0.4218  -0.4183  -0.4133  -0.4074  -0.4061  -0.4016  -0.3920  -0.3787
    -0.3669  -0.3623  -0.3602  -0.3525  -0.3513  -0.3285  -0.3261  -0.3244
    -0.3211  -0.2831  -0.2612  -0.2530  -0.2511  -0.2494  -0.2483  -0.2366
    -0.2303  -0.2296  -0.2245  -0.2200  -0.2186  -0.2130  -0.2091  -0.2064
    -0.2051  -0.2033  -0.2003  -0.1984  -0.1976  -0.1959  -0.1920  -0.1894
    -0.1845  -0.1600  -0.1431  -0.1379  -0.1241  -0.1175  -0.1120  -0.1113
    -0.1090  -0.1037  -0.1034  -0.1021  -0.0989  -0.0819  -0.0786  -0.0772
    -0.0720  -0.0700  -0.0675  -0.0633  -0.0630  -0.0480  -0.0449  -0.0375
    -0.0325  -0.0278  -0.0200  -0.0194  -0.0166  -0.0117  -0.0091  -0.0072
    -0.0056  -0.0001   0.0026   0.0054   0.0070   0.0076   0.0125   0.0199
     0.0226   0.0245   0.0309   0.0430   0.0459   0.0594   0.0607   0.0700
     0.0799   0.0909   0.0950   0.0986   0.1063   0.1094   0.1120   0.1143
     0.1153   0.1172   0.1233   0.1268   0.1356   0.1481   0.1504   0.1548
     0.1559   0.1569   0.1588   0.1597   0.1604   0.1709   0.1750   0.1981
     0.2034   0.2096   0.2131   0.2256   0.2370   0.2400   0.2418   0.2422
     0.2554   0.2694   0.2722   0.2737   0.2783   0.2807   0.2988   0.3038
     0.3087   0.3494   0.3518   0.3541   0.3543   0.3720   0.3733   0.3793
     0.3841   0.3888   0.3925   0.4051   0.4075   0.4157   0.4197   0.4318
     0.4328   0.4389   0.4416   0.4477   0.4515   0.4613   0.4625   0.4680
     0.4693   0.4703   0.4707   0.4720   0.4727   0.4737   0.4759   0.4764
     0.4798   0.4809   0.4888   0.4914   0.4958   0.5008   0.5041   0.5065
     0.5136   0.5168   0.5227   0.5243   0.5269   0.5342   0.5385   0.5389
     0.5449   0.5538   0.5550   0.5581   0.5625   0.5658   0.5687   0.5714
     0.5746   0.5962   0.6027   0.6056   0.6102   0.6141   0.6178   0.6186
     0.6236   0.6308   0.6355   0.6390   0.6419   0.6473   0.6507   0.6560
     0.6689   0.6763   0.6766   0.6868   0.6900   0.6928   0.6948   0.6960
     0.6984   0.7063   0.7069   0.7081   0.7104   0.7127   0.7136   0.7158
     0.7173   0.7456   0.7516   0.7581   0.7637   0.7663   0.7718   0.7725
     0.7749   0.7782   0.7798   0.7799   0.7822   0.7834   0.7847   0.7913
     0.7924   0.7998   0.8018   0.8044   0.8089   0.8120   0.8139   0.8142
     0.8152   0.8167   0.8191   0.8218   0.8235   0.8262   0.8293   0.8317
     0.8360   0.8400   0.8431   0.8449   0.8496   0.8637   0.8690   0.8732
     0.8797   0.8836   0.8868   0.8895   0.8940   0.8984   0.9054   0.9082
     0.9102   0.9123   0.9177   0.9264   0.9313   0.9479   0.9542   0.9662
     0.9808   0.9942   0.9968   0.9986   1.0000   1.0111   1.0218   1.0257
     1.0311   1.0313   1.0351   1.0368   1.0393   1.0445   1.0478   1.0506
     1.0795   1.2550   1.2563   1.2623   1.2697   1.3940   1.7259   1.7547
     1.8132   1.8183   1.9246   1.9853   1.9880   1.9999   2.1880   2.2017
     2.2168   2.2311   2.2772   2.4906   2.5107   2.5313   2.5970   2.8708
     2.8767   2.8808   2.8842   3.0505   3.0619   3.0885   3.1237   3.3527
     3.3601   3.3632   3.3650   3.5490   3.6066   3.6341   3.6529   3.6594
     3.6645   3.8097   3.8393   3.9231   3.9340   3.9549   3.9871   4.0057
     4.0313   4.1027   4.1269   4.2589   4.3066   4.3680   4.4455   4.5321
     4.5688   4.5740   4.6032   4.6346   4.6580   4.6766   4.6916   4.7228
     4.7592   4.8048   4.8290   4.9072   4.9767   5.1344   5.1529   5.1631
     5.1637   5.1959   5.3028   5.4070   5.4569   5.8387   6.0174   6.1907
     6.2325   6.2545   6.2653   6.3112   6.4589   6.4730   6.5408   6.5435
     6.5496   6.5789   6.5943   6.6130   6.6432   6.6981   6.7771   6.7855
     6.7878   6.8010   6.8079   6.9565   6.9822   7.0253   7.1177   7.2945
     7.3251   7.3754   7.4355   7.4808   7.5047   7.6417   7.6546   7.6758
     7.6968   7.8076   7.9181   7.9894   8.1835   8.2219   8.2409   8.2643
     8.2909   8.3034   8.3228   8.3253   8.3701   8.3822   8.3889   8.3924
     8.4179   8.4435   8.4913   8.5583   8.5771   8.5945   8.6010   8.6053
     8.6433   8.7095   8.8034   8.8228   8.8731   8.9417   8.9709   9.0294
     9.0390   9.1123   9.2739

     the Fermi energy is     2.7475 ev

!    total energy              =  -12540.39186108 Ry
     Harris-Foulkes estimate   =  -12540.39186108 Ry
     estimated scf accuracy    <          3.2E-09 Ry

     The total energy is the sum of the following terms:

     one-electron contribution = -110064.50628201 Ry
     hartree contribution      =   56347.49442034 Ry
     xc contribution           =   -4395.26679412 Ry
     ewald contribution        =   45577.97248967 Ry
     Dispersion Correction     =      -2.79979187 Ry
     smearing contrib. (-TS)   =      -3.28590309 Ry

     convergence has been achieved in  47 iterations

     Writing output data file gc.save
 
     init_run     :    166.60s CPU    179.46s WALL (       1 calls)
     electrons    :  21467.01s CPU  22965.19s WALL (       1 calls)

     Called by init_run:
     wfcinit      :    163.08s CPU    174.91s WALL (       1 calls)
     potinit      :      1.54s CPU      1.65s WALL (       1 calls)

     Called by electrons:
     c_bands      :  19262.84s CPU  20585.29s WALL (      47 calls)
     sum_band     :   1750.48s CPU   1856.66s WALL (      47 calls)
     v_of_rho     :      5.77s CPU      7.45s WALL (      48 calls)
     newd         :     16.40s CPU     31.20s WALL (      48 calls)
     mix_rho      :    431.50s CPU    484.28s WALL (      47 calls)

     Called by c_bands:
     init_us_2    :     87.27s CPU     88.43s WALL (     570 calls)
     cegterg      :  18907.08s CPU  20209.68s WALL (     282 calls)

     Called by sum_band:
     sum_band:bec :      4.74s CPU      5.45s WALL (     282 calls)
     addusdens    :     23.51s CPU     36.34s WALL (      47 calls)

     Called by *egterg:
     h_psi        :   7344.87s CPU   7930.78s WALL (    1857 calls)
     s_psi        :   1765.62s CPU   1776.97s WALL (    1857 calls)
     g_psi        :     19.14s CPU     19.16s WALL (    1569 calls)
     cdiaghg      :   5068.78s CPU   5345.29s WALL (    1851 calls)

     Called by h_psi:
     add_vuspsi   :   1768.51s CPU   1781.26s WALL (    1857 calls)

     General routines
     calbec       :   2532.00s CPU   2551.69s WALL (    2139 calls)
     fft          :      5.68s CPU      6.94s WALL (     623 calls)
     ffts         :    187.88s CPU    226.22s WALL (   27232 calls)
     fftw         :   3753.27s CPU   4343.03s WALL ( 1226148 calls)
     davcio       :      0.27s CPU      7.10s WALL (       6 calls)
 
     Parallel routines
     fft_scatter  :   1969.80s CPU   2245.17s WALL ( 1254003 calls)
 
     PWSCF        :     6h 0m CPU        6h26m WALL

 
   This run was terminated on:  16: 4:46  17Sep2017            

=------------------------------------------------------------------------------=
   JOB DONE.
=------------------------------------------------------------------------------=
