mpirun: INFO: switching to OpenMPI runtime version 1.10.2

     Program PWSCF v.5.4.0 starts on  8Sep2017 at  0:27:18 

     This program is part of the open-source Quantum ESPRESSO suite
     for quantum simulation of materials; please cite
         "P. Giannozzi et al., J. Phys.:Condens. Matter 21 395502 (2009);
          URL http://www.quantum-espresso.org", 
     in publications or presentations arising from this work. More details at
     http://www.quantum-espresso.org/quote

     Parallel version (MPI & OpenMP), running on      56 processor cores
     Number of MPI processes:                56
     Threads/MPI process:                     1
     R & G space division:  proc/nbgrp/npool/nimage =      56
     Waiting for input...
     Reading input from standard input
Warning: card &IONS ignored
Warning: card / ignored

     Current dimensions of program PWSCF are:
     Max number of different atomic species (ntypx) = 10
     Max number of k-points (npk) =  40000
     Max angular momentum in pseudopotentials (lmaxx) =  3

     -------------------------------------
     Parameters for Dispersion Correction:
     -------------------------------------
       atom      VdW radius       C_6     

        Cu         2.952        374.666
        C_h        2.744         60.710
        C          2.744         60.710

     Subspace diagonalization in iterative solution of the eigenvalue problem:
     one sub-group per band group will be used
     scalapack distributed-memory algorithm (size of sub-group:  5*  5 procs)

 
     Parallelization info
     --------------------
     sticks:   dense  smooth     PW     G-vecs:    dense   smooth      PW
     Min         204     204     54                36612    36612    4962
     Max         205     205     55                36617    36617    4968
     Sum       11433   11433   3039              2050409  2050409  278033
 


     bravais-lattice index     =            0
     lattice parameter (alat)  =      13.9425  a.u.
     unit-cell volume          =   21209.0878 (a.u.)^3
     number of atoms/cell      =          148
     number of atomic types    =            3
     number of electrons       =      1292.00
     number of Kohn-Sham states=          775
     kinetic-energy cutoff     =      80.0000  Ry
     charge density cutoff     =     320.0000  Ry
     convergence threshold     =      1.0E-08
     mixing beta               =       0.7000
     number of iterations used =            8  local-TF  mixing
     Exchange-correlation      =  SLA  PW   PBX  PBC ( 1  4  3  4 0 0)

     celldm(1)=  13.942539  celldm(2)=   0.000000  celldm(3)=   0.000000
     celldm(4)=   0.000000  celldm(5)=   0.000000  celldm(6)=   0.000000

     crystal axes: (cart. coord. in units of alat)
               a(1) = (   1.000000   0.000000   0.000000 )  
               a(2) = (   0.000000   2.309401   0.000000 )  
               a(3) = (   0.000000   0.000000   3.388418 )  

     reciprocal axes: (cart. coord. in units 2 pi/alat)
               b(1) = (  1.000000  0.000000  0.000000 )  
               b(2) = (  0.000000  0.433013  0.000000 )  
               b(3) = (  0.000000  0.000000  0.295123 )  


     PseudoPot. # 1 for Cu read from file:
     /home/549/hxw549/Short/pseudopotentials/Cu.pbe-n-van_ak.UPF
     MD5 check sum: 601f7c30f7467666bec936e0661ce3e1
     Pseudo is Ultrasoft + core correction, Zval = 11.0
     Generated by new atomic code, or converted to UPF format
     Using radial grid of  867 points,  6 beta functions with: 
                l(1) =   0
                l(2) =   0
                l(3) =   1
                l(4) =   1
                l(5) =   2
                l(6) =   2
     Q(r) pseudized with  8 coefficients,  rinner =    1.400   1.400   1.400
                                                       1.400   1.400

     PseudoPot. # 2 for C  read from file:
     /home/549/hxw549/Short/pseudopotentials/C.star1s-pbe-mt_gipaw.UPF
     MD5 check sum: ef0cb3dee31bd9e4ba2a832a2c716264
     Pseudo is Norm-conserving, Zval =  5.0
     Generated by new atomic code, or converted to UPF format
     Using radial grid of 1073 points,  1 beta functions with: 
                l(1) =   0

     PseudoPot. # 3 for C  read from file:
     /home/549/hxw549/Short/pseudopotentials/C.pbe-mt_gipaw.UPF
     MD5 check sum: 5ac2f21f2c440b14befe521540822c15
     Pseudo is Norm-conserving, Zval =  4.0
     Generated by new atomic code, or converted to UPF format
     Using radial grid of 1073 points,  1 beta functions with: 
                l(1) =   0

     atomic species   valence    mass     pseudopotential
        Cu            11.00    63.54600     Cu( 1.00)
        C_h            5.00    12.01070     C ( 1.00)
        C              4.00    12.01070     C ( 1.00)

     No symmetry found



   Cartesian axes

     site n.     atom                  positions (alat units)
         1           Cu  tau(   1) = (   0.0000000   0.0000567   0.9971194  )
         2           Cu  tau(   2) = (   0.2499927   0.2309760   0.9972946  )
         3           Cu  tau(   3) = (   0.5000000   0.0000313   0.9971490  )
         4           Cu  tau(   4) = (   0.7500073   0.2309760   0.9972946  )
         5           Cu  tau(   5) = (   0.0000000   0.4618437   0.9973425  )
         6           Cu  tau(   6) = (   0.2499840   0.6927701   0.9971914  )
         7           Cu  tau(   7) = (   0.5000000   0.4618722   0.9973119  )
         8           Cu  tau(   8) = (   0.7500160   0.6927701   0.9971914  )
         9           Cu  tau(   9) = (   0.0000000   0.9237521   0.9970621  )
        10           Cu  tau(  10) = (   0.2500157   1.1547420   0.9971373  )
        11           Cu  tau(  11) = (   0.5000000   0.9237453   0.9970727  )
        12           Cu  tau(  12) = (   0.7499843   1.1547420   0.9971373  )
        13           Cu  tau(  13) = (   0.0000000   1.3856555   0.9972830  )
        14           Cu  tau(  14) = (   0.2500029   1.6165618   0.9973242  )
        15           Cu  tau(  15) = (   0.5000000   1.3857014   0.9973005  )
        16           Cu  tau(  16) = (   0.7499971   1.6165618   0.9973242  )
        17           Cu  tau(  17) = (   0.0000000   1.8474941   0.9971969  )
        18           Cu  tau(  18) = (   0.2500043   2.0784518   0.9970745  )
        19           Cu  tau(  19) = (   0.5000000   1.8474499   0.9971773  )
        20           Cu  tau(  20) = (   0.7499957   2.0784518   0.9970745  )
        21           Cu  tau(  21) = (   0.0000000   0.2308065   1.2457643  )
        22           Cu  tau(  22) = (   0.2499892  -0.0001010   1.2455764  )
        23           Cu  tau(  23) = (   0.5000000   0.2308938   1.2456746  )
        24           Cu  tau(  24) = (   0.7500108  -0.0001010   1.2455764  )
        25           Cu  tau(  25) = (   0.0000000   0.6929786   1.2456406  )
        26           Cu  tau(  26) = (   0.2499874   0.4619293   1.2457459  )
        27           Cu  tau(  27) = (   0.5000000   0.6929012   1.2456074  )
        28           Cu  tau(  28) = (   0.7500126   0.4619293   1.2457459  )
        29           Cu  tau(  29) = (   0.0000000   1.1546142   1.2455676  )
        30           Cu  tau(  30) = (   0.2499981   0.9237849   1.2455149  )
        31           Cu  tau(  31) = (   0.5000000   1.1545763   1.2455800  )
        32           Cu  tau(  32) = (   0.7500019   0.9237849   1.2455149  )
        33           Cu  tau(  33) = (   0.0000000   1.6166029   1.2456910  )
        34           Cu  tau(  34) = (   0.2500161   1.3855492   1.2457134  )
        35           Cu  tau(  35) = (   0.5000000   1.6166555   1.2458019  )
        36           Cu  tau(  36) = (   0.7499839   1.3855492   1.2457134  )
        37           Cu  tau(  37) = (   0.0000000   2.0784993   1.2455162  )
        38           Cu  tau(  38) = (   0.2500161   1.8476387   1.2456210  )
        39           Cu  tau(  39) = (   0.5000000   2.0784755   1.2455152  )
        40           Cu  tau(  40) = (   0.7499839   1.8476387   1.2456210  )
        41           Cu  tau(  41) = (   0.0000000  -0.0003182   1.4954305  )
        42           Cu  tau(  42) = (   0.2500224   0.2307186   1.4951678  )
        43           Cu  tau(  43) = (   0.5000000  -0.0002059   1.4952775  )
        44           Cu  tau(  44) = (   0.7499776   0.2307186   1.4951678  )
        45           Cu  tau(  45) = (   0.0000000   0.4620254   1.4950571  )
        46           Cu  tau(  46) = (   0.2500339   0.6931225   1.4952807  )
        47           Cu  tau(  47) = (   0.5000000   0.4619896   1.4952144  )
        48           Cu  tau(  48) = (   0.7499661   0.6931225   1.4952807  )
        49           Cu  tau(  49) = (   0.0000000   0.9238798   1.4954544  )
        50           Cu  tau(  50) = (   0.2499708   1.1544329   1.4953374  )
        51           Cu  tau(  51) = (   0.5000000   0.9237633   1.4954072  )
        52           Cu  tau(  52) = (   0.7500292   1.1544329   1.4953374  )
        53           Cu  tau(  53) = (   0.0000000   1.3854453   1.4952066  )
        54           Cu  tau(  54) = (   0.2499861   1.6167017   1.4951298  )
        55           Cu  tau(  55) = (   0.5000000   1.3853760   1.4951346  )
        56           Cu  tau(  56) = (   0.7500139   1.6167017   1.4951298  )
        57           Cu  tau(  57) = (   0.0000000   1.8477718   1.4952308  )
        58           Cu  tau(  58) = (   0.2499930   2.0785254   1.4954090  )
        59           Cu  tau(  59) = (   0.5000000   1.8478762   1.4953503  )
        60           Cu  tau(  60) = (   0.7500070   2.0785254   1.4954090  )
        61           Cu  tau(  61) = (   0.0000000   0.2310733   1.7440777  )
        62           Cu  tau(  62) = (   0.2501089  -0.0001294   1.7450479  )
        63           Cu  tau(  63) = (   0.5000000   0.2306045   1.7445985  )
        64           Cu  tau(  64) = (   0.7498911  -0.0001294   1.7450479  )
        65           Cu  tau(  65) = (   0.0000000   0.6927994   1.7446059  )
        66           Cu  tau(  66) = (   0.2502918   0.4619532   1.7441197  )
        67           Cu  tau(  67) = (   0.5000000   0.6931011   1.7451318  )
        68           Cu  tau(  68) = (   0.7497082   0.4619532   1.7441197  )
        69           Cu  tau(  69) = (   0.0000000   1.1545789   1.7453503  )
        70           Cu  tau(  70) = (   0.2500220   0.9237908   1.7453835  )
        71           Cu  tau(  71) = (   0.5000000   1.1545999   1.7449118  )
        72           Cu  tau(  72) = (   0.7499780   0.9237908   1.7453835  )
        73           Cu  tau(  73) = (   0.0000000   1.6167791   1.7444075  )
        74           Cu  tau(  74) = (   0.2497438   1.3855115   1.7442733  )
        75           Cu  tau(  75) = (   0.5000000   1.6164906   1.7439233  )
        76           Cu  tau(  76) = (   0.7502562   1.3855115   1.7442733  )
        77           Cu  tau(  77) = (   0.0000000   2.0782721   1.7455014  )
        78           Cu  tau(  78) = (   0.2498426   1.8476765   1.7447807  )
        79           Cu  tau(  79) = (   0.5000000   2.0787016   1.7454002  )
        80           Cu  tau(  80) = (   0.7501574   1.8476765   1.7447807  )
        81           Cu  tau(  81) = (   0.0000000   0.0010732   1.9906710  )
        82           Cu  tau(  82) = (   0.2503054   0.2314650   1.9904877  )
        83           Cu  tau(  83) = (   0.5000000   0.0001335   1.9924670  )
        84           Cu  tau(  84) = (   0.7496946   0.2314650   1.9904877  )
        85           Cu  tau(  85) = (   0.0000000   0.4618379   1.9901778  )
        86           Cu  tau(  86) = (   0.2508441   0.6921348   1.9910282  )
        87           Cu  tau(  87) = (   0.5000000   0.4613052   1.9913358  )
        88           Cu  tau(  88) = (   0.7491559   0.6921348   1.9910282  )
        89           Cu  tau(  89) = (   0.0000000   0.9224699   1.9915918  )
        90           Cu  tau(  90) = (   0.2491275   1.1552920   1.9912642  )
        91           Cu  tau(  91) = (   0.5000000   0.9247757   1.9920574  )
        92           Cu  tau(  92) = (   0.7508725   1.1552920   1.9912642  )
        93           Cu  tau(  93) = (   0.0000000   1.3865904   1.9916296  )
        94           Cu  tau(  94) = (   0.2499532   1.6162906   1.9903050  )
        95           Cu  tau(  95) = (   0.5000000   1.3858063   1.9901800  )
        96           Cu  tau(  96) = (   0.7500468   1.6162906   1.9903050  )
        97           Cu  tau(  97) = (   0.0000000   1.8468318   1.9923212  )
        98           Cu  tau(  98) = (   0.2497561   2.0783183   1.9915134  )
        99           Cu  tau(  99) = (   0.5000000   1.8467805   1.9903847  )
       100           Cu  tau( 100) = (   0.7502439   2.0783183   1.9915134  )
       101           C   tau( 101) = (   0.1499660   0.0962962   2.3888871  )
       102           C   tau( 102) = (   0.1499660   0.2886925   2.3900713  )
       103           C   tau( 103) = (   0.3165989   0.0000435   2.3878440  )
       104           C   tau( 104) = (   0.3164566   0.3848966   2.3886743  )
       105           C   tau( 105) = (   0.4830895   0.0962174   2.3860158  )
       106           C   tau( 106) = (   0.4830936   0.2886629   2.3856823  )
       107           C   tau( 107) = (   0.6499664  -0.0000818   2.3845687  )
       108           C   tau( 108) = (   0.6499664   0.3849277   2.3842391  )
       109           C   tau( 109) = (   0.8168419   0.0962174   2.3860158  )
       110           C   tau( 110) = (   0.8168378   0.2886629   2.3856823  )
       111           C   tau( 111) = (   0.9833339   0.0000435   2.3878440  )
       112           C   tau( 112) = (   0.9834762   0.3848966   2.3886743  )
       113           C   tau( 113) = (   0.1499660   0.6735163   2.3892509  )
       114           C   tau( 114) = (   0.1499660   0.8659398   2.3870960  )
       115           C   tau( 115) = (   0.3164417   0.5773226   2.3882842  )
       116           C   tau( 116) = (   0.3167087   0.9622141   2.3870264  )
       117           C   tau( 117) = (   0.4831749   0.6735984   2.3858047  )
       118           C   tau( 118) = (   0.4831695   0.8660537   2.3866148  )
       119           C   tau( 119) = (   0.6499664   0.5773685   2.3848465  )
       120           C_h tau( 120) = (   0.6499664   0.9623380   2.3860825  )
       121           C   tau( 121) = (   0.8167565   0.6735984   2.3858047  )
       122           C   tau( 122) = (   0.8167633   0.8660537   2.3866148  )
       123           C   tau( 123) = (   0.9834897   0.5773226   2.3882842  )
       124           C   tau( 124) = (   0.9832227   0.9622141   2.3870264  )
       125           C   tau( 125) = (   0.1499660   1.2508867   2.3852683  )
       126           C   tau( 126) = (   0.1499660   1.4433300   2.3840871  )
       127           C   tau( 127) = (   0.3167019   1.1546708   2.3859697  )
       128           C   tau( 128) = (   0.3168605   1.5396104   2.3857176  )
       129           C   tau( 129) = (   0.4834758   1.2509657   2.3878953  )
       130           C   tau( 130) = (   0.4834527   1.4433958   2.3886602  )
       131           C   tau( 131) = (   0.6499664   1.1547731   2.3885512  )
       132           C   tau( 132) = (   0.6499664   1.5396099   2.3901428  )
       133           C   tau( 133) = (   0.8164570   1.2509657   2.3878953  )
       134           C   tau( 134) = (   0.8164800   1.4433958   2.3886602  )
       135           C   tau( 135) = (   0.9832295   1.1546708   2.3859697  )
       136           C   tau( 136) = (   0.9830723   1.5396104   2.3857176  )
       137           C   tau( 137) = (   0.1499660   1.8283510   2.3842019  )
       138           C   tau( 138) = (   0.1499660   2.0207949   2.3863399  )
       139           C   tau( 139) = (   0.3168618   1.7320513   2.3858703  )
       140           C   tau( 140) = (   0.3165840   2.1169980   2.3865340  )
       141           C   tau( 141) = (   0.4833809   1.8282368   2.3882160  )
       142           C   tau( 142) = (   0.4834012   2.0206763   2.3869561  )
       143           C   tau( 143) = (   0.6499664   1.7319961   2.3895398  )
       144           C   tau( 144) = (   0.6499664   2.1168754   2.3870198  )
       145           C   tau( 145) = (   0.8165505   1.8282368   2.3882160  )
       146           C   tau( 146) = (   0.8165302   2.0206763   2.3869561  )
       147           C   tau( 147) = (   0.9830696   1.7320513   2.3858703  )
       148           C   tau( 148) = (   0.9833474   2.1169980   2.3865340  )

     number of k points=     6  gaussian smearing, width (Ry)=  0.1000
                       cart. coord. in units 2pi/alat
        k(    1) = (   0.0000000   0.0000000   0.0000000), wk =   0.2500000
        k(    2) = (   0.0000000  -0.2165064   0.0000000), wk =   0.2500000
        k(    3) = (   0.2500000   0.0000000   0.0000000), wk =   0.5000000
        k(    4) = (   0.2500000  -0.2165064   0.0000000), wk =   0.5000000
        k(    5) = (  -0.5000000   0.0000000   0.0000000), wk =   0.2500000
        k(    6) = (  -0.5000000  -0.2165064   0.0000000), wk =   0.2500000

     Dense  grid:  2050409 G-vectors     FFT dimensions: (  80, 192, 270)

     Largest allocated arrays     est. size (Mb)     dimensions
        Kohn-Sham Wavefunctions        54.44 Mb     (    4604,  775)
        NL pseudopotentials           129.82 Mb     (    4604, 1848)
        Each V/rho on FFT grid          1.17 Mb     (   76800)
        Each G-vector array             0.28 Mb     (   36616)
        G-vector shells                 0.14 Mb     (   17932)
     Largest temporary arrays     est. size (Mb)     dimensions
        Auxiliary wavefunctions       217.78 Mb     (    4604, 3100)
        Each subspace H/S matrix        5.87 Mb     (     620,  620)
        Each <psi_i|beta_j> matrix     21.85 Mb     (    1848,  775)
        Arrays for rho mixing           9.38 Mb     (   76800,    8)

     Initial potential from superposition of free atoms
     Check: negative starting charge=   -0.001843

     starting charge 1266.81751, renormalised to 1292.00000

     negative rho (up, down):  1.879E-03 0.000E+00
     Starting wfc are 1284 randomized atomic wfcs

     total cpu time spent up to now is      106.6 secs

     Self-consistent Calculation

     iteration #  1     ecut=    80.00 Ry     beta=0.70
     Davidson diagonalization with overlap
     c_bands:  3 eigenvalues not converged
     c_bands:  4 eigenvalues not converged
     ethr =  1.00E-04,  avg # of iterations = 36.3

     negative rho (up, down):  2.723E+01 0.000E+00

     total cpu time spent up to now is     2050.3 secs

     total energy              =   -9474.30437208 Ry
     Harris-Foulkes estimate   =  -17310.55681763 Ry
     estimated scf accuracy    <  180109.06367960 Ry

     iteration #  2     ecut=    80.00 Ry     beta=0.70
     Davidson diagonalization with overlap
     ethr =  1.00E-02,  avg # of iterations = 12.3

     negative rho (up, down):  3.149E+01 0.000E+00

     total cpu time spent up to now is     2949.0 secs

     total energy              =  -12211.80863672 Ry
     Harris-Foulkes estimate   =  -13664.47269540 Ry
     estimated scf accuracy    <   23912.57403085 Ry

     iteration #  3     ecut=    80.00 Ry     beta=0.70
     Davidson diagonalization with overlap
     ethr =  1.00E-02,  avg # of iterations =  7.7

     negative rho (up, down):  3.199E+01 0.000E+00

     total cpu time spent up to now is     3476.5 secs

     total energy              =  -12462.74424522 Ry
     Harris-Foulkes estimate   =  -13403.52531977 Ry
     estimated scf accuracy    <    5809.01462553 Ry

     iteration #  4     ecut=    80.00 Ry     beta=0.70
     Davidson diagonalization with overlap
     ethr =  1.00E-02,  avg # of iterations =  5.7

     negative rho (up, down):  2.381E+01 0.000E+00

     total cpu time spent up to now is     3967.3 secs

     total energy              =  -12847.10929826 Ry
     Harris-Foulkes estimate   =  -13084.27001379 Ry
     estimated scf accuracy    <    1782.49482032 Ry

     iteration #  5     ecut=    80.00 Ry     beta=0.70
     Davidson diagonalization with overlap
     ethr =  1.00E-02,  avg # of iterations =  3.3

     negative rho (up, down):  1.856E+01 0.000E+00

     total cpu time spent up to now is     4232.2 secs

     total energy              =  -12845.84985817 Ry
     Harris-Foulkes estimate   =  -12961.52667369 Ry
     estimated scf accuracy    <    1268.12888533 Ry

     iteration #  6     ecut=    80.00 Ry     beta=0.70
     Davidson diagonalization with overlap
     ethr =  1.00E-02,  avg # of iterations =  3.0

     negative rho (up, down):  1.288E+01 0.000E+00

     total cpu time spent up to now is     4436.3 secs

     total energy              =  -12834.57182487 Ry
     Harris-Foulkes estimate   =  -12908.14666413 Ry
     estimated scf accuracy    <     569.61379556 Ry

     iteration #  7     ecut=    80.00 Ry     beta=0.70
     Davidson diagonalization with overlap
     ethr =  1.00E-02,  avg # of iterations =  2.0

     negative rho (up, down):  9.039E+00 0.000E+00

     total cpu time spent up to now is     4615.3 secs

     total energy              =  -12805.97252385 Ry
     Harris-Foulkes estimate   =  -12851.73024856 Ry
     estimated scf accuracy    <     436.89913469 Ry

     iteration #  8     ecut=    80.00 Ry     beta=0.70
     Davidson diagonalization with overlap
     ethr =  1.00E-02,  avg # of iterations =  2.2

     negative rho (up, down):  7.191E+00 0.000E+00

     total cpu time spent up to now is     4792.8 secs

     total energy              =  -12787.24223209 Ry
     Harris-Foulkes estimate   =  -12822.08621915 Ry
     estimated scf accuracy    <     522.86147679 Ry

     iteration #  9     ecut=    80.00 Ry     beta=0.70
     Davidson diagonalization with overlap
     ethr =  1.00E-02,  avg # of iterations =  2.0

     negative rho (up, down):  5.469E+00 0.000E+00

     total cpu time spent up to now is     4967.9 secs

     total energy              =  -12780.38848810 Ry
     Harris-Foulkes estimate   =  -12799.57380125 Ry
     estimated scf accuracy    <     185.35272277 Ry

     iteration # 10     ecut=    80.00 Ry     beta=0.70
     Davidson diagonalization with overlap
     ethr =  1.00E-02,  avg # of iterations =  1.0

     negative rho (up, down):  1.197E+00 0.000E+00

     total cpu time spent up to now is     5131.1 secs

     total energy              =  -12736.48895419 Ry
     Harris-Foulkes estimate   =  -12781.83745031 Ry
     estimated scf accuracy    <     146.95607050 Ry

     iteration # 11     ecut=    80.00 Ry     beta=0.70
     Davidson diagonalization with overlap
     ethr =  1.00E-02,  avg # of iterations =  3.3

     negative rho (up, down):  9.603E-01 0.000E+00

     total cpu time spent up to now is     5323.2 secs

     total energy              =  -12728.91652336 Ry
     Harris-Foulkes estimate   =  -12748.42382981 Ry
     estimated scf accuracy    <     492.41163944 Ry

     iteration # 12     ecut=    80.00 Ry     beta=0.70
     Davidson diagonalization with overlap
     ethr =  1.00E-02,  avg # of iterations =  1.0

     negative rho (up, down):  6.593E-01 0.000E+00

     total cpu time spent up to now is     5486.2 secs

     total energy              =  -12725.13072669 Ry
     Harris-Foulkes estimate   =  -12742.12191560 Ry
     estimated scf accuracy    <     366.22178672 Ry

     iteration # 13     ecut=    80.00 Ry     beta=0.70
     Davidson diagonalization with overlap
     ethr =  1.00E-02,  avg # of iterations =  1.0

     negative rho (up, down):  2.770E+00 0.000E+00

     total cpu time spent up to now is     5649.3 secs

     total energy              =  -12716.43999326 Ry
     Harris-Foulkes estimate   =  -12734.57119840 Ry
     estimated scf accuracy    <     135.34076513 Ry

     iteration # 14     ecut=    80.00 Ry     beta=0.70
     Davidson diagonalization with overlap
     ethr =  1.00E-02,  avg # of iterations =  2.0

     negative rho (up, down):  4.938E+00 0.000E+00

     total cpu time spent up to now is     5824.6 secs

     total energy              =  -12716.83045199 Ry
     Harris-Foulkes estimate   =  -12726.55734170 Ry
     estimated scf accuracy    <     122.50538758 Ry

     iteration # 15     ecut=    80.00 Ry     beta=0.70
     Davidson diagonalization with overlap
     ethr =  9.48E-03,  avg # of iterations =  1.0

     negative rho (up, down):  5.668E+00 0.000E+00

     total cpu time spent up to now is     5987.7 secs

     total energy              =  -12715.76303428 Ry
     Harris-Foulkes estimate   =  -12721.59793046 Ry
     estimated scf accuracy    <      42.56972671 Ry

     iteration # 16     ecut=    80.00 Ry     beta=0.70
     Davidson diagonalization with overlap
     ethr =  3.29E-03,  avg # of iterations =  2.7

     negative rho (up, down):  4.395E+00 0.000E+00

     total cpu time spent up to now is     6170.5 secs

     total energy              =  -12713.26295626 Ry
     Harris-Foulkes estimate   =  -12718.69148386 Ry
     estimated scf accuracy    <      37.73392307 Ry

     iteration # 17     ecut=    80.00 Ry     beta=0.70
     Davidson diagonalization with overlap
     ethr =  2.92E-03,  avg # of iterations =  2.5

     negative rho (up, down):  5.419E+00 0.000E+00

     total cpu time spent up to now is     6350.8 secs

     total energy              =  -12714.37950155 Ry
     Harris-Foulkes estimate   =  -12716.18285493 Ry
     estimated scf accuracy    <      20.13297545 Ry

     iteration # 18     ecut=    80.00 Ry     beta=0.70
     Davidson diagonalization with overlap
     ethr =  1.56E-03,  avg # of iterations =  4.7

     negative rho (up, down):  4.669E+00 0.000E+00

     total cpu time spent up to now is     6554.4 secs

     total energy              =  -12713.72150507 Ry
     Harris-Foulkes estimate   =  -12715.25355826 Ry
     estimated scf accuracy    <      13.75086975 Ry

     iteration # 19     ecut=    80.00 Ry     beta=0.70
     Davidson diagonalization with overlap
     ethr =  1.06E-03,  avg # of iterations =  6.0

     negative rho (up, down):  4.062E+00 0.000E+00

     total cpu time spent up to now is     6775.8 secs

     total energy              =  -12712.52870359 Ry
     Harris-Foulkes estimate   =  -12714.00518304 Ry
     estimated scf accuracy    <      10.25622159 Ry

     iteration # 20     ecut=    80.00 Ry     beta=0.70
     Davidson diagonalization with overlap
     ethr =  7.94E-04,  avg # of iterations =  9.3

     negative rho (up, down):  3.094E+00 0.000E+00

     total cpu time spent up to now is     7038.2 secs

     total energy              =  -12711.92557436 Ry
     Harris-Foulkes estimate   =  -12712.80242039 Ry
     estimated scf accuracy    <       7.47249901 Ry

     iteration # 21     ecut=    80.00 Ry     beta=0.70
     Davidson diagonalization with overlap
     ethr =  5.78E-04,  avg # of iterations =  1.7

     negative rho (up, down):  2.216E+00 0.000E+00

     total cpu time spent up to now is     7210.2 secs

     total energy              =  -12711.45108485 Ry
     Harris-Foulkes estimate   =  -12712.05445768 Ry
     estimated scf accuracy    <       7.55229143 Ry

     iteration # 22     ecut=    80.00 Ry     beta=0.70
     Davidson diagonalization with overlap
     ethr =  5.78E-04,  avg # of iterations =  4.3

     negative rho (up, down):  1.185E+00 0.000E+00

     total cpu time spent up to now is     7410.9 secs

     total energy              =  -12710.56958853 Ry
     Harris-Foulkes estimate   =  -12711.65213768 Ry
     estimated scf accuracy    <       6.91191937 Ry

     iteration # 23     ecut=    80.00 Ry     beta=0.70
     Davidson diagonalization with overlap
     ethr =  5.35E-04,  avg # of iterations =  1.8

     negative rho (up, down):  1.821E+00 0.000E+00

     total cpu time spent up to now is     7585.0 secs

     total energy              =  -12711.06622943 Ry
     Harris-Foulkes estimate   =  -12710.78921219 Ry
     estimated scf accuracy    <      10.76449137 Ry

     iteration # 24     ecut=    80.00 Ry     beta=0.70
     Davidson diagonalization with overlap
     ethr =  5.35E-04,  avg # of iterations =  1.0

     negative rho (up, down):  3.495E-01 0.000E+00

     total cpu time spent up to now is     7748.3 secs

     total energy              =  -12710.09768170 Ry
     Harris-Foulkes estimate   =  -12711.35069017 Ry
     estimated scf accuracy    <       6.20043288 Ry

     iteration # 25     ecut=    80.00 Ry     beta=0.70
     Davidson diagonalization with overlap
     ethr =  4.80E-04,  avg # of iterations = 11.5

     negative rho (up, down):  3.960E-04 0.000E+00

     total cpu time spent up to now is     8034.4 secs

     total energy              =  -12709.68447543 Ry
     Harris-Foulkes estimate   =  -12710.18043551 Ry
     estimated scf accuracy    <       6.67983363 Ry

     iteration # 26     ecut=    80.00 Ry     beta=0.70
     Davidson diagonalization with overlap
     ethr =  4.80E-04,  avg # of iterations =  1.7

     total cpu time spent up to now is     8203.4 secs

     total energy              =  -12709.19859577 Ry
     Harris-Foulkes estimate   =  -12709.73787134 Ry
     estimated scf accuracy    <       5.23748264 Ry

     iteration # 27     ecut=    80.00 Ry     beta=0.70
     Davidson diagonalization with overlap
     ethr =  4.05E-04,  avg # of iterations =  1.0

     total cpu time spent up to now is     8365.2 secs

     total energy              =  -12708.50342360 Ry
     Harris-Foulkes estimate   =  -12709.28158624 Ry
     estimated scf accuracy    <       4.74412731 Ry

     iteration # 28     ecut=    80.00 Ry     beta=0.70
     Davidson diagonalization with overlap
     ethr =  3.67E-04,  avg # of iterations =  1.3

     total cpu time spent up to now is     8532.4 secs

     total energy              =  -12708.09429990 Ry
     Harris-Foulkes estimate   =  -12708.59173716 Ry
     estimated scf accuracy    <       3.82962732 Ry

     iteration # 29     ecut=    80.00 Ry     beta=0.70
     Davidson diagonalization with overlap
     ethr =  2.96E-04,  avg # of iterations =  1.3

     negative rho (up, down):  1.259E-01 0.000E+00

     total cpu time spent up to now is     8699.7 secs

     total energy              =  -12707.34545916 Ry
     Harris-Foulkes estimate   =  -12708.16986256 Ry
     estimated scf accuracy    <       2.56469007 Ry

     iteration # 30     ecut=    80.00 Ry     beta=0.70
     Davidson diagonalization with overlap
     ethr =  1.99E-04,  avg # of iterations =  7.0

     negative rho (up, down):  1.710E-01 0.000E+00

     total cpu time spent up to now is     8948.1 secs

     total energy              =  -12707.16502812 Ry
     Harris-Foulkes estimate   =  -12707.46890566 Ry
     estimated scf accuracy    <       1.28267038 Ry

     iteration # 31     ecut=    80.00 Ry     beta=0.70
     Davidson diagonalization with overlap
     ethr =  9.93E-05,  avg # of iterations =  7.7

     negative rho (up, down):  1.844E-01 0.000E+00

     total cpu time spent up to now is     9200.2 secs

     total energy              =  -12707.13395977 Ry
     Harris-Foulkes estimate   =  -12707.24976221 Ry
     estimated scf accuracy    <       0.85061171 Ry

     iteration # 32     ecut=    80.00 Ry     beta=0.70
     Davidson diagonalization with overlap
     ethr =  6.58E-05,  avg # of iterations =  8.8

     negative rho (up, down):  1.323E-01 0.000E+00

     total cpu time spent up to now is     9467.0 secs

     total energy              =  -12707.12137444 Ry
     Harris-Foulkes estimate   =  -12707.17105915 Ry
     estimated scf accuracy    <       0.30877621 Ry

     iteration # 33     ecut=    80.00 Ry     beta=0.70
     Davidson diagonalization with overlap
     c_bands:  1 eigenvalues not converged
     ethr =  2.39E-05,  avg # of iterations =  8.7

     negative rho (up, down):  9.508E-02 0.000E+00

     total cpu time spent up to now is     9724.1 secs

     total energy              =  -12707.13702323 Ry
     Harris-Foulkes estimate   =  -12707.14907853 Ry
     estimated scf accuracy    <       0.05910645 Ry

     iteration # 34     ecut=    80.00 Ry     beta=0.70
     Davidson diagonalization with overlap
     ethr =  4.57E-06,  avg # of iterations =  9.8

     negative rho (up, down):  8.756E-02 0.000E+00

     total cpu time spent up to now is    10020.2 secs

     total energy              =  -12707.14018647 Ry
     Harris-Foulkes estimate   =  -12707.14574972 Ry
     estimated scf accuracy    <       0.03200924 Ry

     iteration # 35     ecut=    80.00 Ry     beta=0.70
     Davidson diagonalization with overlap
     ethr =  2.48E-06,  avg # of iterations =  7.2

     negative rho (up, down):  6.316E-02 0.000E+00

     total cpu time spent up to now is    10274.7 secs

     total energy              =  -12707.14248181 Ry
     Harris-Foulkes estimate   =  -12707.14486697 Ry
     estimated scf accuracy    <       0.01255545 Ry

     iteration # 36     ecut=    80.00 Ry     beta=0.70
     Davidson diagonalization with overlap
     ethr =  9.72E-07,  avg # of iterations =  3.8

     negative rho (up, down):  2.331E-02 0.000E+00

     total cpu time spent up to now is    10479.8 secs

     total energy              =  -12707.14320210 Ry
     Harris-Foulkes estimate   =  -12707.14386464 Ry
     estimated scf accuracy    <       0.00437966 Ry

     iteration # 37     ecut=    80.00 Ry     beta=0.70
     Davidson diagonalization with overlap
     c_bands:  1 eigenvalues not converged
     ethr =  3.39E-07,  avg # of iterations =  8.5

     negative rho (up, down):  1.402E-02 0.000E+00

     total cpu time spent up to now is    10748.8 secs

     total energy              =  -12707.14333359 Ry
     Harris-Foulkes estimate   =  -12707.14357239 Ry
     estimated scf accuracy    <       0.00078698 Ry

     iteration # 38     ecut=    80.00 Ry     beta=0.70
     Davidson diagonalization with overlap
     c_bands:  1 eigenvalues not converged
     ethr =  6.09E-08,  avg # of iterations =  8.3

     negative rho (up, down):  1.018E-02 0.000E+00

     total cpu time spent up to now is    11014.4 secs

     total energy              =  -12707.14333530 Ry
     Harris-Foulkes estimate   =  -12707.14342803 Ry
     estimated scf accuracy    <       0.00029430 Ry

     iteration # 39     ecut=    80.00 Ry     beta=0.70
     Davidson diagonalization with overlap
     ethr =  2.28E-08,  avg # of iterations =  6.7

     negative rho (up, down):  4.465E-03 0.000E+00

     total cpu time spent up to now is    11248.2 secs

     total energy              =  -12707.14328757 Ry
     Harris-Foulkes estimate   =  -12707.14335692 Ry
     estimated scf accuracy    <       0.00009727 Ry

     iteration # 40     ecut=    80.00 Ry     beta=0.70
     Davidson diagonalization with overlap
     c_bands:  1 eigenvalues not converged
     ethr =  7.53E-09,  avg # of iterations =  7.5

     negative rho (up, down):  3.053E-03 0.000E+00

     total cpu time spent up to now is    11512.5 secs

     total energy              =  -12707.14328936 Ry
     Harris-Foulkes estimate   =  -12707.14329767 Ry
     estimated scf accuracy    <       0.00005152 Ry

     iteration # 41     ecut=    80.00 Ry     beta=0.70
     Davidson diagonalization with overlap
     c_bands:  1 eigenvalues not converged
     ethr =  3.99E-09,  avg # of iterations =  8.7

     negative rho (up, down):  2.276E-03 0.000E+00

     total cpu time spent up to now is    11779.8 secs

     total energy              =  -12707.14328499 Ry
     Harris-Foulkes estimate   =  -12707.14329558 Ry
     estimated scf accuracy    <       0.00002459 Ry

     iteration # 42     ecut=    80.00 Ry     beta=0.70
     Davidson diagonalization with overlap
     ethr =  1.90E-09,  avg # of iterations =  3.2

     negative rho (up, down):  2.200E-03 0.000E+00

     total cpu time spent up to now is    11979.4 secs

     total energy              =  -12707.14328987 Ry
     Harris-Foulkes estimate   =  -12707.14328757 Ry
     estimated scf accuracy    <       0.00000341 Ry

     iteration # 43     ecut=    80.00 Ry     beta=0.70
     Davidson diagonalization with overlap
     ethr =  2.64E-10,  avg # of iterations =  3.0

     negative rho (up, down):  2.030E-03 0.000E+00

     total cpu time spent up to now is    12194.9 secs

     total energy              =  -12707.14329239 Ry
     Harris-Foulkes estimate   =  -12707.14329041 Ry
     estimated scf accuracy    <       0.00000162 Ry

     iteration # 44     ecut=    80.00 Ry     beta=0.70
     Davidson diagonalization with overlap
     ethr =  1.25E-10,  avg # of iterations =  3.3

     negative rho (up, down):  2.039E-03 0.000E+00

     total cpu time spent up to now is    12400.6 secs

     total energy              =  -12707.14329262 Ry
     Harris-Foulkes estimate   =  -12707.14329259 Ry
     estimated scf accuracy    <       0.00000054 Ry

     iteration # 45     ecut=    80.00 Ry     beta=0.70
     Davidson diagonalization with overlap
     ethr =  4.20E-11,  avg # of iterations =  3.2

     negative rho (up, down):  2.049E-03 0.000E+00

     total cpu time spent up to now is    12600.8 secs

     total energy              =  -12707.14329265 Ry
     Harris-Foulkes estimate   =  -12707.14329268 Ry
     estimated scf accuracy    <       0.00000014 Ry

     iteration # 46     ecut=    80.00 Ry     beta=0.70
     Davidson diagonalization with overlap
     ethr =  1.10E-11,  avg # of iterations =  2.7

     negative rho (up, down):  2.066E-03 0.000E+00

     total cpu time spent up to now is    12790.7 secs

     total energy              =  -12707.14329259 Ry
     Harris-Foulkes estimate   =  -12707.14329266 Ry
     estimated scf accuracy    <       0.00000008 Ry

     iteration # 47     ecut=    80.00 Ry     beta=0.70
     Davidson diagonalization with overlap
     ethr =  6.40E-12,  avg # of iterations =  2.7

     negative rho (up, down):  2.095E-03 0.000E+00

     total cpu time spent up to now is    12978.5 secs

     total energy              =  -12707.14329252 Ry
     Harris-Foulkes estimate   =  -12707.14329260 Ry
     estimated scf accuracy    <       0.00000004 Ry

     iteration # 48     ecut=    80.00 Ry     beta=0.70
     Davidson diagonalization with overlap
     ethr =  3.34E-12,  avg # of iterations =  2.7

     negative rho (up, down):  2.115E-03 0.000E+00

     total cpu time spent up to now is    13162.9 secs

     End of self-consistent calculation

          k = 0.0000 0.0000 0.0000 (256287 PWs)   bands (ev):

   -17.2734 -16.2345 -16.0884 -15.4277 -15.0443 -14.7909 -14.6906 -14.2536
   -14.1994 -14.1401 -14.1243 -13.4659 -13.3258 -13.1555 -13.1224 -13.0867
   -13.0801 -11.6716 -11.5326 -11.4841 -11.3900 -11.2056 -10.3527  -9.7659
    -9.7619  -9.6259  -9.5239  -8.9866  -8.8004  -8.6718  -8.6027  -8.0443
    -7.9027  -7.7636  -7.6411  -7.5819  -7.5741  -7.5358  -7.5247  -6.3593
    -6.3490  -6.1251  -6.0215  -6.0203  -5.9499  -5.8905  -5.8603  -5.8451
    -5.4972  -5.4848  -5.2982  -4.8904  -4.8396  -4.7987  -4.6349  -4.6216
    -4.5830  -4.4258  -4.2555  -4.1471  -3.9892  -3.9877  -3.9694  -3.9462
    -3.6198  -3.5502  -3.5273  -3.5214  -3.4220  -3.4185  -3.4068  -3.4002
    -3.2768  -3.1866  -3.1233  -3.0576  -3.0162  -3.0073  -3.0071  -3.0062
    -2.9916  -2.8586  -2.8353  -2.7988  -2.7813  -2.7454  -2.7399  -2.7386
    -2.7190  -2.7149  -2.5320  -2.4335  -2.3770  -2.3764  -2.3393  -2.3360
    -2.1942  -2.1919  -2.1823  -2.1772  -2.1519  -2.1517  -2.1517  -2.1516
    -2.1137  -2.0785  -2.0780  -2.0357  -2.0210  -2.0208  -2.0208  -2.0205
    -1.9602  -1.8414  -1.7768  -1.7419  -1.7385  -1.7379  -1.7375  -1.7029
    -1.6928  -1.6716  -1.6582  -1.6566  -1.6103  -1.6012  -1.5890  -1.5701
    -1.5641  -1.5634  -1.5614  -1.5509  -1.5396  -1.5351  -1.5347  -1.5153
    -1.5139  -1.4555  -1.4411  -1.4252  -1.4156  -1.3843  -1.3818  -1.3765
    -1.3720  -1.3527  -1.2989  -1.2954  -1.2637  -1.2619  -1.2506  -1.2114
    -1.2112  -1.1916  -1.1896  -1.1764  -1.1668  -1.1640  -1.1270  -1.1195
    -1.1096  -1.1069  -1.0493  -1.0464  -1.0355  -1.0299  -1.0267  -1.0248
    -1.0244  -1.0219  -1.0204  -1.0155  -1.0152  -0.9982  -0.9964  -0.9808
    -0.9516  -0.9424  -0.9382  -0.9341  -0.9231  -0.9189  -0.9177  -0.9171
    -0.8996  -0.8581  -0.8580  -0.8563  -0.8561  -0.8554  -0.8544  -0.8536
    -0.8526  -0.8526  -0.8492  -0.8481  -0.8481  -0.8476  -0.8456  -0.8429
    -0.8418  -0.8327  -0.8297  -0.8289  -0.8239  -0.7855  -0.6896  -0.6895
    -0.6856  -0.6829  -0.6826  -0.6603  -0.6584  -0.6413  -0.6411  -0.6196
    -0.6196  -0.6053  -0.6043  -0.6028  -0.6023  -0.5876  -0.5643  -0.5636
    -0.5617  -0.5612  -0.5537  -0.5528  -0.5420  -0.5419  -0.4920  -0.4919
    -0.4381  -0.4377  -0.4274  -0.4258  -0.4256  -0.4244  -0.4105  -0.4103
    -0.4047  -0.4045  -0.4042  -0.4039  -0.3995  -0.3994  -0.3849  -0.3849
    -0.3826  -0.3769  -0.3754  -0.3744  -0.3509  -0.3502  -0.2992  -0.2986
    -0.2967  -0.2909  -0.2907  -0.2643  -0.2642  -0.2642  -0.2642  -0.2489
    -0.2468  -0.2466  -0.2423  -0.2422  -0.2232  -0.2212  -0.2194  -0.2191
    -0.2147  -0.2143  -0.2142  -0.2139  -0.2114  -0.2086  -0.1929  -0.1899
    -0.1892  -0.1879  -0.1873  -0.1684  -0.1202  -0.1200  -0.1180  -0.1179
    -0.1152  -0.0740  -0.0702  -0.0693  -0.0683  -0.0679  -0.0623  -0.0619
    -0.0617  -0.0615  -0.0613  -0.0529  -0.0464  -0.0347  -0.0105  -0.0094
    -0.0075  -0.0068   0.0012   0.0174   0.0214   0.0217   0.0219   0.0264
     0.0302   0.0457   0.0463   0.0478   0.0486   0.0493   0.0495   0.0631
     0.0639   0.0640   0.0641   0.0688   0.0771   0.0773   0.0782   0.1005
     0.1021   0.1329   0.1354   0.1377   0.1571   0.1645   0.1650   0.1891
     0.1937   0.2305   0.2379   0.2386   0.2389   0.2400   0.2434   0.2470
     0.2710   0.2735   0.2737   0.2739   0.2743   0.2841   0.2842   0.2946
     0.3265   0.3409   0.3409   0.3471   0.3497   0.3506   0.3508   0.3775
     0.3835   0.3837   0.3843   0.3846   0.3986   0.4149   0.4183   0.4230
     0.4231   0.4370   0.4377   0.4391   0.4406   0.4784   0.4794   0.4942
     0.4949   0.4968   0.4970   0.4972   0.5089   0.5256   0.5292   0.5310
     0.5330   0.5346   0.5358   0.5359   0.5376   0.5400   0.5471   0.5475
     0.5493   0.5534   0.5543   0.5559   0.5626   0.5643   0.5929   0.5960
     0.6059   0.6060   0.6165   0.6166   0.6485   0.6494   0.6500   0.6507
     0.6527   0.6530   0.6535   0.6541   0.6649   0.6658   0.6740   0.6772
     0.6792   0.6793   0.6812   0.6874   0.6877   0.6902   0.6974   0.6989
     0.7195   0.7208   0.7209   0.7216   0.7313   0.7323   0.7389   0.7428
     0.7464   0.7486   0.7487   0.7487   0.7554   0.7569   0.7593   0.7609
     0.7686   0.7846   0.8059   0.8061   0.8165   0.8178   0.8236   0.8243
     0.8245   0.8255   0.8558   0.8563   0.8700   0.8711   0.8764   0.8764
     0.8910   0.8911   0.9001   0.9006   0.9009   0.9026   0.9092   0.9230
     0.9362   0.9374   0.9396   0.9419   0.9426   0.9439   0.9576   0.9632
     0.9723   0.9779   0.9863   0.9864   0.9972   1.0051   1.0105   1.0114
     1.0132   1.0135   1.0137   1.0154   1.0217   1.0243   1.0264   1.0286
     1.0288   1.0293   1.0311   1.0440   1.0440   1.0626   1.0628   1.0642
     1.0651   1.0706   1.0738   1.1001   1.1042   1.1059   1.1085   1.1090
     1.1097   1.1125   1.1139   1.1157   1.1197   1.1198   1.1199   1.1200
     1.1220   1.1358   1.1362   1.1603   1.1663   1.1836   1.1841   1.1932
     1.2015   1.2035   1.2039   1.2052   1.2061   1.2076   1.2206   1.2211
     1.2253   1.2374   1.2395   1.2400   1.2403   1.2411   1.2450   1.2466
     1.2467   1.2551   1.2740   1.2752   1.2760   1.2761   1.2774   1.2777
     1.2785   1.2787   1.2944   1.2948   1.2964   1.3033   1.3102   1.3107
     1.3113   1.3117   1.3121   1.3218   1.3240   1.3249   1.3380   1.3446
     1.3510   1.3557   1.3560   1.3567   1.3574   1.3579   1.3594   1.3714
     1.3841   1.3868   1.3883   1.3933   1.4033   1.4163   1.4164   1.4227
     1.4228   1.4228   1.4292   1.4300   1.4326   1.4343   1.4346   1.4348
     1.4351   1.4370   1.4386   1.4459   1.4464   1.4503   1.4676   1.4677
     1.4685   1.4686   1.4720   1.4796   1.4808   1.4961   1.5044   1.5071
     1.5100   1.5208   1.5570   1.5576   1.5604   1.5615   1.5795   1.5800
     1.5801   1.5878   1.5912   1.6061   1.6297   1.6322   1.6326   1.6331
     1.6336   1.6434   1.6440   1.6443   1.9002   1.9561   2.1050   2.1081
     2.1477   2.1547   2.2003   2.2055   2.2061   2.2069   2.2162   2.2250
     2.2258   2.2266   2.3986   2.4020   2.4548   2.4657   2.4672   2.4676
     2.4783   2.4808   2.6452   2.7209   2.7257   2.7263   2.7556   2.9746
     2.9900   3.0237   3.1689   3.5200   3.5226   3.8137   3.8184   3.8460
     3.8530   3.8554   3.8559   3.8919   3.9676   3.9802   3.9864   4.0059
     4.0088   4.0095   4.0100   4.0134   4.0144   4.2357   4.2485   4.2489
     4.2500   4.3637   4.4005   4.6454   4.7658   4.8501   4.8688   4.9261
     5.3055   5.3917   5.3990   5.4059   5.7005   5.7098   5.7223   5.7242
     5.9166   5.9300   6.2078   6.3424   6.3451   6.4082   6.4151   6.4741
     6.4775   6.4799   6.4829   6.5686   6.5822   6.6006   6.7160   6.7761
     6.7805   6.7935   6.8123   6.8182   7.0145   7.0515   7.0522   7.0655
     7.0733   7.0916   7.3560   7.3577   7.5099   7.5480   7.5521   7.6920
     7.6957   7.7075   7.7086   7.9999   8.0383   8.0959   8.1422   8.1908
     8.2146   8.2995   8.3028   8.3045   8.3351   8.3373   8.3473   8.4006
     8.4030   8.4240   8.4882   8.5592   8.5719   8.5789   8.6620   8.6647
     8.6669   8.6677   8.8135   8.8160   8.8292   8.8322   8.8380   8.8395
     9.1069   9.1092   9.1103   9.1159   9.1199   9.1385   9.1743   9.3152
     9.3446   9.3506   9.4220   9.4798   9.4903   9.5770   9.5784   9.6615
     9.6708   9.8139   9.8310  10.0437  10.0440  10.1233  10.1466

          k = 0.0000-0.2165 0.0000 (256176 PWs)   bands (ev):

   -17.2730 -16.3032 -15.8947 -15.6606 -15.0714 -14.6788 -14.3585 -14.3396
   -14.2667 -14.2326 -13.8274 -13.7718 -13.7215 -13.6935 -12.6009 -12.4461
   -12.3891 -12.3048 -12.1462 -12.0806 -10.6535 -10.5528 -10.5196 -10.3928
    -9.4553  -9.4375  -9.2994  -9.1232  -8.9859  -8.9579  -8.4046  -8.2857
    -8.2126  -8.1622  -7.4788  -7.3426  -7.0147  -6.9725  -6.9087  -6.8950
    -6.8503  -6.8426  -6.1894  -6.0832  -5.8908  -5.8825  -5.5186  -5.3865
    -5.2880  -5.2136  -5.1400  -4.9648  -4.9129  -4.8415  -4.8381  -4.7406
    -4.6830  -4.6320  -4.6125  -4.4707  -4.1547  -4.0481  -3.8263  -3.6941
    -3.6625  -3.5907  -3.3153  -3.3048  -3.3020  -3.3010  -3.2458  -3.2273
    -3.1365  -3.0933  -3.0676  -3.0485  -3.0394  -3.0311  -3.0026  -2.8991
    -2.8689  -2.8677  -2.8295  -2.7912  -2.7743  -2.7133  -2.6969  -2.6015
    -2.5880  -2.5877  -2.5784  -2.5781  -2.5777  -2.5768  -2.4770  -2.3692
    -2.3364  -2.3328  -2.2531  -2.2511  -2.2468  -2.2451  -2.1482  -2.1454
    -2.1452  -2.1435  -2.0853  -2.0415  -1.9866  -1.9865  -1.9610  -1.9610
    -1.8762  -1.8654  -1.8534  -1.8112  -1.7908  -1.7823  -1.7682  -1.7673
    -1.7496  -1.7494  -1.7406  -1.7406  -1.7225  -1.7223  -1.6453  -1.6452
    -1.6239  -1.5877  -1.5732  -1.5674  -1.5604  -1.4679  -1.4669  -1.4627
    -1.4622  -1.3775  -1.3757  -1.3707  -1.3704  -1.3697  -1.3166  -1.3165
    -1.2798  -1.2786  -1.2747  -1.2746  -1.2721  -1.2721  -1.2533  -1.2490
    -1.2289  -1.2286  -1.2236  -1.2228  -1.2130  -1.2116  -1.1699  -1.1536
    -1.1501  -1.1488  -1.1327  -1.1322  -1.0888  -1.0886  -1.0505  -1.0505
    -1.0473  -1.0472  -1.0043  -1.0031  -0.9838  -0.9835  -0.9825  -0.9821
    -0.9780  -0.9778  -0.9273  -0.9266  -0.9192  -0.9187  -0.9107  -0.9106
    -0.9010  -0.8983  -0.8971  -0.8967  -0.8347  -0.8280  -0.8280  -0.8184
    -0.8183  -0.8180  -0.8173  -0.8143  -0.7956  -0.7953  -0.7820  -0.7809
    -0.7549  -0.7545  -0.7515  -0.7504  -0.6546  -0.6546  -0.6540  -0.6540
    -0.6334  -0.6331  -0.6241  -0.6096  -0.6070  -0.6059  -0.6047  -0.6013
    -0.6012  -0.5822  -0.5753  -0.5750  -0.5414  -0.5411  -0.5403  -0.5399
    -0.5378  -0.5363  -0.5348  -0.5332  -0.5038  -0.5038  -0.4837  -0.4837
    -0.4832  -0.4740  -0.4483  -0.4475  -0.4473  -0.4469  -0.4441  -0.4361
    -0.4354  -0.4353  -0.4349  -0.4140  -0.3778  -0.3574  -0.3572  -0.3569
    -0.3568  -0.3286  -0.3246  -0.3035  -0.3031  -0.3029  -0.2987  -0.2962
    -0.2955  -0.2952  -0.2722  -0.2696  -0.2691  -0.2686  -0.2674  -0.2581
    -0.2550  -0.2478  -0.2469  -0.2467  -0.2459  -0.2432  -0.2431  -0.2364
    -0.2335  -0.2329  -0.2066  -0.2064  -0.2045  -0.2044  -0.1778  -0.1581
    -0.1421  -0.1402  -0.1400  -0.1377  -0.1329  -0.1314  -0.1296  -0.1282
    -0.1281  -0.1185  -0.1030  -0.1013  -0.0884  -0.0881  -0.0863  -0.0860
    -0.0769  -0.0767  -0.0750  -0.0739  -0.0738  -0.0734  -0.0421  -0.0173
    -0.0169  -0.0135  -0.0134   0.0022   0.0033   0.0052   0.0058   0.0109
     0.0113   0.0114   0.0284   0.0294   0.0299   0.0309   0.0431   0.0459
     0.0585   0.0598   0.0757   0.0759   0.0760   0.0765   0.0943   0.0956
     0.1110   0.1110   0.1220   0.1221   0.1344   0.1353   0.1356   0.1361
     0.1796   0.1807   0.1836   0.1843   0.1957   0.1966   0.2016   0.2022
     0.2289   0.2291   0.2612   0.2630   0.2645   0.2677   0.3003   0.3004
     0.3106   0.3383   0.3858   0.3861   0.3865   0.3873   0.3978   0.4125
     0.4130   0.4133   0.4140   0.4262   0.4415   0.4507   0.4508   0.4526
     0.4550   0.4552   0.4554   0.4569   0.4651   0.4664   0.4770   0.4786
     0.4792   0.4803   0.4811   0.4818   0.4825   0.4829   0.5163   0.5165
     0.5276   0.5277   0.5283   0.5284   0.5361   0.5361   0.5441   0.5551
     0.5567   0.5573   0.5579   0.5580   0.5584   0.5585   0.5590   0.5595
     0.5818   0.5819   0.5833   0.5837   0.5839   0.5845   0.5854   0.5854
     0.6015   0.6017   0.6448   0.6448   0.6568   0.6571   0.6668   0.6680
     0.6688   0.6696   0.6750   0.6757   0.6761   0.6770   0.6819   0.6825
     0.6833   0.6834   0.7234   0.7244   0.7244   0.7254   0.7398   0.7415
     0.7417   0.7425   0.7427   0.7439   0.7546   0.7584   0.7749   0.7758
     0.7796   0.7812   0.7822   0.7823   0.8340   0.8349   0.8846   0.8858
     0.8898   0.8936   0.8943   0.8944   0.9029   0.9041   0.9109   0.9110
     0.9171   0.9173   0.9208   0.9251   0.9257   0.9268   0.9376   0.9386
     0.9411   0.9415   0.9422   0.9424   0.9523   0.9556   0.9601   0.9666
     0.9666   0.9682   0.9689   0.9707   0.9709   0.9739   0.9777   0.9778
     0.9893   0.9893   0.9903   0.9919   0.9929   0.9934   1.0113   1.0115
     1.0206   1.0241   1.0258   1.0274   1.0290   1.0299   1.0386   1.0387
     1.0395   1.0396   1.0405   1.0407   1.0821   1.0889   1.1014   1.1160
     1.1273   1.1274   1.1416   1.1435   1.1498   1.1546   1.1566   1.1568
     1.1700   1.1703   1.1837   1.1859   1.1920   1.1930   1.1952   1.1971
     1.1983   1.1989   1.1992   1.1996   1.2003   1.2015   1.2029   1.2033
     1.2103   1.2104   1.2200   1.2231   1.2290   1.2313   1.2315   1.2316
     1.2393   1.2408   1.2661   1.2695   1.2698   1.2699   1.2766   1.2768
     1.2791   1.2797   1.2920   1.2959   1.2973   1.2977   1.3101   1.3107
     1.3128   1.3136   1.3146   1.3154   1.3320   1.3326   1.3330   1.3336
     1.3516   1.3518   1.3533   1.3552   1.3707   1.3725   1.3782   1.3791
     1.3793   1.3802   1.3949   1.3951   1.3952   1.3954   1.4118   1.4125
     1.4263   1.4264   1.4267   1.4286   1.4466   1.4470   1.4485   1.4491
     1.4503   1.4504   1.4510   1.4515   1.4790   1.4791   1.4870   1.4877
     1.4933   1.4967   1.5002   1.5043   1.5187   1.5195   1.5196   1.5199
     1.5286   1.5288   1.5410   1.5410   1.5806   1.5854   1.5877   1.5882
     1.6720   1.6888   1.6942   1.7131   1.7165   1.7294   1.7300   1.7343
     1.7829   1.7865   1.7920   1.7931   1.8048   1.8120   1.8121   1.8130
     1.8533   1.8534   1.8864   2.0611   2.0646   2.0986   2.4137   2.4153
     2.4193   2.4198   2.4957   2.4982   2.5579   2.5644   2.5648   2.5662
     2.5812   2.5819   2.7088   2.7108   2.7562   2.7602   2.7789   2.7800
     2.9232   2.9242   3.1697   3.1698   3.1779   3.1908   3.3935   3.4147
     3.5796   3.6702   3.6819   3.9160   3.9306   3.9749   4.0844   4.0955
     4.0997   4.1028   4.3211   4.3250   4.3277   4.3294   4.4962   4.4982
     4.6623   4.6892   4.7643   4.7705   4.9074   5.0691   5.0982   5.1025
     5.3033   5.3584   5.3591   5.3599   5.3607   5.4314   5.5118   5.6558
     5.6746   5.7409   5.7619   5.8154   6.3809   6.3898   6.4205   6.4240
     6.4364   6.4382   6.5490   6.5577   6.6623   6.6678   6.8023   6.8117
     6.9871   7.0123   7.0320   7.0431   7.0780   7.0801   7.1121   7.1205
     7.1272   7.1306   7.2320   7.3383   7.3390   7.3741   7.3832   7.4116
     7.5292   7.6068   7.6963   7.7203   7.7376   7.7571   8.1429   8.1441
     8.3273   8.3567   8.3754   8.4226   8.4248   8.4256   8.4324   8.4450
     8.4475   8.4855   8.6374   8.6488   8.7139   8.7157   8.7201   8.7202
     8.7546   8.7613   8.8746   8.9145   8.9304   9.0145   9.0231   9.0611
     9.1429   9.1510   9.2316   9.2384   9.2814   9.3151   9.3854   9.3857
     9.3861   9.3863   9.4589   9.4601   9.4739   9.4810   9.4889   9.4922
     9.6606   9.6657   9.7858   9.7875   9.8079   9.8895   9.8897

          k = 0.2500 0.0000 0.0000 (256240 PWs)   bands (ev):

   -17.2214 -16.1280 -15.9656 -15.6623 -15.1442 -15.0058 -14.9461 -14.8939
   -14.1108 -13.9545 -13.7717 -13.2470 -13.1736 -13.0919 -13.0450 -12.3469
   -12.2364 -12.1537 -12.0757 -11.2329 -11.1445 -10.7896 -10.6725 -10.3592
   -10.2258  -9.9544  -9.9045  -9.5082  -9.2553  -9.1595  -8.6804  -7.9889
    -7.7973  -7.7288  -7.5666  -7.5431  -7.4474  -7.0943  -6.9777  -6.3020
    -6.2208  -6.0438  -5.9688  -5.9158  -5.8418  -5.4535  -5.3294  -5.3118
    -5.3018  -5.1667  -4.9237  -4.7447  -4.6336  -4.5430  -4.4669  -4.4650
    -4.4621  -4.4274  -4.3725  -4.2283  -4.1364  -4.0013  -4.0001  -3.9975
    -3.9097  -3.8449  -3.8404  -3.8101  -3.7943  -3.6305  -3.6009  -3.5740
    -3.5247  -3.4828  -3.4078  -3.4049  -3.2787  -3.2350  -3.2133  -3.1974
    -3.1423  -3.0362  -2.9562  -2.8960  -2.7999  -2.7987  -2.7912  -2.7527
    -2.6548  -2.6254  -2.6232  -2.5074  -2.4011  -2.3947  -2.3466  -2.3374
    -2.1286  -2.0991  -2.0969  -2.0824  -2.0800  -2.0600  -2.0035  -1.9902
    -1.9819  -1.8977  -1.8955  -1.8413  -1.8032  -1.8015  -1.7991  -1.7939
    -1.7934  -1.7848  -1.7737  -1.7461  -1.7350  -1.7238  -1.7198  -1.7170
    -1.7138  -1.6531  -1.6469  -1.6035  -1.5898  -1.5828  -1.5811  -1.5787
    -1.5782  -1.5775  -1.5483  -1.5271  -1.5141  -1.5038  -1.5021  -1.4908
    -1.4888  -1.3726  -1.3363  -1.3290  -1.3129  -1.2757  -1.2694  -1.2606
    -1.2441  -1.2429  -1.2378  -1.2365  -1.2300  -1.2202  -1.2077  -1.1979
    -1.1924  -1.1850  -1.1836  -1.1781  -1.1586  -1.1395  -1.1357  -1.1339
    -1.1331  -1.1324  -1.1169  -1.1118  -1.1109  -1.0914  -1.0768  -1.0670
    -1.0507  -1.0493  -1.0468  -1.0462  -1.0412  -1.0211  -1.0130  -1.0124
    -1.0042  -1.0021  -0.9967  -0.9922  -0.9817  -0.9812  -0.9811  -0.9803
    -0.9761  -0.9756  -0.9645  -0.9539  -0.9507  -0.9469  -0.9457  -0.9400
    -0.9217  -0.9018  -0.9006  -0.8960  -0.8528  -0.8522  -0.8163  -0.8163
    -0.7971  -0.7956  -0.7862  -0.7709  -0.7707  -0.7575  -0.7544  -0.7524
    -0.7499  -0.7427  -0.7415  -0.7223  -0.6071  -0.6029  -0.6000  -0.5970
    -0.5683  -0.5677  -0.5664  -0.5511  -0.5498  -0.5495  -0.5479  -0.5400
    -0.5310  -0.5269  -0.5268  -0.5244  -0.5165  -0.5061  -0.4949  -0.4875
    -0.4848  -0.4848  -0.4817  -0.4812  -0.4607  -0.4607  -0.4574  -0.4033
    -0.3995  -0.3994  -0.3965  -0.3913  -0.3894  -0.3843  -0.3803  -0.3761
    -0.3565  -0.3564  -0.3405  -0.3333  -0.3330  -0.3316  -0.3286  -0.3058
    -0.2949  -0.2948  -0.2918  -0.2901  -0.2816  -0.2809  -0.2709  -0.2689
    -0.2650  -0.2592  -0.2473  -0.2383  -0.2300  -0.2161  -0.2030  -0.1989
    -0.1986  -0.1963  -0.1912  -0.1819  -0.1802  -0.1800  -0.1787  -0.1630
    -0.1547  -0.1519  -0.1515  -0.1394  -0.1372  -0.1248  -0.1122  -0.1108
    -0.1108  -0.0660  -0.0637  -0.0633  -0.0554  -0.0549  -0.0455  -0.0284
    -0.0192  -0.0180  -0.0120  -0.0118  -0.0101  -0.0064   0.0008   0.0029
     0.0040   0.0058   0.0061   0.0077   0.0082   0.0128   0.0281   0.0331
     0.0336   0.0364   0.0401   0.0450   0.0587   0.0591   0.0716   0.0752
     0.0771   0.0935   0.1143   0.1145   0.1167   0.1169   0.1186   0.1342
     0.1388   0.1402   0.1416   0.1422   0.1424   0.1552   0.1772   0.1787
     0.1980   0.2535   0.2538   0.2550   0.2652   0.2715   0.2738   0.2749
     0.2769   0.2775   0.2826   0.2831   0.2843   0.2870   0.2879   0.2888
     0.2953   0.3050   0.3067   0.3075   0.3093   0.3211   0.3212   0.3267
     0.3288   0.3336   0.3358   0.3590   0.3592   0.3617   0.3758   0.3885
     0.3953   0.4053   0.4130   0.4249   0.4256   0.4424   0.4430   0.4447
     0.4476   0.4556   0.4604   0.4773   0.4801   0.4806   0.4853   0.4856
     0.4913   0.4919   0.4960   0.4961   0.5168   0.5216   0.5241   0.5319
     0.5394   0.5444   0.5446   0.5511   0.5519   0.5528   0.5549   0.5556
     0.5744   0.5794   0.5798   0.5914   0.5927   0.5937   0.5939   0.5966
     0.6099   0.6104   0.6135   0.6179   0.6182   0.6374   0.6376   0.6537
     0.6571   0.6630   0.6639   0.6663   0.6698   0.6716   0.6783   0.6895
     0.7013   0.7051   0.7240   0.7287   0.7404   0.7407   0.7448   0.7455
     0.7492   0.7580   0.7658   0.7712   0.7741   0.7783   0.7794   0.7882
     0.7898   0.7930   0.8035   0.8041   0.8152   0.8244   0.8245   0.8254
     0.8496   0.8517   0.8555   0.8565   0.8573   0.8795   0.8807   0.8913
     0.8929   0.8931   0.8941   0.8961   0.9016   0.9038   0.9046   0.9055
     0.9184   0.9436   0.9468   0.9504   0.9545   0.9548   0.9564   0.9688
     0.9694   0.9897   0.9911   0.9922   0.9929   0.9995   1.0014   1.0019
     1.0155   1.0168   1.0184   1.0189   1.0213   1.0220   1.0223   1.0255
     1.0280   1.0307   1.0324   1.0331   1.0370   1.0425   1.0555   1.0587
     1.0610   1.0627   1.0682   1.0690   1.0692   1.0759   1.0768   1.0901
     1.0906   1.1044   1.1072   1.1075   1.1080   1.1115   1.1220   1.1259
     1.1335   1.1360   1.1370   1.1441   1.1486   1.1544   1.1570   1.1576
     1.1583   1.1745   1.1836   1.1896   1.1904   1.1919   1.1922   1.2264
     1.2282   1.2356   1.2395   1.2429   1.2452   1.2510   1.2530   1.2533
     1.2538   1.2618   1.2632   1.2702   1.2754   1.2776   1.2790   1.2790
     1.2959   1.2970   1.3005   1.3007   1.3061   1.3115   1.3134   1.3143
     1.3153   1.3157   1.3172   1.3214   1.3236   1.3248   1.3325   1.3373
     1.3456   1.3494   1.3512   1.3513   1.3556   1.3557   1.3601   1.3649
     1.3735   1.3799   1.3803   1.3814   1.4034   1.4035   1.4120   1.4167
     1.4188   1.4226   1.4228   1.4255   1.4267   1.4268   1.4336   1.4338
     1.4348   1.4402   1.4411   1.4448   1.4604   1.4628   1.4633   1.4643
     1.4656   1.4693   1.4700   1.4827   1.4832   1.4898   1.4945   1.4979
     1.5059   1.5064   1.5080   1.5119   1.5143   1.5164   1.5458   1.5526
     1.5605   1.5683   1.5817   1.6234   1.6250   1.6281   1.6395   1.6547
     1.6598   1.7477   1.7527   1.7619   1.7627   1.7820   1.7883   1.7973
     1.8368   1.9596   2.0306   2.0611   2.0694   2.0800   2.0851   2.0872
     2.1894   2.2468   2.2531   2.5602   2.5614   2.5635   2.5655   2.9752
     2.9754   3.0084   3.1929   3.1935   3.2178   3.2179   3.2616   3.2789
     3.4548   3.4670   3.5609   3.5794   3.6044   3.6307   3.6569   3.7015
     3.7070   3.7157   3.7262   3.7774   3.8688   3.8712   3.9664   3.9690
     4.0516   4.1786   4.1855   4.1889   4.2798   4.3343   4.4124   4.5474
     4.7523   4.8187   4.8261   5.0897   5.1539   5.2179   5.2184   5.2289
     5.2550   5.3593   5.4620   5.4659   5.5055   5.5501   5.5819   5.5852
     5.6506   5.6781   5.6821   5.7319   5.7345   5.8017   5.8220   5.8251
     6.0080   6.0112   6.0206   6.0414   6.4137   6.6028   6.6911   6.6963
     6.7017   6.7479   6.7548   6.7879   6.8649   6.9257   7.0145   7.0357
     7.0500   7.0513   7.0661   7.2319   7.2385   7.2935   7.2991   7.5017
     7.5051   7.5158   7.5545   7.5677   7.6781   7.7589   7.7625   7.7900
     7.9933   8.0028   8.0373   8.0617   8.0864   8.1859   8.2041   8.2213
     8.2342   8.2606   8.3125   8.3131   8.3925   8.3954   8.4373   8.4711
     8.6437   8.6451   8.9451   8.9536   8.9839   8.9870   9.0071   9.1432
     9.1694   9.1889   9.2104   9.2241   9.2286   9.2548   9.2632   9.3370
     9.3996   9.4040   9.4390   9.4426   9.4849   9.5097   9.6407   9.6778
     9.7145   9.7198   9.8238   9.8323   9.8357   9.8478   9.9371

          k = 0.2500-0.2165 0.0000 (256316 PWs)   bands (ev):

   -17.2211 -16.1793 -15.8735 -15.5411 -15.4585 -15.1915 -14.7119 -14.5647
   -14.2556 -14.1160 -13.7213 -13.2699 -13.2531 -13.1602 -12.7670 -12.6633
   -12.1502 -12.0264 -11.5145 -11.4305 -11.2819 -11.1265 -10.9622 -10.6236
    -9.8684  -9.7846  -9.3907  -9.3570  -9.1049  -9.0506  -8.6756  -8.6254
    -8.4733  -8.4255  -7.3004  -7.0260  -6.8335  -6.6753  -6.5979  -6.5025
    -6.4512  -6.3186  -6.0848  -6.0322  -5.7137  -5.7043  -5.4280  -5.2559
    -5.1673  -5.0702  -4.9346  -4.8022  -4.6784  -4.6747  -4.5430  -4.5410
    -4.4783  -4.3491  -4.3458  -4.3167  -4.1883  -4.1612  -4.1492  -4.0510
    -3.9018  -3.7729  -3.7602  -3.7387  -3.5860  -3.5621  -3.5012  -3.4595
    -3.4582  -3.4553  -3.3634  -3.2904  -3.2537  -3.1986  -3.1427  -3.1022
    -3.0302  -2.9451  -2.9410  -2.9246  -2.9106  -2.9094  -2.8626  -2.8166
    -2.6941  -2.6566  -2.6054  -2.5056  -2.3332  -2.3137  -2.3118  -2.2685
    -2.1866  -2.1808  -2.1687  -2.1686  -2.1028  -2.0679  -2.0099  -2.0094
    -1.9779  -1.9767  -1.9725  -1.9690  -1.8953  -1.8300  -1.8222  -1.8129
    -1.8129  -1.7805  -1.7601  -1.7528  -1.7318  -1.7238  -1.7210  -1.7097
    -1.7095  -1.6931  -1.6787  -1.6777  -1.6763  -1.6761  -1.6672  -1.6670
    -1.5822  -1.5821  -1.5524  -1.4688  -1.4671  -1.3791  -1.3700  -1.3663
    -1.3609  -1.3300  -1.3297  -1.2776  -1.2773  -1.2698  -1.2627  -1.2626
    -1.2494  -1.2489  -1.2410  -1.2395  -1.2251  -1.2244  -1.2130  -1.2128
    -1.2110  -1.2039  -1.2008  -1.1985  -1.1872  -1.1872  -1.1725  -1.1335
    -1.1309  -1.1275  -1.1262  -1.1208  -1.1155  -1.1142  -1.1117  -1.0932
    -1.0831  -1.0816  -1.0398  -1.0395  -1.0355  -1.0296  -1.0263  -1.0239
    -0.9964  -0.9963  -0.9736  -0.9726  -0.9621  -0.9616  -0.9605  -0.9564
    -0.9557  -0.9522  -0.9503  -0.9344  -0.9241  -0.9240  -0.9129  -0.9050
    -0.8858  -0.8681  -0.8680  -0.8625  -0.8620  -0.8241  -0.7782  -0.7781
    -0.7739  -0.7738  -0.7706  -0.7694  -0.7242  -0.7215  -0.7150  -0.7124
    -0.7119  -0.7061  -0.7057  -0.6944  -0.6941  -0.6799  -0.6531  -0.6522
    -0.6156  -0.6143  -0.5809  -0.5678  -0.5665  -0.5664  -0.5638  -0.5611
    -0.5338  -0.5333  -0.5209  -0.5204  -0.5019  -0.5008  -0.4929  -0.4898
    -0.4886  -0.4738  -0.4600  -0.4584  -0.4526  -0.4504  -0.4429  -0.4427
    -0.4111  -0.4081  -0.4079  -0.3969  -0.3933  -0.3876  -0.3816  -0.3801
    -0.3679  -0.3675  -0.3634  -0.3632  -0.3573  -0.3555  -0.3521  -0.3520
    -0.3340  -0.3338  -0.3176  -0.3175  -0.2937  -0.2889  -0.2752  -0.2741
    -0.2613  -0.2566  -0.2401  -0.2400  -0.2353  -0.2311  -0.2179  -0.2175
    -0.2132  -0.2129  -0.1868  -0.1807  -0.1568  -0.1541  -0.1527  -0.1180
    -0.1179  -0.1090  -0.1089  -0.1052  -0.1037  -0.0875  -0.0874  -0.0848
    -0.0702  -0.0699  -0.0594  -0.0566  -0.0491  -0.0480  -0.0429  -0.0426
    -0.0407  -0.0399  -0.0146  -0.0135  -0.0125  -0.0057  -0.0043  -0.0031
    -0.0023  -0.0012  -0.0007   0.0011   0.0059   0.0073   0.0302   0.0315
     0.0316   0.0317   0.0331   0.0653   0.0655   0.0735   0.0737   0.0748
     0.0770   0.0963   0.0998   0.1023   0.1164   0.1315   0.1316   0.1344
     0.1410   0.1413   0.1516   0.1519   0.1548   0.1555   0.1688   0.1690
     0.1751   0.1763   0.2046   0.2050   0.2677   0.2691   0.2809   0.2815
     0.2827   0.2832   0.2851   0.2864   0.2880   0.2889   0.2919   0.2935
     0.3122   0.3169   0.3170   0.3194   0.3200   0.3279   0.3300   0.3316
     0.3343   0.3343   0.3660   0.3670   0.3783   0.3810   0.3820   0.3946
     0.4003   0.4027   0.4184   0.4436   0.4437   0.4486   0.4509   0.4520
     0.4573   0.4575   0.4690   0.4691   0.4731   0.4780   0.4795   0.4810
     0.4820   0.4828   0.4959   0.5121   0.5130   0.5180   0.5201   0.5344
     0.5346   0.5542   0.5665   0.5671   0.5677   0.5692   0.5992   0.6009
     0.6034   0.6050   0.6073   0.6085   0.6123   0.6144   0.6252   0.6257
     0.6272   0.6285   0.6325   0.6361   0.6481   0.6484   0.6588   0.6599
     0.6679   0.6680   0.6710   0.6710   0.6783   0.6804   0.6814   0.6866
     0.6890   0.6893   0.7017   0.7052   0.7097   0.7107   0.7157   0.7164
     0.7188   0.7190   0.7205   0.7211   0.7546   0.7562   0.7671   0.7677
     0.7823   0.7879   0.8034   0.8070   0.8228   0.8233   0.8245   0.8246
     0.8302   0.8310   0.8408   0.8537   0.8538   0.8542   0.8543   0.8552
     0.8557   0.8631   0.8664   0.8786   0.8828   0.8841   0.8905   0.8947
     0.8998   0.9050   0.9185   0.9285   0.9285   0.9439   0.9508   0.9516
     0.9587   0.9595   0.9643   0.9645   0.9709   0.9710   0.9750   0.9912
     0.9992   1.0032   1.0070   1.0171   1.0183   1.0272   1.0308   1.0381
     1.0464   1.0607   1.0626   1.0661   1.0791   1.0803   1.0866   1.0869
     1.0893   1.0894   1.0908   1.0908   1.0951   1.0952   1.1047   1.1052
     1.1138   1.1156   1.1168   1.1180   1.1355   1.1366   1.1613   1.1655
     1.1660   1.1694   1.1711   1.1726   1.1743   1.1761   1.1801   1.1834
     1.1862   1.1904   1.1912   1.1914   1.1978   1.1995   1.2009   1.2021
     1.2075   1.2094   1.2175   1.2204   1.2231   1.2233   1.2243   1.2246
     1.2360   1.2369   1.2448   1.2449   1.2677   1.2694   1.2774   1.2778
     1.2832   1.2918   1.2936   1.2960   1.3033   1.3098   1.3103   1.3123
     1.3190   1.3218   1.3304   1.3309   1.3345   1.3363   1.3430   1.3449
     1.3475   1.3477   1.3562   1.3596   1.3602   1.3712   1.3787   1.3807
     1.3812   1.3813   1.3862   1.3870   1.3911   1.3919   1.3964   1.4049
     1.4051   1.4103   1.4108   1.4164   1.4197   1.4206   1.4288   1.4332
     1.4359   1.4371   1.4373   1.4425   1.4439   1.4440   1.4444   1.4470
     1.4533   1.4533   1.4780   1.4781   1.4857   1.4859   1.4958   1.5008
     1.5143   1.5190   1.5242   1.5265   1.5273   1.5494   1.5499   1.5565
     1.5569   1.5771   1.5824   1.5885   1.6147   1.6465   1.6613   1.6627
     1.7118   1.7498   1.7584   1.7644   1.7688   1.7814   1.7851   1.7857
     1.7860   1.8056   1.8349   1.8426   2.1242   2.1248   2.1563   2.1576
     2.2820   2.2863   2.5817   2.5831   2.7774   2.7830   2.7863   2.7871
     2.7981   2.8016   2.8278   2.8312   2.9796   2.9826   3.0676   3.0794
     3.5236   3.5357   3.5843   3.6036   3.6521   3.6742   3.7681   3.8352
     3.8403   3.8447   3.8697   3.9911   3.9937   4.0580   4.0885   4.1601
     4.1619   4.3248   4.3708   4.3724   4.4274   4.5429   4.5442   4.6151
     4.6651   4.6774   4.7081   4.7211   4.9172   4.9248   4.9945   5.0129
     5.0198   5.1291   5.2583   5.2753   5.3920   5.4339   5.4393   5.4497
     5.4517   5.4724   5.7454   5.7575   5.8104   5.8808   5.8873   5.9493
     5.9536   5.9654   6.5787   6.5872   6.6049   6.6152   6.7328   6.7443
     6.8062   6.8502   6.8684   7.0202   7.0239   7.0445   7.0689   7.0883
     7.0981   7.1181   7.1944   7.2132   7.2152   7.3195   7.3252   7.3281
     7.3322   7.3936   7.4361   7.4373   7.6542   7.6602   7.7592   7.7852
     7.7882   7.8636   7.9720   7.9791   8.1823   8.1910   8.2345   8.2464
     8.2606   8.3909   8.5792   8.5814   8.5946   8.6041   8.6363   8.6376
     8.7040   8.7060   8.8011   8.8142   8.8983   8.9084   8.9383   8.9426
     9.0692   9.1149   9.1347   9.1456   9.1728   9.1738   9.1894   9.2034
     9.2136   9.2621   9.2676   9.2993   9.3408   9.3506   9.4243   9.4397
     9.4462   9.4785   9.6261   9.6271   9.9534   9.9599   9.9676

          k =-0.5000 0.0000 0.0000 (256496 PWs)   bands (ev):

   -17.1592 -16.0106 -15.7428 -15.6295 -15.6096 -15.5605 -14.8122 -14.6179
   -14.5152 -14.4819 -13.2045 -12.9079 -12.7680 -12.7015 -12.4581 -12.4310
   -11.9127 -11.8919 -11.8082 -11.8002 -11.2458 -11.2059 -10.9814 -10.7494
   -10.3353 -10.3029 -10.0795  -9.7621  -9.1476  -9.1470  -8.9780  -8.9457
    -7.8141  -7.6405  -7.5855  -7.4117  -7.3684  -7.3469  -6.3060  -6.2257
    -5.8451  -5.3250  -5.3209  -5.3090  -5.1434  -4.9934  -4.9697  -4.8645
    -4.8081  -4.8037  -4.8030  -4.8022  -4.7763  -4.7649  -4.7388  -4.6931
    -4.6667  -4.5437  -4.5424  -4.4737  -4.3805  -4.3768  -4.2911  -4.0551
    -4.0160  -3.9967  -3.9672  -3.9657  -3.6915  -3.6748  -3.6035  -3.5744
    -3.5733  -3.5561  -3.4280  -3.4206  -3.4197  -3.4189  -3.4186  -3.4130
    -3.3771  -3.3649  -2.9460  -2.9314  -2.8962  -2.8547  -2.8131  -2.7872
    -2.7671  -2.7601  -2.6221  -2.6092  -2.5678  -2.4791  -2.4513  -2.4399
    -2.3068  -2.3036  -2.3027  -2.3024  -1.8792  -1.8790  -1.8788  -1.8787
    -1.8766  -1.8765  -1.8659  -1.8160  -1.7797  -1.7594  -1.7566  -1.7554
    -1.6867  -1.6516  -1.6511  -1.6500  -1.6498  -1.6024  -1.6022  -1.6013
    -1.6011  -1.5117  -1.5063  -1.4886  -1.4883  -1.4879  -1.4776  -1.4541
    -1.4310  -1.4263  -1.4253  -1.4244  -1.4067  -1.4065  -1.3574  -1.3573
    -1.3551  -1.3544  -1.3522  -1.3432  -1.3425  -1.3405  -1.3400  -1.3379
    -1.2939  -1.2923  -1.2921  -1.2910  -1.2694  -1.2684  -1.2676  -1.2674
    -1.2283  -1.2047  -1.2043  -1.1833  -1.1827  -1.1822  -1.1820  -1.1591
    -1.1560  -1.1547  -1.1521  -1.1516  -1.1507  -1.1494  -1.1082  -1.1081
    -1.1069  -1.1068  -1.0860  -1.0859  -1.0728  -1.0566  -1.0557  -1.0555
    -1.0096  -1.0095  -1.0093  -0.9812  -0.9809  -0.9797  -0.9795  -0.9554
    -0.9533  -0.9529  -0.9514  -0.9479  -0.9461  -0.9432  -0.9319  -0.9317
    -0.9291  -0.9290  -0.9068  -0.9025  -0.8909  -0.8406  -0.8404  -0.8387
    -0.8370  -0.7947  -0.7946  -0.7136  -0.7117  -0.7115  -0.7111  -0.7058
    -0.6877  -0.6812  -0.6731  -0.6730  -0.6721  -0.6720  -0.6674  -0.6619
    -0.6395  -0.6337  -0.6301  -0.6298  -0.6228  -0.6183  -0.6115  -0.6037
    -0.6008  -0.5986  -0.5716  -0.5310  -0.5208  -0.5108  -0.4857  -0.4731
    -0.4666  -0.4653  -0.4565  -0.4564  -0.4316  -0.4161  -0.4134  -0.4101
    -0.4059  -0.4059  -0.4044  -0.4044  -0.3937  -0.3819  -0.3683  -0.3682
    -0.3679  -0.3678  -0.3294  -0.3293  -0.3285  -0.3284  -0.3109  -0.2958
    -0.2956  -0.2956  -0.2949  -0.2840  -0.2840  -0.2537  -0.2511  -0.2511
    -0.2497  -0.2497  -0.2472  -0.2409  -0.2288  -0.2129  -0.2028  -0.1993
    -0.1799  -0.1359  -0.1355  -0.1354  -0.1340  -0.1289  -0.1288  -0.1279
    -0.1277  -0.0887  -0.0883  -0.0869  -0.0861  -0.0644  -0.0522  -0.0518
    -0.0259  -0.0257  -0.0238  -0.0236  -0.0221  -0.0218  -0.0209  -0.0208
    -0.0202  -0.0201  -0.0197  -0.0190   0.0545   0.0554   0.0613   0.0630
     0.0662   0.0670   0.0719   0.0722   0.0728   0.0730   0.0777   0.0778
     0.0797   0.0799   0.0836   0.0841   0.0885   0.0891   0.1021   0.1021
     0.1147   0.1162   0.1166   0.1166   0.1168   0.1168   0.1204   0.1276
     0.1279   0.1279   0.1283   0.1408   0.1411   0.1435   0.1531   0.1532
     0.1534   0.1535   0.1735   0.1815   0.1822   0.1941   0.2512   0.2656
     0.2864   0.2865   0.2873   0.2874   0.3190   0.3196   0.3202   0.3206
     0.3345   0.3346   0.3405   0.3409   0.3438   0.3446   0.3450   0.3457
     0.3490   0.3499   0.3520   0.3523   0.3526   0.3537   0.3666   0.3668
     0.3693   0.3746   0.3816   0.3840   0.3894   0.3899   0.3951   0.3953
     0.3989   0.4003   0.4321   0.4376   0.4905   0.4918   0.4919   0.4925
     0.5006   0.5020   0.5201   0.5238   0.5253   0.5264   0.5284   0.5290
     0.5304   0.5315   0.5326   0.5330   0.5354   0.5360   0.5372   0.5375
     0.5437   0.5446   0.5455   0.5465   0.5588   0.5658   0.5823   0.5834
     0.5842   0.6000   0.6063   0.6121   0.6189   0.6194   0.6220   0.6222
     0.6303   0.6304   0.6313   0.6315   0.6334   0.6339   0.6459   0.6476
     0.6513   0.6519   0.6673   0.6684   0.6691   0.6693   0.7060   0.7060
     0.7067   0.7068   0.7073   0.7073   0.7250   0.7257   0.7495   0.7580
     0.7657   0.7665   0.7672   0.7676   0.7678   0.7683   0.7938   0.8065
     0.8348   0.8351   0.8377   0.8392   0.8399   0.8403   0.8443   0.8453
     0.8488   0.8524   0.8530   0.8534   0.8623   0.8650   0.8768   0.8849
     0.8849   0.8865   0.8867   0.8996   0.9056   0.9059   0.9062   0.9063
     0.9076   0.9081   0.9430   0.9454   0.9458   0.9459   0.9575   0.9929
     1.0122   1.0122   1.0123   1.0128   1.0422   1.0462   1.0466   1.0468
     1.0475   1.0485   1.0652   1.0662   1.0760   1.0767   1.0779   1.0847
     1.0893   1.0898   1.1091   1.1104   1.1153   1.1155   1.1162   1.1165
     1.1237   1.1241   1.1246   1.1250   1.1347   1.1348   1.1362   1.1367
     1.1373   1.1378   1.1381   1.1384   1.1723   1.1742   1.1756   1.1756
     1.1859   1.1993   1.2053   1.2074   1.2104   1.2110   1.2117   1.2120
     1.2296   1.2305   1.2339   1.2400   1.2407   1.2409   1.2421   1.2503
     1.2509   1.2514   1.2515   1.2569   1.2620   1.2660   1.2691   1.2730
     1.2983   1.2987   1.3123   1.3136   1.3142   1.3143   1.3146   1.3147
     1.3147   1.3148   1.3253   1.3268   1.3282   1.3283   1.3284   1.3285
     1.3308   1.3311   1.3358   1.3364   1.3413   1.3414   1.3418   1.3421
     1.3490   1.3493   1.3640   1.3641   1.3795   1.3820   1.3829   1.3832
     1.3910   1.3913   1.3929   1.3932   1.4067   1.4094   1.4131   1.4132
     1.4286   1.4295   1.4335   1.4345   1.4398   1.4474   1.4477   1.4477
     1.4488   1.4660   1.4683   1.4687   1.4695   1.4713   1.4785   1.4786
     1.4788   1.4788   1.4827   1.4866   1.4982   1.4983   1.5119   1.5125
     1.5125   1.5129   1.5129   1.5243   1.5258   1.5260   1.5762   1.5764
     1.5991   1.6060   1.6062   1.6105   1.6105   1.6173   2.0237   2.0271
     2.0288   2.0293   2.2314   2.2328   2.2466   2.2507   2.2833   2.2836
     2.2902   2.2910   2.6031   2.6127   2.6155   2.6171   2.8253   2.8274
     2.8330   2.8355   3.1812   3.1827   3.1854   3.1863   3.4656   3.4678
     3.7169   3.7502   3.7524   3.7545   3.8555   3.9173   3.9190   3.9235
     3.9488   4.0657   4.0714   4.0725   4.0890   4.1804   4.1844   4.3859
     4.3960   4.4852   4.7203   4.7408   4.7473   4.7501   4.8059   4.8238
     4.8248   4.8522   4.9272   5.0187   5.0199   5.0363   5.0419   5.0451
     5.0462   5.0523   5.0709   5.0724   5.0962   5.1019   5.1534   5.1614
     5.4750   5.5146   5.5300   5.5337   5.6472   5.6561   5.7576   5.8269
     5.9850   5.9875   5.9954   6.0021   6.0277   6.0332   6.0392   6.0396
     6.1920   6.3997   6.4289   6.4323   6.4336   6.4348   6.4485   6.4784
     7.0794   7.0893   7.1067   7.1100   7.1162   7.1173   7.5641   7.5755
     7.5969   7.5976   7.5990   7.5994   7.6262   7.6277   7.8104   7.8154
     7.8787   7.8811   7.8833   7.8838   8.0408   8.0468   8.0482   8.0534
     8.1148   8.1180   8.1272   8.1307   8.1607   8.1955   8.6458   8.6891
     8.6913   8.7056   8.8234   8.8273   8.8302   8.8311   8.9598   8.9863
     8.9891   9.0635   9.0681   9.0700   9.0901   9.2585   9.2604   9.3742
     9.4253   9.4476   9.4922   9.4946   9.4947   9.4955   9.5064   9.5087
     9.5138   9.5147   9.5306   9.5342   9.8240   9.8312  10.0185

          k =-0.5000-0.2165 0.0000 (256328 PWs)   bands (ev):

   -17.1591 -15.9789 -15.8210 -15.7959 -15.3890 -15.2198 -15.1512 -15.1151
   -14.0554 -13.8409 -13.7104 -13.6736 -12.6799 -12.4564 -12.0023 -11.9976
   -11.9225 -11.7774 -11.6747 -11.5877 -11.5437 -11.5308 -11.4243 -11.4055
   -10.0435 -10.0368  -9.7699  -9.7243  -9.2263  -8.9130  -8.7983  -8.7593
    -8.2681  -8.2321  -8.0223  -8.0006  -6.5331  -6.3394  -6.1229  -5.9496
    -5.8407  -5.6261  -5.3893  -5.3169  -5.3079  -5.2168  -5.2134  -5.1816
    -5.1798  -5.1796  -5.0198  -5.0057  -4.9450  -4.5115  -4.3885  -4.3522
    -4.3270  -4.3206  -4.2644  -4.2148  -4.2017  -4.1983  -4.1978  -4.1974
    -4.0818  -4.0748  -3.9156  -3.8780  -3.8652  -3.8586  -3.7558  -3.7463
    -3.7031  -3.6907  -3.5973  -3.5926  -3.5893  -3.4875  -3.4667  -3.4568
    -3.1726  -3.0871  -3.0726  -3.0622  -2.6363  -2.5829  -2.5809  -2.5790
    -2.5788  -2.5786  -2.5444  -2.5289  -2.5237  -2.5232  -2.4097  -2.3538
    -2.1594  -2.1531  -2.1106  -2.1009  -2.0966  -2.0957  -2.0527  -2.0502
    -2.0220  -2.0183  -2.0168  -2.0115  -1.9349  -1.8031  -1.8029  -1.8019
    -1.8019  -1.7722  -1.7398  -1.7276  -1.5685  -1.5237  -1.5091  -1.5025
    -1.4934  -1.4934  -1.4933  -1.4933  -1.4593  -1.4562  -1.4539  -1.4538
    -1.4336  -1.4334  -1.4332  -1.4332  -1.3843  -1.3841  -1.3839  -1.3836
    -1.3823  -1.3821  -1.3816  -1.3815  -1.3585  -1.3585  -1.3584  -1.3583
    -1.3089  -1.3084  -1.3073  -1.3073  -1.3040  -1.2382  -1.2335  -1.2328
    -1.2323  -1.1910  -1.1910  -1.1907  -1.1907  -1.1725  -1.1713  -1.1709
    -1.1705  -1.1284  -1.1219  -1.1218  -1.1215  -1.1168  -1.1157  -1.1156
    -1.1155  -1.1131  -1.0957  -1.0923  -1.0905  -1.0893  -1.0572  -1.0571
    -1.0568  -1.0568  -1.0407  -1.0401  -1.0401  -1.0400  -1.0374  -1.0371
    -1.0368  -1.0367  -1.0366  -1.0153  -0.8826  -0.8824  -0.8819  -0.8818
    -0.8534  -0.8528  -0.8526  -0.8525  -0.8048  -0.7710  -0.7701  -0.7698
    -0.7692  -0.7690  -0.7681  -0.7668  -0.7627  -0.7623  -0.7613  -0.7612
    -0.7055  -0.7004  -0.7002  -0.6998  -0.6932  -0.6888  -0.6884  -0.6880
    -0.6767  -0.6677  -0.6670  -0.6670  -0.6435  -0.5833  -0.5713  -0.5711
    -0.5679  -0.5672  -0.5671  -0.5664  -0.5026  -0.4984  -0.4978  -0.4977
    -0.4929  -0.4494  -0.4487  -0.4486  -0.4464  -0.4284  -0.4284  -0.4272
    -0.4271  -0.4099  -0.4000  -0.3998  -0.3892  -0.3892  -0.3883  -0.3883
    -0.3743  -0.3500  -0.3487  -0.3472  -0.3197  -0.2737  -0.2737  -0.2729
    -0.2729  -0.2576  -0.2576  -0.2570  -0.2570  -0.2410  -0.2406  -0.2403
    -0.2378  -0.1602  -0.1593  -0.1582  -0.1574  -0.1534  -0.1533  -0.1529
    -0.1528  -0.1516  -0.1493  -0.1492  -0.1469  -0.1126  -0.1126  -0.1125
    -0.1124  -0.1003  -0.1000  -0.0998  -0.0991  -0.0965  -0.0960  -0.0957
    -0.0956  -0.0725  -0.0268  -0.0265  -0.0261  -0.0258  -0.0006  -0.0003
     0.0012   0.0033   0.0485   0.0486   0.0534   0.0545   0.0613   0.0651
     0.0789   0.0796   0.0803   0.0805   0.0841   0.0864   0.0871   0.0895
     0.0900   0.0914   0.0921   0.0934   0.1003   0.1004   0.1009   0.1012
     0.1063   0.1064   0.1065   0.1066   0.1214   0.1227   0.1230   0.1231
     0.1459   0.1509   0.1511   0.1511   0.1511   0.1603   0.1611   0.1615
     0.1647   0.2097   0.2107   0.2108   0.2112   0.2263   0.2403   0.2438
     0.2439   0.2481   0.2619   0.3092   0.3140   0.3160   0.3250   0.3273
     0.3288   0.3290   0.3316   0.3407   0.3449   0.3456   0.3461   0.3482
     0.3590   0.3610   0.3611   0.3615   0.3619   0.3654   0.3676   0.3686
     0.3693   0.3695   0.3710   0.3728   0.3821   0.3860   0.3963   0.3998
     0.4485   0.4490   0.4516   0.4536   0.4578   0.4580   0.4583   0.4591
     0.4692   0.4693   0.4696   0.4700   0.5049   0.5073   0.5080   0.5086
     0.5099   0.5105   0.5110   0.5111   0.5371   0.5534   0.5536   0.5543
     0.5544   0.5586   0.5671   0.5675   0.5677   0.5681   0.5683   0.5692
     0.5763   0.5766   0.5769   0.5769   0.5883   0.5897   0.5903   0.5906
     0.6043   0.6059   0.6092   0.6102   0.6588   0.6761   0.6763   0.6791
     0.6794   0.6826   0.6831   0.6832   0.6834   0.6844   0.6911   0.6917
     0.6939   0.7015   0.7068   0.7104   0.7281   0.7283   0.7293   0.7293
     0.7312   0.7314   0.7318   0.7322   0.7706   0.7783   0.7835   0.7836
     0.7948   0.8097   0.8115   0.8115   0.8126   0.8207   0.8285   0.8338
     0.8475   0.8477   0.8483   0.8484   0.8692   0.8710   0.8725   0.8727
     0.9252   0.9253   0.9259   0.9260   0.9574   0.9577   0.9600   0.9600
     1.0013   1.0105   1.0115   1.0133   1.0150   1.0224   1.0266   1.0272
     1.0292   1.0370   1.0373   1.0380   1.0390   1.0442   1.0442   1.0444
     1.0445   1.0470   1.0473   1.0482   1.0483   1.0568   1.0714   1.0739
     1.0762   1.0766   1.0771   1.0781   1.0784   1.0787   1.0792   1.0825
     1.0921   1.0941   1.0973   1.0983   1.1174   1.1194   1.1217   1.1221
     1.1255   1.1273   1.1312   1.1325   1.1409   1.1409   1.1418   1.1421
     1.1886   1.1905   1.1940   1.1945   1.1949   1.1951   1.1960   1.1977
     1.2201   1.2208   1.2211   1.2212   1.2313   1.2358   1.2377   1.2386
     1.2395   1.2438   1.2553   1.2559   1.2700   1.2702   1.2704   1.2706
     1.2784   1.2788   1.2801   1.2802   1.2851   1.2856   1.2863   1.2863
     1.3462   1.3522   1.3524   1.3529   1.3530   1.3537   1.3538   1.3545
     1.3546   1.3594   1.3615   1.3637   1.3669   1.3699   1.3710   1.3712
     1.3753   1.3769   1.3809   1.3811   1.3839   1.3854   1.3861   1.3870
     1.3925   1.3932   1.3940   1.3944   1.3989   1.4004   1.4033   1.4042
     1.4143   1.4147   1.4150   1.4152   1.4474   1.4477   1.4479   1.4480
     1.4603   1.4618   1.4630   1.4632   1.4749   1.4762   1.4783   1.4786
     1.4975   1.4988   1.5000   1.5004   1.5396   1.5442   1.5496   1.5511
     1.5723   1.5724   1.5730   1.5731   1.6012   1.6020   1.6034   1.6040
     1.6057   1.6077   1.6087   1.6091   1.6147   1.6150   1.6154   1.6157
     1.8319   1.8337   1.8340   1.8346   2.3276   2.3365   2.3420   2.3425
     2.5550   2.5567   2.5586   2.5587   2.7860   2.7914   2.7928   2.7934
     3.0760   3.0860   3.0873   3.0886   3.4485   3.4520   3.4521   3.4523
     3.6307   3.6376   3.6407   3.6411   3.8970   3.9277   3.9277   3.9279
     3.9930   4.2242   4.2253   4.2259   4.2332   4.3174   4.3282   4.3363
     4.3382   4.5115   4.5515   4.5546   4.5595   4.5637   4.5906   4.5957
     4.6715   4.7910   4.8340   4.8870   4.8927   5.0085   5.0335   5.0699
     5.1612   5.1679   5.1697   5.1713   5.2008   5.2573   5.2929   5.3021
     5.3193   5.3381   5.3457   5.3486   5.5217   5.5937   5.7325   5.7355
     5.7450   5.7458   5.7482   5.7490   5.8443   5.8580   5.8825   5.8835
     6.7813   6.7831   6.7839   6.7845   7.1050   7.1155   7.1218   7.1229
     7.1440   7.1483   7.1497   7.1511   7.2557   7.2656   7.2669   7.2727
     7.3613   7.3653   7.3659   7.3664   7.5331   7.6002   7.6042   7.6100
     7.6524   7.8945   7.9491   7.9559   7.9737   7.9794   7.9886   7.9953
     8.2206   8.2376   8.2397   8.2431   8.2459   8.2830   8.3588   8.3640
     8.8866   8.8895   8.8904   8.8912   8.9208   8.9217   8.9234   8.9246
     8.9622   8.9647   8.9660   8.9668   9.1062   9.1101   9.1180   9.1184
     9.3062   9.3240   9.3373   9.3436   9.5157   9.5213   9.5369   9.5384
     9.5617   9.5637   9.5692   9.5726   9.9258   9.9665   9.9682

     the Fermi energy is     3.3209 ev

!    total energy              =  -12707.14329251 Ry
     Harris-Foulkes estimate   =  -12707.14329253 Ry
     estimated scf accuracy    <          4.2E-09 Ry

     The total energy is the sum of the following terms:

     one-electron contribution = -109279.30894921 Ry
     hartree contribution      =   56001.06685535 Ry
     xc contribution           =   -4447.77430196 Ry
     ewald contribution        =   45025.21630542 Ry
     Dispersion Correction     =      -2.98781517 Ry
     smearing contrib. (-TS)   =      -3.35538694 Ry

     convergence has been achieved in  48 iterations

     Writing output data file gc.save
 
     init_run     :     99.51s CPU    106.51s WALL (       1 calls)
     electrons    :  12192.59s CPU  13056.55s WALL (       1 calls)

     Called by init_run:
     wfcinit      :     97.23s CPU    103.96s WALL (       1 calls)
     potinit      :      0.37s CPU      0.37s WALL (       1 calls)

     Called by electrons:
     c_bands      :  11141.15s CPU  11901.13s WALL (      48 calls)
     sum_band     :    866.15s CPU    939.56s WALL (      48 calls)
     v_of_rho     :      3.12s CPU      3.77s WALL (      49 calls)
     newd         :      7.92s CPU     14.43s WALL (      49 calls)
     mix_rho      :    174.19s CPU    197.54s WALL (      48 calls)

     Called by c_bands:
     init_us_2    :     38.71s CPU     40.00s WALL (     582 calls)
     cegterg      :  10970.06s CPU  11719.05s WALL (     294 calls)

     Called by sum_band:
     sum_band:bec :      5.09s CPU      5.75s WALL (     288 calls)
     addusdens    :      8.51s CPU     14.35s WALL (      48 calls)

     Called by *egterg:
     h_psi        :   4164.64s CPU   4500.61s WALL (    1788 calls)
     s_psi        :    997.94s CPU   1009.62s WALL (    1788 calls)
     g_psi        :     10.72s CPU     10.74s WALL (    1488 calls)
     cdiaghg      :   2886.63s CPU   3000.55s WALL (    1776 calls)

     Called by h_psi:
     add_vuspsi   :   1000.99s CPU   1015.93s WALL (    1788 calls)

     General routines
     calbec       :   1444.90s CPU   1457.00s WALL (    2076 calls)
     fft          :      3.31s CPU      3.91s WALL (     636 calls)
     ffts         :    101.94s CPU    115.62s WALL (   27047 calls)
     fftw         :   2408.33s CPU   2677.57s WALL ( 1370688 calls)
     davcio       :      0.07s CPU      3.57s WALL (       6 calls)
 
     Parallel routines
     fft_scatter  :   1531.52s CPU   1677.79s WALL ( 1398371 calls)
 
     PWSCF        :     3h24m CPU        3h39m WALL

 
   This run was terminated on:   4: 6:49   8Sep2017            

=------------------------------------------------------------------------------=
   JOB DONE.
=------------------------------------------------------------------------------=
