
     Program PWSCF v.5.4.0 starts on 26Mar2017 at 15:34:12 

     This program is part of the open-source Quantum ESPRESSO suite
     for quantum simulation of materials; please cite
         "P. Giannozzi et al., J. Phys.:Condens. Matter 21 395502 (2009);
          URL http://www.quantum-espresso.org", 
     in publications or presentations arising from this work. More details at
     http://www.quantum-espresso.org/quote

     Parallel version (MPI & OpenMP), running on      56 processor cores
     Number of MPI processes:                56
     Threads/MPI process:                     1
     R & G space division:  proc/nbgrp/npool/nimage =      56
     Waiting for input...
     Reading input from standard input
Warning: card &IONS ignored
Warning: card / ignored

     Current dimensions of program PWSCF are:
     Max number of different atomic species (ntypx) = 10
     Max number of k-points (npk) =  40000
     Max angular momentum in pseudopotentials (lmaxx) =  3

     -------------------------------------
     Parameters for Dispersion Correction:
     -------------------------------------
       atom      VdW radius       C_6     

        Cu         2.952        374.666
        C_h        2.744         60.710
        C          2.744         60.710

     Subspace diagonalization in iterative solution of the eigenvalue problem:
     one sub-group per band group will be used
     scalapack distributed-memory algorithm (size of sub-group:  5*  5 procs)

 
     Parallelization info
     --------------------
     sticks:   dense  smooth     PW     G-vecs:    dense   smooth      PW
     Min         204     204     54                36612    36612    4962
     Max         205     205     55                36617    36617    4968
     Sum       11433   11433   3039              2050409  2050409  278033
 


     bravais-lattice index     =            0
     lattice parameter (alat)  =      13.9425  a.u.
     unit-cell volume          =   21209.0878 (a.u.)^3
     number of atoms/cell      =          148
     number of atomic types    =            3
     number of electrons       =      1292.00
     number of Kohn-Sham states=          775
     kinetic-energy cutoff     =      80.0000  Ry
     charge density cutoff     =     320.0000  Ry
     convergence threshold     =      1.0E-08
     mixing beta               =       0.7000
     number of iterations used =            8  local-TF  mixing
     Exchange-correlation      =  SLA  PW   PBX  PBC ( 1  4  3  4 0 0)

     celldm(1)=  13.942539  celldm(2)=   0.000000  celldm(3)=   0.000000
     celldm(4)=   0.000000  celldm(5)=   0.000000  celldm(6)=   0.000000

     crystal axes: (cart. coord. in units of alat)
               a(1) = (   1.000000   0.000000   0.000000 )  
               a(2) = (   0.000000   2.309401   0.000000 )  
               a(3) = (   0.000000   0.000000   3.388418 )  

     reciprocal axes: (cart. coord. in units 2 pi/alat)
               b(1) = (  1.000000  0.000000  0.000000 )  
               b(2) = (  0.000000  0.433013  0.000000 )  
               b(3) = (  0.000000  0.000000  0.295123 )  


     PseudoPot. # 1 for Cu read from file:
     /home/549/hxw549/Short/pseudopotentials/Cu.pbe-n-van_ak.UPF
     MD5 check sum: 601f7c30f7467666bec936e0661ce3e1
     Pseudo is Ultrasoft + core correction, Zval = 11.0
     Generated by new atomic code, or converted to UPF format
     Using radial grid of  867 points,  6 beta functions with: 
                l(1) =   0
                l(2) =   0
                l(3) =   1
                l(4) =   1
                l(5) =   2
                l(6) =   2
     Q(r) pseudized with  8 coefficients,  rinner =    1.400   1.400   1.400
                                                       1.400   1.400

     PseudoPot. # 2 for C  read from file:
     /home/549/hxw549/Short/pseudopotentials/C.star1s-pbe-mt_gipaw.UPF
     MD5 check sum: ef0cb3dee31bd9e4ba2a832a2c716264
     Pseudo is Norm-conserving, Zval =  5.0
     Generated by new atomic code, or converted to UPF format
     Using radial grid of 1073 points,  1 beta functions with: 
                l(1) =   0

     PseudoPot. # 3 for C  read from file:
     /home/549/hxw549/Short/pseudopotentials/C.pbe-mt_gipaw.UPF
     MD5 check sum: 5ac2f21f2c440b14befe521540822c15
     Pseudo is Norm-conserving, Zval =  4.0
     Generated by new atomic code, or converted to UPF format
     Using radial grid of 1073 points,  1 beta functions with: 
                l(1) =   0

     atomic species   valence    mass     pseudopotential
        Cu            11.00    63.54600     Cu( 1.00)
        C_h            5.00    12.01070     C ( 1.00)
        C              4.00    12.01070     C ( 1.00)

     No symmetry found



   Cartesian axes

     site n.     atom                  positions (alat units)
         1           Cu  tau(   1) = (   0.0000000   0.0000567   0.9971194  )
         2           Cu  tau(   2) = (   0.2499927   0.2309760   0.9972946  )
         3           Cu  tau(   3) = (   0.5000000   0.0000313   0.9971490  )
         4           Cu  tau(   4) = (   0.7500073   0.2309760   0.9972946  )
         5           Cu  tau(   5) = (   0.0000000   0.4618437   0.9973425  )
         6           Cu  tau(   6) = (   0.2499840   0.6927701   0.9971914  )
         7           Cu  tau(   7) = (   0.5000000   0.4618722   0.9973119  )
         8           Cu  tau(   8) = (   0.7500160   0.6927701   0.9971914  )
         9           Cu  tau(   9) = (   0.0000000   0.9237521   0.9970621  )
        10           Cu  tau(  10) = (   0.2500157   1.1547420   0.9971373  )
        11           Cu  tau(  11) = (   0.5000000   0.9237453   0.9970727  )
        12           Cu  tau(  12) = (   0.7499843   1.1547420   0.9971373  )
        13           Cu  tau(  13) = (   0.0000000   1.3856555   0.9972830  )
        14           Cu  tau(  14) = (   0.2500029   1.6165618   0.9973242  )
        15           Cu  tau(  15) = (   0.5000000   1.3857014   0.9973005  )
        16           Cu  tau(  16) = (   0.7499971   1.6165618   0.9973242  )
        17           Cu  tau(  17) = (   0.0000000   1.8474941   0.9971969  )
        18           Cu  tau(  18) = (   0.2500043   2.0784518   0.9970745  )
        19           Cu  tau(  19) = (   0.5000000   1.8474499   0.9971773  )
        20           Cu  tau(  20) = (   0.7499957   2.0784518   0.9970745  )
        21           Cu  tau(  21) = (   0.0000000   0.2308065   1.2457643  )
        22           Cu  tau(  22) = (   0.2499892  -0.0001010   1.2455764  )
        23           Cu  tau(  23) = (   0.5000000   0.2308938   1.2456746  )
        24           Cu  tau(  24) = (   0.7500108  -0.0001010   1.2455764  )
        25           Cu  tau(  25) = (   0.0000000   0.6929786   1.2456406  )
        26           Cu  tau(  26) = (   0.2499874   0.4619293   1.2457459  )
        27           Cu  tau(  27) = (   0.5000000   0.6929012   1.2456074  )
        28           Cu  tau(  28) = (   0.7500126   0.4619293   1.2457459  )
        29           Cu  tau(  29) = (   0.0000000   1.1546142   1.2455676  )
        30           Cu  tau(  30) = (   0.2499981   0.9237849   1.2455149  )
        31           Cu  tau(  31) = (   0.5000000   1.1545763   1.2455800  )
        32           Cu  tau(  32) = (   0.7500019   0.9237849   1.2455149  )
        33           Cu  tau(  33) = (   0.0000000   1.6166029   1.2456910  )
        34           Cu  tau(  34) = (   0.2500161   1.3855492   1.2457134  )
        35           Cu  tau(  35) = (   0.5000000   1.6166555   1.2458019  )
        36           Cu  tau(  36) = (   0.7499839   1.3855492   1.2457134  )
        37           Cu  tau(  37) = (   0.0000000   2.0784993   1.2455162  )
        38           Cu  tau(  38) = (   0.2500161   1.8476387   1.2456210  )
        39           Cu  tau(  39) = (   0.5000000   2.0784755   1.2455152  )
        40           Cu  tau(  40) = (   0.7499839   1.8476387   1.2456210  )
        41           Cu  tau(  41) = (   0.0000000  -0.0003182   1.4954305  )
        42           Cu  tau(  42) = (   0.2500224   0.2307186   1.4951678  )
        43           Cu  tau(  43) = (   0.5000000  -0.0002059   1.4952775  )
        44           Cu  tau(  44) = (   0.7499776   0.2307186   1.4951678  )
        45           Cu  tau(  45) = (   0.0000000   0.4620254   1.4950571  )
        46           Cu  tau(  46) = (   0.2500339   0.6931225   1.4952807  )
        47           Cu  tau(  47) = (   0.5000000   0.4619896   1.4952144  )
        48           Cu  tau(  48) = (   0.7499661   0.6931225   1.4952807  )
        49           Cu  tau(  49) = (   0.0000000   0.9238798   1.4954544  )
        50           Cu  tau(  50) = (   0.2499708   1.1544329   1.4953374  )
        51           Cu  tau(  51) = (   0.5000000   0.9237633   1.4954072  )
        52           Cu  tau(  52) = (   0.7500292   1.1544329   1.4953374  )
        53           Cu  tau(  53) = (   0.0000000   1.3854453   1.4952066  )
        54           Cu  tau(  54) = (   0.2499861   1.6167017   1.4951298  )
        55           Cu  tau(  55) = (   0.5000000   1.3853760   1.4951346  )
        56           Cu  tau(  56) = (   0.7500139   1.6167017   1.4951298  )
        57           Cu  tau(  57) = (   0.0000000   1.8477718   1.4952308  )
        58           Cu  tau(  58) = (   0.2499930   2.0785254   1.4954090  )
        59           Cu  tau(  59) = (   0.5000000   1.8478762   1.4953503  )
        60           Cu  tau(  60) = (   0.7500070   2.0785254   1.4954090  )
        61           Cu  tau(  61) = (   0.0000000   0.2310733   1.7440777  )
        62           Cu  tau(  62) = (   0.2501089  -0.0001294   1.7450479  )
        63           Cu  tau(  63) = (   0.5000000   0.2306045   1.7445985  )
        64           Cu  tau(  64) = (   0.7498911  -0.0001294   1.7450479  )
        65           Cu  tau(  65) = (   0.0000000   0.6927994   1.7446059  )
        66           Cu  tau(  66) = (   0.2502918   0.4619532   1.7441197  )
        67           Cu  tau(  67) = (   0.5000000   0.6931011   1.7451318  )
        68           Cu  tau(  68) = (   0.7497082   0.4619532   1.7441197  )
        69           Cu  tau(  69) = (   0.0000000   1.1545789   1.7453503  )
        70           Cu  tau(  70) = (   0.2500220   0.9237908   1.7453835  )
        71           Cu  tau(  71) = (   0.5000000   1.1545999   1.7449118  )
        72           Cu  tau(  72) = (   0.7499780   0.9237908   1.7453835  )
        73           Cu  tau(  73) = (   0.0000000   1.6167791   1.7444075  )
        74           Cu  tau(  74) = (   0.2497438   1.3855115   1.7442733  )
        75           Cu  tau(  75) = (   0.5000000   1.6164906   1.7439233  )
        76           Cu  tau(  76) = (   0.7502562   1.3855115   1.7442733  )
        77           Cu  tau(  77) = (   0.0000000   2.0782721   1.7455014  )
        78           Cu  tau(  78) = (   0.2498426   1.8476765   1.7447807  )
        79           Cu  tau(  79) = (   0.5000000   2.0787016   1.7454002  )
        80           Cu  tau(  80) = (   0.7501574   1.8476765   1.7447807  )
        81           Cu  tau(  81) = (   0.0000000   0.0010732   1.9906710  )
        82           Cu  tau(  82) = (   0.2503054   0.2314650   1.9904877  )
        83           Cu  tau(  83) = (   0.5000000   0.0001335   1.9924670  )
        84           Cu  tau(  84) = (   0.7496946   0.2314650   1.9904877  )
        85           Cu  tau(  85) = (   0.0000000   0.4618379   1.9901778  )
        86           Cu  tau(  86) = (   0.2508441   0.6921348   1.9910282  )
        87           Cu  tau(  87) = (   0.5000000   0.4613052   1.9913358  )
        88           Cu  tau(  88) = (   0.7491559   0.6921348   1.9910282  )
        89           Cu  tau(  89) = (   0.0000000   0.9224699   1.9915918  )
        90           Cu  tau(  90) = (   0.2491275   1.1552920   1.9912642  )
        91           Cu  tau(  91) = (   0.5000000   0.9247757   1.9920574  )
        92           Cu  tau(  92) = (   0.7508725   1.1552920   1.9912642  )
        93           Cu  tau(  93) = (   0.0000000   1.3865904   1.9916296  )
        94           Cu  tau(  94) = (   0.2499532   1.6162906   1.9903050  )
        95           Cu  tau(  95) = (   0.5000000   1.3858063   1.9901800  )
        96           Cu  tau(  96) = (   0.7500468   1.6162906   1.9903050  )
        97           Cu  tau(  97) = (   0.0000000   1.8468318   1.9923212  )
        98           Cu  tau(  98) = (   0.2497561   2.0783183   1.9915134  )
        99           Cu  tau(  99) = (   0.5000000   1.8467805   1.9903847  )
       100           Cu  tau( 100) = (   0.7502439   2.0783183   1.9915134  )
       101           C   tau( 101) = (   0.0000000   0.0962962   2.3888871  )
       102           C   tau( 102) = (   0.0000000   0.2886925   2.3900713  )
       103           C   tau( 103) = (   0.1666323   0.0000435   2.3878440  )
       104           C   tau( 104) = (   0.1664900   0.3848966   2.3886743  )
       105           C   tau( 105) = (   0.3331238   0.0962174   2.3860158  )
       106           C   tau( 106) = (   0.3331280   0.2886629   2.3856823  )
       107           C   tau( 107) = (   0.5000000  -0.0000818   2.3845687  )
       108           C   tau( 108) = (   0.5000000   0.3849277   2.3842391  )
       109           C   tau( 109) = (   0.6668762   0.0962174   2.3860158  )
       110           C   tau( 110) = (   0.6668720   0.2886629   2.3856823  )
       111           C   tau( 111) = (   0.8333677   0.0000435   2.3878440  )
       112           C   tau( 112) = (   0.8335100   0.3848966   2.3886743  )
       113           C   tau( 113) = (   0.0000000   0.6735163   2.3892509  )
       114           C   tau( 114) = (   0.0000000   0.8659398   2.3870960  )
       115           C   tau( 115) = (   0.1664759   0.5773226   2.3882842  )
       116           C   tau( 116) = (   0.1667428   0.9622141   2.3870264  )
       117           C   tau( 117) = (   0.3332094   0.6735984   2.3858047  )
       118           C   tau( 118) = (   0.3332031   0.8660537   2.3866148  )
       119           C   tau( 119) = (   0.5000000   0.5773685   2.3848465  )
       120           C   tau( 120) = (   0.5000000   0.9623380   2.3860825  )
       121           C   tau( 121) = (   0.6667906   0.6735984   2.3858047  )
       122           C   tau( 122) = (   0.6667969   0.8660537   2.3866148  )
       123           C   tau( 123) = (   0.8335241   0.5773226   2.3882842  )
       124           C   tau( 124) = (   0.8332572   0.9622141   2.3870264  )
       125           C   tau( 125) = (   0.0000000   1.2508867   2.3852683  )
       126           C   tau( 126) = (   0.0000000   1.4433300   2.3840871  )
       127           C   tau( 127) = (   0.1667360   1.1546708   2.3859697  )
       128           C_h tau( 128) = (   0.1668939   1.5396104   2.3857176  )
       129           C   tau( 129) = (   0.3335095   1.2509657   2.3878953  )
       130           C   tau( 130) = (   0.3334866   1.4433958   2.3886602  )
       131           C   tau( 131) = (   0.5000000   1.1547731   2.3885512  )
       132           C   tau( 132) = (   0.5000000   1.5396099   2.3901428  )
       133           C   tau( 133) = (   0.6664905   1.2509657   2.3878953  )
       134           C   tau( 134) = (   0.6665134   1.4433958   2.3886602  )
       135           C   tau( 135) = (   0.8332640   1.1546708   2.3859697  )
       136           C   tau( 136) = (   0.8331061   1.5396104   2.3857176  )
       137           C   tau( 137) = (   0.0000000   1.8283510   2.3842019  )
       138           C   tau( 138) = (   0.0000000   2.0207949   2.3863399  )
       139           C   tau( 139) = (   0.1668959   1.7320513   2.3858703  )
       140           C   tau( 140) = (   0.1666186   2.1169980   2.3865340  )
       141           C   tau( 141) = (   0.3334155   1.8282368   2.3882160  )
       142           C   tau( 142) = (   0.3334352   2.0206763   2.3869561  )
       143           C   tau( 143) = (   0.5000000   1.7319961   2.3895398  )
       144           C   tau( 144) = (   0.5000000   2.1168754   2.3870198  )
       145           C   tau( 145) = (   0.6665845   1.8282368   2.3882160  )
       146           C   tau( 146) = (   0.6665648   2.0206763   2.3869561  )
       147           C   tau( 147) = (   0.8331041   1.7320513   2.3858703  )
       148           C   tau( 148) = (   0.8333814   2.1169980   2.3865340  )

     number of k points=     6  gaussian smearing, width (Ry)=  0.1000
                       cart. coord. in units 2pi/alat
        k(    1) = (   0.0000000   0.0000000   0.0000000), wk =   0.2500000
        k(    2) = (   0.0000000  -0.2165064   0.0000000), wk =   0.2500000
        k(    3) = (   0.2500000   0.0000000   0.0000000), wk =   0.5000000
        k(    4) = (   0.2500000  -0.2165064   0.0000000), wk =   0.5000000
        k(    5) = (  -0.5000000   0.0000000   0.0000000), wk =   0.2500000
        k(    6) = (  -0.5000000  -0.2165064   0.0000000), wk =   0.2500000

     Dense  grid:  2050409 G-vectors     FFT dimensions: (  80, 192, 270)

     Largest allocated arrays     est. size (Mb)     dimensions
        Kohn-Sham Wavefunctions        54.44 Mb     (    4604,  775)
        NL pseudopotentials           129.82 Mb     (    4604, 1848)
        Each V/rho on FFT grid          1.17 Mb     (   76800)
        Each G-vector array             0.28 Mb     (   36616)
        G-vector shells                 0.14 Mb     (   17932)
     Largest temporary arrays     est. size (Mb)     dimensions
        Auxiliary wavefunctions       217.78 Mb     (    4604, 3100)
        Each subspace H/S matrix        5.87 Mb     (     620,  620)
        Each <psi_i|beta_j> matrix     21.85 Mb     (    1848,  775)
        Arrays for rho mixing           9.38 Mb     (   76800,    8)

     Initial potential from superposition of free atoms
     Check: negative starting charge=   -0.001842

     starting charge 1266.81751, renormalised to 1292.00000

     negative rho (up, down):  1.879E-03 0.000E+00
     Starting wfc are 1284 randomized atomic wfcs

     total cpu time spent up to now is      108.6 secs

     Self-consistent Calculation

     iteration #  1     ecut=    80.00 Ry     beta=0.70
     Davidson diagonalization with overlap
     ethr =  1.00E-04,  avg # of iterations = 35.2

     negative rho (up, down):  2.724E+01 0.000E+00

     total cpu time spent up to now is     2064.1 secs

     total energy              =   -9474.09745194 Ry
     Harris-Foulkes estimate   =  -17310.42925888 Ry
     estimated scf accuracy    <  180122.51186520 Ry

     iteration #  2     ecut=    80.00 Ry     beta=0.70
     Davidson diagonalization with overlap
     ethr =  1.00E-02,  avg # of iterations = 12.2

     negative rho (up, down):  3.152E+01 0.000E+00

     total cpu time spent up to now is     2978.1 secs

     total energy              =  -12220.84977255 Ry
     Harris-Foulkes estimate   =  -13665.14769292 Ry
     estimated scf accuracy    <   23797.78036202 Ry

     iteration #  3     ecut=    80.00 Ry     beta=0.70
     Davidson diagonalization with overlap
     ethr =  1.00E-02,  avg # of iterations =  7.7

     negative rho (up, down):  3.202E+01 0.000E+00

     total cpu time spent up to now is     3513.2 secs

     total energy              =  -12459.35614000 Ry
     Harris-Foulkes estimate   =  -13402.71031289 Ry
     estimated scf accuracy    <    5863.17356588 Ry

     iteration #  4     ecut=    80.00 Ry     beta=0.70
     Davidson diagonalization with overlap
     ethr =  1.00E-02,  avg # of iterations =  5.8

     negative rho (up, down):  2.391E+01 0.000E+00

     total cpu time spent up to now is     4003.2 secs

     total energy              =  -12846.89297084 Ry
     Harris-Foulkes estimate   =  -13085.79458279 Ry
     estimated scf accuracy    <    1837.85245952 Ry

     iteration #  5     ecut=    80.00 Ry     beta=0.70
     Davidson diagonalization with overlap
     ethr =  1.00E-02,  avg # of iterations =  3.7

     negative rho (up, down):  1.853E+01 0.000E+00

     total cpu time spent up to now is     4275.0 secs

     total energy              =  -12847.30658749 Ry
     Harris-Foulkes estimate   =  -12963.99260542 Ry
     estimated scf accuracy    <    1254.65141130 Ry

     iteration #  6     ecut=    80.00 Ry     beta=0.70
     Davidson diagonalization with overlap
     ethr =  1.00E-02,  avg # of iterations =  3.0

     negative rho (up, down):  1.277E+01 0.000E+00

     total cpu time spent up to now is     4480.7 secs

     total energy              =  -12835.39839535 Ry
     Harris-Foulkes estimate   =  -12907.90073199 Ry
     estimated scf accuracy    <     559.69033697 Ry

     iteration #  7     ecut=    80.00 Ry     beta=0.70
     Davidson diagonalization with overlap
     ethr =  1.00E-02,  avg # of iterations =  2.0

     negative rho (up, down):  9.220E+00 0.000E+00

     total cpu time spent up to now is     4661.7 secs

     total energy              =  -12809.87844583 Ry
     Harris-Foulkes estimate   =  -12850.42446053 Ry
     estimated scf accuracy    <     432.48843201 Ry

     iteration #  8     ecut=    80.00 Ry     beta=0.70
     Davidson diagonalization with overlap
     ethr =  1.00E-02,  avg # of iterations =  2.0

     negative rho (up, down):  7.223E+00 0.000E+00

     total cpu time spent up to now is     4839.0 secs

     total energy              =  -12788.06102978 Ry
     Harris-Foulkes estimate   =  -12822.31955048 Ry
     estimated scf accuracy    <     457.99600378 Ry

     iteration #  9     ecut=    80.00 Ry     beta=0.70
     Davidson diagonalization with overlap
     ethr =  1.00E-02,  avg # of iterations =  2.2

     negative rho (up, down):  6.198E+00 0.000E+00

     total cpu time spent up to now is     5018.5 secs

     total energy              =  -12786.54224927 Ry
     Harris-Foulkes estimate   =  -12800.61152110 Ry
     estimated scf accuracy    <     217.40267461 Ry

     iteration # 10     ecut=    80.00 Ry     beta=0.70
     Davidson diagonalization with overlap
     ethr =  1.00E-02,  avg # of iterations =  1.0

     negative rho (up, down):  1.935E+00 0.000E+00

     total cpu time spent up to now is     5184.4 secs

     total energy              =  -12746.39064940 Ry
     Harris-Foulkes estimate   =  -12789.75112122 Ry
     estimated scf accuracy    <     157.43112347 Ry

     iteration # 11     ecut=    80.00 Ry     beta=0.70
     Davidson diagonalization with overlap
     ethr =  1.00E-02,  avg # of iterations =  1.8

     negative rho (up, down):  9.559E-01 0.000E+00

     total cpu time spent up to now is     5360.3 secs

     total energy              =  -12728.46464133 Ry
     Harris-Foulkes estimate   =  -12757.09223266 Ry
     estimated scf accuracy    <     308.94731839 Ry

     iteration # 12     ecut=    80.00 Ry     beta=0.70
     Davidson diagonalization with overlap
     ethr =  1.00E-02,  avg # of iterations =  2.0

     negative rho (up, down):  1.028E+00 0.000E+00

     total cpu time spent up to now is     5538.2 secs

     total energy              =  -12725.38209472 Ry
     Harris-Foulkes estimate   =  -12743.84860499 Ry
     estimated scf accuracy    <     326.36842093 Ry

     iteration # 13     ecut=    80.00 Ry     beta=0.70
     Davidson diagonalization with overlap
     ethr =  1.00E-02,  avg # of iterations =  2.2

     negative rho (up, down):  3.383E+00 0.000E+00

     total cpu time spent up to now is     5717.8 secs

     total energy              =  -12717.90934150 Ry
     Harris-Foulkes estimate   =  -12737.48825748 Ry
     estimated scf accuracy    <     306.85628730 Ry

     iteration # 14     ecut=    80.00 Ry     beta=0.70
     Davidson diagonalization with overlap
     ethr =  1.00E-02,  avg # of iterations =  1.7

     negative rho (up, down):  5.798E+00 0.000E+00

     total cpu time spent up to now is     5891.3 secs

     total energy              =  -12716.16024049 Ry
     Harris-Foulkes estimate   =  -12729.10579422 Ry
     estimated scf accuracy    <     164.01800543 Ry

     iteration # 15     ecut=    80.00 Ry     beta=0.70
     Davidson diagonalization with overlap
     ethr =  1.00E-02,  avg # of iterations =  1.8

     negative rho (up, down):  4.496E+00 0.000E+00

     total cpu time spent up to now is     6066.5 secs

     total energy              =  -12716.57302366 Ry
     Harris-Foulkes estimate   =  -12724.12688753 Ry
     estimated scf accuracy    <      84.57846138 Ry

     iteration # 16     ecut=    80.00 Ry     beta=0.70
     Davidson diagonalization with overlap
     ethr =  6.55E-03,  avg # of iterations =  2.5

     negative rho (up, down):  4.670E+00 0.000E+00

     total cpu time spent up to now is     6249.4 secs

     total energy              =  -12716.70520487 Ry
     Harris-Foulkes estimate   =  -12722.25425916 Ry
     estimated scf accuracy    <      49.41664779 Ry

     iteration # 17     ecut=    80.00 Ry     beta=0.70
     Davidson diagonalization with overlap
     ethr =  3.82E-03,  avg # of iterations =  2.3

     negative rho (up, down):  6.193E+00 0.000E+00

     total cpu time spent up to now is     6430.6 secs

     total energy              =  -12716.00134275 Ry
     Harris-Foulkes estimate   =  -12718.60363805 Ry
     estimated scf accuracy    <      30.41788279 Ry

     iteration # 18     ecut=    80.00 Ry     beta=0.70
     Davidson diagonalization with overlap
     ethr =  2.35E-03,  avg # of iterations =  3.2

     negative rho (up, down):  5.055E+00 0.000E+00

     total cpu time spent up to now is     6620.4 secs

     total energy              =  -12714.48664352 Ry
     Harris-Foulkes estimate   =  -12716.93307013 Ry
     estimated scf accuracy    <      24.84846076 Ry

     iteration # 19     ecut=    80.00 Ry     beta=0.70
     Davidson diagonalization with overlap
     ethr =  1.92E-03,  avg # of iterations =  2.0

     negative rho (up, down):  4.198E+00 0.000E+00

     total cpu time spent up to now is     6798.1 secs

     total energy              =  -12712.89038711 Ry
     Harris-Foulkes estimate   =  -12715.01707258 Ry
     estimated scf accuracy    <      13.06871174 Ry

     iteration # 20     ecut=    80.00 Ry     beta=0.70
     Davidson diagonalization with overlap
     ethr =  1.01E-03,  avg # of iterations =  7.7

     negative rho (up, down):  3.804E+00 0.000E+00

     total cpu time spent up to now is     7047.8 secs

     total energy              =  -12712.30931422 Ry
     Harris-Foulkes estimate   =  -12713.47141094 Ry
     estimated scf accuracy    <      12.44434394 Ry

     iteration # 21     ecut=    80.00 Ry     beta=0.70
     Davidson diagonalization with overlap
     ethr =  9.63E-04,  avg # of iterations =  3.3

     negative rho (up, down):  2.688E+00 0.000E+00

     total cpu time spent up to now is     7238.7 secs

     total energy              =  -12712.00830628 Ry
     Harris-Foulkes estimate   =  -12712.76543502 Ry
     estimated scf accuracy    <      10.15181973 Ry

     iteration # 22     ecut=    80.00 Ry     beta=0.70
     Davidson diagonalization with overlap
     ethr =  7.86E-04,  avg # of iterations =  1.0

     negative rho (up, down):  2.008E+00 0.000E+00

     total cpu time spent up to now is     7404.6 secs

     total energy              =  -12711.43743735 Ry
     Harris-Foulkes estimate   =  -12712.19025942 Ry
     estimated scf accuracy    <       7.96148853 Ry

     iteration # 23     ecut=    80.00 Ry     beta=0.70
     Davidson diagonalization with overlap
     ethr =  6.16E-04,  avg # of iterations =  2.2

     negative rho (up, down):  1.174E+00 0.000E+00

     total cpu time spent up to now is     7585.4 secs

     total energy              =  -12710.84810918 Ry
     Harris-Foulkes estimate   =  -12711.84108772 Ry
     estimated scf accuracy    <       7.61309178 Ry

     iteration # 24     ecut=    80.00 Ry     beta=0.70
     Davidson diagonalization with overlap
     ethr =  5.89E-04,  avg # of iterations =  4.2

     negative rho (up, down):  8.295E-01 0.000E+00

     total cpu time spent up to now is     7786.3 secs

     total energy              =  -12709.67653488 Ry
     Harris-Foulkes estimate   =  -12711.08294241 Ry
     estimated scf accuracy    <       6.41672814 Ry

     iteration # 25     ecut=    80.00 Ry     beta=0.70
     Davidson diagonalization with overlap
     ethr =  4.97E-04,  avg # of iterations =  2.5

     negative rho (up, down):  9.620E-02 0.000E+00

     total cpu time spent up to now is     7969.4 secs

     total energy              =  -12708.93479893 Ry
     Harris-Foulkes estimate   =  -12709.93399445 Ry
     estimated scf accuracy    <      12.90975116 Ry

     iteration # 26     ecut=    80.00 Ry     beta=0.70
     Davidson diagonalization with overlap
     ethr =  4.97E-04,  avg # of iterations =  7.7

     negative rho (up, down):  2.440E-02 0.000E+00

     total cpu time spent up to now is     8212.5 secs

     total energy              =  -12708.24486385 Ry
     Harris-Foulkes estimate   =  -12709.44290127 Ry
     estimated scf accuracy    <       4.14624412 Ry

     iteration # 27     ecut=    80.00 Ry     beta=0.70
     Davidson diagonalization with overlap
     c_bands:  2 eigenvalues not converged
     ethr =  3.21E-04,  avg # of iterations = 11.7

     negative rho (up, down):  5.978E-01 0.000E+00

     total cpu time spent up to now is     8500.4 secs

     total energy              =  -12707.63148049 Ry
     Harris-Foulkes estimate   =  -12708.32057840 Ry
     estimated scf accuracy    <       2.52197012 Ry

     iteration # 28     ecut=    80.00 Ry     beta=0.70
     Davidson diagonalization with overlap
     ethr =  1.95E-04,  avg # of iterations =  3.8

     negative rho (up, down):  5.823E-01 0.000E+00

     total cpu time spent up to now is     8699.0 secs

     total energy              =  -12707.36596109 Ry
     Harris-Foulkes estimate   =  -12707.69828202 Ry
     estimated scf accuracy    <       1.64032328 Ry

     iteration # 29     ecut=    80.00 Ry     beta=0.70
     Davidson diagonalization with overlap
     ethr =  1.27E-04,  avg # of iterations =  8.0

     negative rho (up, down):  4.752E-01 0.000E+00

     total cpu time spent up to now is     8949.7 secs

     total energy              =  -12707.11506955 Ry
     Harris-Foulkes estimate   =  -12707.42123842 Ry
     estimated scf accuracy    <       1.07336055 Ry

     iteration # 30     ecut=    80.00 Ry     beta=0.70
     Davidson diagonalization with overlap
     ethr =  8.31E-05,  avg # of iterations =  9.5

     negative rho (up, down):  3.533E-01 0.000E+00

     total cpu time spent up to now is     9245.3 secs

     total energy              =  -12707.13243950 Ry
     Harris-Foulkes estimate   =  -12707.17877294 Ry
     estimated scf accuracy    <       0.43391382 Ry

     iteration # 31     ecut=    80.00 Ry     beta=0.70
     Davidson diagonalization with overlap
     ethr =  3.36E-05,  avg # of iterations =  8.2

     negative rho (up, down):  2.577E-02 0.000E+00

     total cpu time spent up to now is     9505.1 secs

     total energy              =  -12707.13089918 Ry
     Harris-Foulkes estimate   =  -12707.15584106 Ry
     estimated scf accuracy    <       0.22632108 Ry

     iteration # 32     ecut=    80.00 Ry     beta=0.70
     Davidson diagonalization with overlap
     c_bands:  1 eigenvalues not converged
     ethr =  1.75E-05,  avg # of iterations = 11.0

     negative rho (up, down):  4.226E-02 0.000E+00

     total cpu time spent up to now is     9805.7 secs

     total energy              =  -12707.13972306 Ry
     Harris-Foulkes estimate   =  -12707.14874916 Ry
     estimated scf accuracy    <       0.08941597 Ry

     iteration # 33     ecut=    80.00 Ry     beta=0.70
     Davidson diagonalization with overlap
     c_bands:  2 eigenvalues not converged
     ethr =  6.92E-06,  avg # of iterations = 11.7

     negative rho (up, down):  4.916E-02 0.000E+00

     total cpu time spent up to now is    10106.5 secs

     total energy              =  -12707.14377297 Ry
     Harris-Foulkes estimate   =  -12707.14467021 Ry
     estimated scf accuracy    <       0.01412327 Ry

     iteration # 34     ecut=    80.00 Ry     beta=0.70
     Davidson diagonalization with overlap
     c_bands:  1 eigenvalues not converged
     ethr =  1.09E-06,  avg # of iterations =  9.7

     negative rho (up, down):  2.573E-02 0.000E+00

     total cpu time spent up to now is    10382.3 secs

     total energy              =  -12707.14389395 Ry
     Harris-Foulkes estimate   =  -12707.14460797 Ry
     estimated scf accuracy    <       0.00320748 Ry

     iteration # 35     ecut=    80.00 Ry     beta=0.70
     Davidson diagonalization with overlap
     ethr =  2.48E-07,  avg # of iterations =  6.8

     negative rho (up, down):  1.982E-02 0.000E+00

     total cpu time spent up to now is    10632.9 secs

     total energy              =  -12707.14400396 Ry
     Harris-Foulkes estimate   =  -12707.14422336 Ry
     estimated scf accuracy    <       0.00155873 Ry

     iteration # 36     ecut=    80.00 Ry     beta=0.70
     Davidson diagonalization with overlap
     ethr =  1.21E-07,  avg # of iterations =  8.5

     negative rho (up, down):  1.457E-02 0.000E+00

     total cpu time spent up to now is    10902.7 secs

     total energy              =  -12707.14404075 Ry
     Harris-Foulkes estimate   =  -12707.14413601 Ry
     estimated scf accuracy    <       0.00044956 Ry

     iteration # 37     ecut=    80.00 Ry     beta=0.70
     Davidson diagonalization with overlap
     c_bands:  1 eigenvalues not converged
     ethr =  3.48E-08,  avg # of iterations =  8.7

     negative rho (up, down):  1.087E-02 0.000E+00

     total cpu time spent up to now is    11169.2 secs

     total energy              =  -12707.14399881 Ry
     Harris-Foulkes estimate   =  -12707.14407771 Ry
     estimated scf accuracy    <       0.00014787 Ry

     iteration # 38     ecut=    80.00 Ry     beta=0.70
     Davidson diagonalization with overlap
     c_bands:  1 eigenvalues not converged
     ethr =  1.14E-08,  avg # of iterations = 10.0

     negative rho (up, down):  5.095E-03 0.000E+00

     total cpu time spent up to now is    11448.6 secs

     total energy              =  -12707.14389972 Ry
     Harris-Foulkes estimate   =  -12707.14400896 Ry
     estimated scf accuracy    <       0.00005081 Ry

     iteration # 39     ecut=    80.00 Ry     beta=0.70
     Davidson diagonalization with overlap
     ethr =  3.93E-09,  avg # of iterations =  7.5

     negative rho (up, down):  3.686E-03 0.000E+00

     total cpu time spent up to now is    11706.4 secs

     total energy              =  -12707.14388271 Ry
     Harris-Foulkes estimate   =  -12707.14390375 Ry
     estimated scf accuracy    <       0.00001792 Ry

     iteration # 40     ecut=    80.00 Ry     beta=0.70
     Davidson diagonalization with overlap
     ethr =  1.39E-09,  avg # of iterations =  3.7

     negative rho (up, down):  2.767E-03 0.000E+00

     total cpu time spent up to now is    11914.6 secs

     total energy              =  -12707.14387540 Ry
     Harris-Foulkes estimate   =  -12707.14388448 Ry
     estimated scf accuracy    <       0.00000758 Ry

     iteration # 41     ecut=    80.00 Ry     beta=0.70
     Davidson diagonalization with overlap
     ethr =  5.87E-10,  avg # of iterations =  3.3

     negative rho (up, down):  2.249E-03 0.000E+00

     total cpu time spent up to now is    12117.6 secs

     total energy              =  -12707.14387498 Ry
     Harris-Foulkes estimate   =  -12707.14387600 Ry
     estimated scf accuracy    <       0.00000320 Ry

     iteration # 42     ecut=    80.00 Ry     beta=0.70
     Davidson diagonalization with overlap
     ethr =  2.48E-10,  avg # of iterations =  2.0

     negative rho (up, down):  2.192E-03 0.000E+00

     total cpu time spent up to now is    12306.9 secs

     total energy              =  -12707.14387544 Ry
     Harris-Foulkes estimate   =  -12707.14387532 Ry
     estimated scf accuracy    <       0.00000168 Ry

     iteration # 43     ecut=    80.00 Ry     beta=0.70
     Davidson diagonalization with overlap
     ethr =  1.30E-10,  avg # of iterations =  2.0

     negative rho (up, down):  2.167E-03 0.000E+00

     total cpu time spent up to now is    12492.8 secs

     total energy              =  -12707.14387563 Ry
     Harris-Foulkes estimate   =  -12707.14387552 Ry
     estimated scf accuracy    <       0.00000052 Ry

     iteration # 44     ecut=    80.00 Ry     beta=0.70
     Davidson diagonalization with overlap
     ethr =  3.99E-11,  avg # of iterations =  2.0

     negative rho (up, down):  2.149E-03 0.000E+00

     total cpu time spent up to now is    12693.7 secs

     total energy              =  -12707.14387573 Ry
     Harris-Foulkes estimate   =  -12707.14387569 Ry
     estimated scf accuracy    <       0.00000030 Ry

     iteration # 45     ecut=    80.00 Ry     beta=0.70
     Davidson diagonalization with overlap
     ethr =  2.30E-11,  avg # of iterations =  2.0

     negative rho (up, down):  2.139E-03 0.000E+00

     total cpu time spent up to now is    12876.8 secs

     total energy              =  -12707.14387583 Ry
     Harris-Foulkes estimate   =  -12707.14387576 Ry
     estimated scf accuracy    <       0.00000008 Ry

     iteration # 46     ecut=    80.00 Ry     beta=0.70
     Davidson diagonalization with overlap
     ethr =  6.26E-12,  avg # of iterations =  2.8

     negative rho (up, down):  2.115E-03 0.000E+00

     total cpu time spent up to now is    13069.6 secs

     End of self-consistent calculation

          k = 0.0000 0.0000 0.0000 (256287 PWs)   bands (ev):

   -17.2803 -16.2341 -16.0879 -15.4297 -15.0433 -14.7903 -14.6879 -14.2540
   -14.1968 -14.1393 -14.1237 -13.4652 -13.3263 -13.1554 -13.1201 -13.0847
   -13.0794 -11.6703 -11.5336 -11.4826 -11.3895 -11.2049 -10.3533  -9.7684
    -9.7591  -9.6266  -9.5222  -8.9875  -8.7980  -8.6709  -8.6018  -8.0472
    -7.9028  -7.7671  -7.6324  -7.5808  -7.5685  -7.5374  -7.5245  -6.3566
    -6.3511  -6.1245  -6.0221  -6.0216  -5.9486  -5.8905  -5.8582  -5.8429
    -5.5006  -5.4833  -5.3028  -4.8907  -4.8410  -4.7967  -4.6343  -4.6218
    -4.5839  -4.4244  -4.2592  -4.1466  -3.9899  -3.9884  -3.9686  -3.9474
    -3.6158  -3.5496  -3.5324  -3.5201  -3.4207  -3.4173  -3.4073  -3.4013
    -3.2775  -3.1882  -3.1222  -3.0561  -3.0149  -3.0097  -3.0057  -3.0053
    -2.9931  -2.8587  -2.8345  -2.7977  -2.7806  -2.7441  -2.7408  -2.7402
    -2.7189  -2.7124  -2.5317  -2.4326  -2.3776  -2.3763  -2.3403  -2.3367
    -2.1952  -2.1927  -2.1798  -2.1782  -2.1526  -2.1524  -2.1523  -2.1521
    -2.1126  -2.0792  -2.0780  -2.0348  -2.0216  -2.0215  -2.0215  -2.0211
    -1.9616  -1.8424  -1.7775  -1.7436  -1.7399  -1.7384  -1.7382  -1.7030
    -1.6934  -1.6721  -1.6591  -1.6573  -1.6153  -1.5959  -1.5951  -1.5705
    -1.5648  -1.5625  -1.5614  -1.5510  -1.5407  -1.5348  -1.5344  -1.5161
    -1.5145  -1.4568  -1.4414  -1.4298  -1.4165  -1.3902  -1.3796  -1.3781
    -1.3700  -1.3534  -1.2994  -1.2936  -1.2641  -1.2627  -1.2500  -1.2122
    -1.2118  -1.1923  -1.1902  -1.1815  -1.1675  -1.1646  -1.1238  -1.1202
    -1.1078  -1.1057  -1.0491  -1.0485  -1.0349  -1.0299  -1.0268  -1.0257
    -1.0255  -1.0224  -1.0211  -1.0161  -1.0160  -0.9987  -0.9967  -0.9795
    -0.9523  -0.9384  -0.9380  -0.9343  -0.9239  -0.9191  -0.9185  -0.9177
    -0.8955  -0.8588  -0.8581  -0.8571  -0.8563  -0.8560  -0.8550  -0.8541
    -0.8535  -0.8533  -0.8497  -0.8487  -0.8487  -0.8483  -0.8462  -0.8429
    -0.8423  -0.8324  -0.8307  -0.8278  -0.8253  -0.7862  -0.6902  -0.6902
    -0.6864  -0.6839  -0.6835  -0.6605  -0.6591  -0.6420  -0.6419  -0.6203
    -0.6202  -0.6047  -0.6046  -0.6042  -0.6039  -0.5882  -0.5648  -0.5643
    -0.5623  -0.5618  -0.5542  -0.5535  -0.5428  -0.5424  -0.4926  -0.4926
    -0.4387  -0.4384  -0.4281  -0.4267  -0.4263  -0.4249  -0.4112  -0.4109
    -0.4056  -0.4051  -0.4049  -0.4046  -0.4004  -0.4003  -0.3855  -0.3855
    -0.3849  -0.3792  -0.3753  -0.3752  -0.3516  -0.3510  -0.3008  -0.2979
    -0.2974  -0.2916  -0.2914  -0.2649  -0.2649  -0.2649  -0.2648  -0.2489
    -0.2474  -0.2472  -0.2430  -0.2429  -0.2224  -0.2216  -0.2211  -0.2207
    -0.2160  -0.2152  -0.2147  -0.2145  -0.2122  -0.2091  -0.1936  -0.1906
    -0.1899  -0.1885  -0.1879  -0.1684  -0.1209  -0.1206  -0.1187  -0.1184
    -0.1159  -0.0728  -0.0715  -0.0705  -0.0688  -0.0686  -0.0629  -0.0625
    -0.0623  -0.0621  -0.0621  -0.0522  -0.0482  -0.0341  -0.0109  -0.0097
    -0.0086  -0.0082   0.0005   0.0184   0.0205   0.0210   0.0212   0.0262
     0.0290   0.0451   0.0453   0.0462   0.0474   0.0490   0.0492   0.0624
     0.0631   0.0632   0.0635   0.0680   0.0757   0.0770   0.0775   0.1000
     0.1011   0.1240   0.1347   0.1352   0.1519   0.1639   0.1642   0.1894
     0.1921   0.2314   0.2375   0.2376   0.2382   0.2393   0.2427   0.2491
     0.2699   0.2726   0.2732   0.2734   0.2736   0.2836   0.2838   0.2911
     0.3259   0.3403   0.3403   0.3468   0.3488   0.3496   0.3500   0.3770
     0.3824   0.3826   0.3835   0.3840   0.4076   0.4144   0.4150   0.4224
     0.4227   0.4363   0.4376   0.4379   0.4393   0.4773   0.4787   0.4923
     0.4947   0.4958   0.4965   0.4966   0.5079   0.5204   0.5278   0.5300
     0.5339   0.5347   0.5349   0.5352   0.5368   0.5391   0.5465   0.5467
     0.5483   0.5526   0.5532   0.5544   0.5630   0.5637   0.5875   0.5952
     0.6052   0.6056   0.6157   0.6159   0.6484   0.6486   0.6489   0.6499
     0.6521   0.6523   0.6525   0.6529   0.6642   0.6649   0.6734   0.6774
     0.6786   0.6789   0.6804   0.6869   0.6870   0.6930   0.6977   0.6988
     0.7188   0.7199   0.7202   0.7231   0.7307   0.7316   0.7422   0.7457
     0.7475   0.7480   0.7480   0.7519   0.7550   0.7564   0.7587   0.7664
     0.7680   0.7788   0.8054   0.8055   0.8160   0.8165   0.8231   0.8233
     0.8241   0.8246   0.8551   0.8559   0.8694   0.8703   0.8757   0.8757
     0.8903   0.8905   0.8998   0.9001   0.9001   0.9016   0.9085   0.9213
     0.9354   0.9376   0.9390   0.9416   0.9423   0.9429   0.9572   0.9655
     0.9771   0.9833   0.9854   0.9859   0.9963   0.9967   1.0097   1.0107
     1.0120   1.0125   1.0128   1.0145   1.0196   1.0238   1.0255   1.0282
     1.0282   1.0287   1.0301   1.0431   1.0434   1.0609   1.0628   1.0640
     1.0645   1.0716   1.0733   1.1007   1.1047   1.1057   1.1071   1.1081
     1.1094   1.1106   1.1130   1.1169   1.1191   1.1193   1.1193   1.1194
     1.1203   1.1351   1.1355   1.1598   1.1660   1.1825   1.1841   1.1968
     1.2007   1.2021   1.2033   1.2044   1.2051   1.2109   1.2124   1.2221
     1.2259   1.2335   1.2372   1.2394   1.2400   1.2405   1.2443   1.2457
     1.2461   1.2545   1.2731   1.2743   1.2753   1.2759   1.2767   1.2769
     1.2780   1.2782   1.2938   1.2947   1.2952   1.3015   1.3094   1.3100
     1.3109   1.3112   1.3116   1.3211   1.3218   1.3252   1.3345   1.3440
     1.3517   1.3542   1.3551   1.3557   1.3564   1.3588   1.3613   1.3672
     1.3835   1.3861   1.3877   1.3926   1.4022   1.4156   1.4158   1.4214
     1.4222   1.4226   1.4284   1.4303   1.4308   1.4332   1.4338   1.4341
     1.4349   1.4365   1.4377   1.4450   1.4458   1.4497   1.4668   1.4670
     1.4678   1.4679   1.4714   1.4791   1.4802   1.4939   1.5032   1.5085
     1.5109   1.5202   1.5563   1.5571   1.5598   1.5608   1.5789   1.5794
     1.5794   1.5875   1.5901   1.6055   1.6288   1.6306   1.6314   1.6334
     1.6339   1.6427   1.6434   1.6436   1.8995   1.9554   2.1045   2.1076
     2.1483   2.1532   2.1994   2.2052   2.2058   2.2066   2.2188   2.2229
     2.2250   2.2255   2.3982   2.4012   2.4573   2.4644   2.4671   2.4673
     2.4775   2.4805   2.6624   2.7176   2.7239   2.7243   2.7427   2.9741
     2.9872   3.0203   3.1686   3.5192   3.5222   3.8135   3.8178   3.8466
     3.8498   3.8532   3.8548   3.8923   3.9669   3.9753   3.9921   4.0024
     4.0056   4.0076   4.0092   4.0127   4.0135   4.2267   4.2462   4.2510
     4.2526   4.3509   4.3983   4.6652   4.7650   4.8506   4.8858   4.9204
     5.3043   5.3897   5.3978   5.4072   5.6965   5.7088   5.7192   5.7242
     5.9177   5.9305   6.2019   6.3457   6.3496   6.3924   6.4115   6.4692
     6.4753   6.4808   6.4861   6.5739   6.5924   6.6082   6.7109   6.7695
     6.7796   6.7927   6.8062   6.8522   7.0315   7.0438   7.0502   7.0636
     7.0668   7.0915   7.3535   7.3591   7.5125   7.5459   7.5492   7.6920
     7.6953   7.7082   7.7105   8.0011   8.0405   8.0932   8.1356   8.2041
     8.2157   8.2992   8.3045   8.3060   8.3348   8.3376   8.3668   8.3740
     8.3771   8.4724   8.5128   8.5335   8.5654   8.5736   8.6617   8.6642
     8.6678   8.6690   8.8137   8.8152   8.8309   8.8315   8.8385   8.8393
     9.1067   9.1086   9.1108   9.1151   9.1193   9.1386   9.1742   9.3184
     9.3442   9.3526   9.4194   9.4811   9.4913   9.5767   9.5778   9.6618
     9.6709   9.8165   9.8303  10.0425  10.0434  10.1304  10.1475

          k = 0.0000-0.2165 0.0000 (256176 PWs)   bands (ev):

   -17.2799 -16.3023 -15.8960 -15.6594 -15.0728 -14.6759 -14.3580 -14.3381
   -14.2661 -14.2321 -13.8309 -13.7665 -13.7155 -13.6964 -12.6043 -12.4432
   -12.3857 -12.3056 -12.1453 -12.0792 -10.6510 -10.5555 -10.5199 -10.3914
    -9.4589  -9.4395  -9.2961  -9.1175  -8.9883  -8.9567  -8.4050  -8.2823
    -8.2108  -8.1613  -7.4806  -7.3441  -7.0130  -6.9708  -6.9050  -6.8966
    -6.8530  -6.8379  -6.1872  -6.0809  -5.8917  -5.8831  -5.5181  -5.3863
    -5.2944  -5.2132  -5.1397  -4.9650  -4.9114  -4.8413  -4.8390  -4.7435
    -4.6856  -4.6295  -4.6090  -4.4710  -4.1587  -4.0481  -3.8234  -3.6956
    -3.6639  -3.5911  -3.3158  -3.3053  -3.3025  -3.3016  -3.2465  -3.2264
    -3.1358  -3.0922  -3.0681  -3.0470  -3.0420  -3.0316  -3.0023  -2.8947
    -2.8697  -2.8661  -2.8276  -2.7893  -2.7750  -2.7107  -2.6960  -2.6005
    -2.5877  -2.5875  -2.5790  -2.5788  -2.5785  -2.5782  -2.4799  -2.3707
    -2.3362  -2.3319  -2.2518  -2.2503  -2.2490  -2.2467  -2.1503  -2.1462
    -2.1451  -2.1448  -2.0863  -2.0418  -1.9872  -1.9871  -1.9617  -1.9617
    -1.8750  -1.8649  -1.8576  -1.8094  -1.7860  -1.7853  -1.7693  -1.7682
    -1.7502  -1.7501  -1.7412  -1.7412  -1.7233  -1.7230  -1.6460  -1.6459
    -1.6238  -1.5864  -1.5708  -1.5698  -1.5584  -1.4687  -1.4673  -1.4631
    -1.4627  -1.3790  -1.3779  -1.3714  -1.3711  -1.3681  -1.3173  -1.3171
    -1.2805  -1.2796  -1.2754  -1.2751  -1.2728  -1.2727  -1.2544  -1.2491
    -1.2293  -1.2292  -1.2244  -1.2236  -1.2136  -1.2124  -1.1701  -1.1544
    -1.1498  -1.1493  -1.1338  -1.1336  -1.0894  -1.0893  -1.0511  -1.0511
    -1.0480  -1.0478  -1.0047  -1.0039  -0.9846  -0.9840  -0.9832  -0.9828
    -0.9787  -0.9784  -0.9280  -0.9272  -0.9198  -0.9194  -0.9114  -0.9113
    -0.9015  -0.8989  -0.8978  -0.8973  -0.8336  -0.8287  -0.8286  -0.8197
    -0.8190  -0.8190  -0.8161  -0.8159  -0.7962  -0.7960  -0.7826  -0.7815
    -0.7552  -0.7551  -0.7523  -0.7510  -0.6553  -0.6551  -0.6548  -0.6547
    -0.6340  -0.6338  -0.6222  -0.6099  -0.6075  -0.6067  -0.6058  -0.6020
    -0.6019  -0.5762  -0.5756  -0.5691  -0.5423  -0.5418  -0.5412  -0.5407
    -0.5385  -0.5371  -0.5353  -0.5340  -0.5044  -0.5044  -0.4844  -0.4844
    -0.4822  -0.4768  -0.4487  -0.4484  -0.4478  -0.4472  -0.4456  -0.4365
    -0.4362  -0.4360  -0.4356  -0.4137  -0.3936  -0.3580  -0.3579  -0.3577
    -0.3575  -0.3276  -0.3256  -0.3041  -0.3038  -0.3019  -0.3008  -0.2972
    -0.2959  -0.2956  -0.2726  -0.2703  -0.2697  -0.2693  -0.2685  -0.2589
    -0.2545  -0.2486  -0.2477  -0.2471  -0.2465  -0.2439  -0.2438  -0.2353
    -0.2340  -0.2336  -0.2146  -0.2071  -0.2070  -0.2051  -0.2050  -0.1439
    -0.1425  -0.1414  -0.1413  -0.1335  -0.1328  -0.1311  -0.1292  -0.1283
    -0.1243  -0.1180  -0.1044  -0.1011  -0.0890  -0.0887  -0.0869  -0.0866
    -0.0782  -0.0778  -0.0754  -0.0747  -0.0745  -0.0740  -0.0376  -0.0180
    -0.0178  -0.0139  -0.0139   0.0021   0.0027   0.0038   0.0049   0.0105
     0.0107   0.0158   0.0276   0.0288   0.0294   0.0301   0.0388   0.0473
     0.0578   0.0589   0.0749   0.0753   0.0753   0.0757   0.0934   0.0945
     0.1104   0.1104   0.1212   0.1214   0.1340   0.1345   0.1347   0.1351
     0.1790   0.1798   0.1831   0.1837   0.1952   0.1959   0.2010   0.2015
     0.2283   0.2285   0.2603   0.2624   0.2645   0.2664   0.2996   0.2997
     0.3244   0.3348   0.3850   0.3854   0.3860   0.3864   0.3965   0.4120
     0.4124   0.4128   0.4134   0.4251   0.4459   0.4479   0.4519   0.4540
     0.4544   0.4545   0.4552   0.4560   0.4604   0.4658   0.4762   0.4774
     0.4783   0.4786   0.4799   0.4815   0.4831   0.4842   0.5156   0.5157
     0.5270   0.5273   0.5276   0.5278   0.5354   0.5355   0.5371   0.5546
     0.5559   0.5567   0.5571   0.5574   0.5575   0.5578   0.5585   0.5589
     0.5809   0.5814   0.5825   0.5831   0.5831   0.5840   0.5847   0.5848
     0.6009   0.6011   0.6440   0.6445   0.6561   0.6564   0.6668   0.6672
     0.6680   0.6684   0.6745   0.6751   0.6755   0.6762   0.6812   0.6818
     0.6827   0.6827   0.7231   0.7238   0.7238   0.7241   0.7371   0.7402
     0.7410   0.7410   0.7430   0.7440   0.7543   0.7578   0.7745   0.7749
     0.7795   0.7804   0.7806   0.7812   0.8334   0.8341   0.8839   0.8852
     0.8897   0.8932   0.8933   0.8938   0.9023   0.9036   0.9100   0.9101
     0.9163   0.9169   0.9223   0.9240   0.9250   0.9259   0.9363   0.9383
     0.9404   0.9407   0.9412   0.9419   0.9492   0.9528   0.9636   0.9659
     0.9659   0.9674   0.9683   0.9700   0.9703   0.9731   0.9770   0.9772
     0.9887   0.9887   0.9901   0.9913   0.9922   0.9927   1.0106   1.0107
     1.0213   1.0234   1.0246   1.0259   1.0289   1.0292   1.0379   1.0380
     1.0390   1.0390   1.0398   1.0399   1.0845   1.0877   1.1078   1.1141
     1.1267   1.1267   1.1403   1.1428   1.1494   1.1516   1.1546   1.1562
     1.1693   1.1697   1.1835   1.1857   1.1908   1.1923   1.1931   1.1954
     1.1972   1.1974   1.1980   1.1986   1.1998   1.2012   1.2019   1.2028
     1.2096   1.2097   1.2187   1.2226   1.2293   1.2301   1.2306   1.2311
     1.2390   1.2405   1.2654   1.2689   1.2691   1.2694   1.2759   1.2761
     1.2784   1.2790   1.2940   1.2952   1.2954   1.2959   1.3094   1.3101
     1.3118   1.3132   1.3136   1.3148   1.3311   1.3318   1.3326   1.3331
     1.3502   1.3512   1.3518   1.3541   1.3702   1.3719   1.3776   1.3783
     1.3793   1.3797   1.3943   1.3944   1.3945   1.3947   1.4112   1.4120
     1.4256   1.4258   1.4259   1.4279   1.4459   1.4464   1.4486   1.4488
     1.4491   1.4493   1.4503   1.4508   1.4783   1.4784   1.4863   1.4870
     1.4915   1.4961   1.4987   1.5038   1.5183   1.5188   1.5189   1.5194
     1.5280   1.5281   1.5403   1.5404   1.5813   1.5848   1.5871   1.5875
     1.6704   1.6884   1.6945   1.7129   1.7159   1.7286   1.7298   1.7331
     1.7829   1.7860   1.7910   1.7924   1.8038   1.8111   1.8123   1.8123
     1.8527   1.8527   1.8958   2.0577   2.0683   2.0970   2.4125   2.4142
     2.4185   2.4187   2.4952   2.4977   2.5590   2.5612   2.5651   2.5657
     2.5801   2.5807   2.7080   2.7105   2.7551   2.7599   2.7781   2.7795
     2.9225   2.9237   3.1691   3.1691   3.1807   3.1859   3.3921   3.4144
     3.5810   3.6692   3.6780   3.9087   3.9219   3.9642   4.0805   4.1003
     4.1032   4.1139   4.3215   4.3253   4.3265   4.3270   4.4946   4.4984
     4.6594   4.6901   4.7664   4.7690   4.9081   5.0613   5.0980   5.1018
     5.3237   5.3570   5.3584   5.3597   5.3602   5.4279   5.5182   5.6548
     5.6852   5.7258   5.7793   5.7945   6.3809   6.3887   6.4152   6.4267
     6.4394   6.4425   6.5535   6.5562   6.6610   6.6671   6.7976   6.8081
     6.9891   7.0145   7.0341   7.0469   7.0659   7.0799   7.1102   7.1223
     7.1279   7.1319   7.2232   7.3392   7.3402   7.3799   7.4059   7.4187
     7.5507   7.6070   7.6907   7.6993   7.7357   7.7512   8.1425   8.1431
     8.3348   8.3559   8.3766   8.4229   8.4270   8.4297   8.4321   8.4468
     8.4491   8.4873   8.6410   8.6507   8.7088   8.7128   8.7178   8.7203
     8.7571   8.7624   8.8594   8.9167   8.9394   9.0176   9.0257   9.0564
     9.1439   9.1511   9.2347   9.2420   9.2813   9.3152   9.3841   9.3843
     9.3863   9.3864   9.4588   9.4593   9.4806   9.4816   9.4900   9.4932
     9.6622   9.6665   9.7858   9.7865   9.8081   9.8888   9.8891

          k = 0.2500 0.0000 0.0000 (256240 PWs)   bands (ev):

   -17.2290 -16.1276 -15.9650 -15.6610 -15.1446 -15.0055 -14.9441 -14.8928
   -14.1131 -13.9538 -13.7681 -13.2447 -13.1739 -13.0919 -13.0441 -12.3466
   -12.2358 -12.1493 -12.0769 -11.2363 -11.1405 -10.7874 -10.6733 -10.3595
   -10.2236  -9.9553  -9.9031  -9.5081  -9.2548  -9.1589  -8.6800  -7.9909
    -7.7957  -7.7295  -7.5637  -7.5438  -7.4449  -7.0932  -6.9772  -6.3013
    -6.2202  -6.0430  -5.9678  -5.9142  -5.8426  -5.4537  -5.3334  -5.3102
    -5.3012  -5.1725  -4.9227  -4.7470  -4.6312  -4.5443  -4.4673  -4.4662
    -4.4626  -4.4273  -4.3695  -4.2249  -4.1398  -4.0027  -4.0001  -3.9968
    -3.9087  -3.8454  -3.8411  -3.8064  -3.7951  -3.6263  -3.6001  -3.5725
    -3.5239  -3.4854  -3.4065  -3.4047  -3.2808  -3.2354  -3.2132  -3.1967
    -3.1417  -3.0378  -2.9569  -2.8954  -2.8006  -2.7994  -2.7906  -2.7526
    -2.6537  -2.6285  -2.6212  -2.5056  -2.4018  -2.3954  -2.3483  -2.3382
    -2.1337  -2.0999  -2.0972  -2.0822  -2.0811  -2.0577  -2.0048  -1.9906
    -1.9811  -1.8994  -1.8947  -1.8424  -1.8030  -1.8022  -1.8005  -1.7946
    -1.7935  -1.7825  -1.7743  -1.7465  -1.7348  -1.7266  -1.7195  -1.7180
    -1.7096  -1.6543  -1.6470  -1.6037  -1.5914  -1.5836  -1.5816  -1.5793
    -1.5788  -1.5784  -1.5498  -1.5220  -1.5165  -1.5046  -1.5027  -1.4907
    -1.4900  -1.3731  -1.3363  -1.3306  -1.3136  -1.2785  -1.2709  -1.2596
    -1.2446  -1.2437  -1.2384  -1.2369  -1.2299  -1.2210  -1.2083  -1.1957
    -1.1921  -1.1857  -1.1843  -1.1790  -1.1586  -1.1417  -1.1364  -1.1351
    -1.1342  -1.1316  -1.1163  -1.1120  -1.1115  -1.0913  -1.0776  -1.0700
    -1.0521  -1.0500  -1.0473  -1.0472  -1.0409  -1.0215  -1.0143  -1.0123
    -1.0032  -1.0026  -0.9973  -0.9916  -0.9825  -0.9819  -0.9818  -0.9807
    -0.9766  -0.9763  -0.9649  -0.9550  -0.9515  -0.9482  -0.9457  -0.9412
    -0.9195  -0.9025  -0.9014  -0.8964  -0.8535  -0.8528  -0.8170  -0.8168
    -0.7974  -0.7965  -0.7865  -0.7715  -0.7712  -0.7582  -0.7553  -0.7530
    -0.7506  -0.7432  -0.7422  -0.7229  -0.6079  -0.6025  -0.5997  -0.5981
    -0.5690  -0.5679  -0.5672  -0.5515  -0.5506  -0.5502  -0.5488  -0.5397
    -0.5315  -0.5275  -0.5275  -0.5199  -0.5183  -0.5055  -0.4955  -0.4895
    -0.4856  -0.4853  -0.4826  -0.4816  -0.4613  -0.4613  -0.4581  -0.4030
    -0.4001  -0.4001  -0.3986  -0.3920  -0.3901  -0.3872  -0.3810  -0.3773
    -0.3571  -0.3571  -0.3399  -0.3344  -0.3337  -0.3301  -0.3287  -0.3083
    -0.2956  -0.2954  -0.2925  -0.2917  -0.2825  -0.2807  -0.2715  -0.2698
    -0.2661  -0.2601  -0.2490  -0.2398  -0.2306  -0.2190  -0.2043  -0.2020
    -0.1995  -0.1969  -0.1918  -0.1833  -0.1809  -0.1806  -0.1791  -0.1690
    -0.1527  -0.1526  -0.1400  -0.1379  -0.1348  -0.1279  -0.1129  -0.1114
    -0.1113  -0.0664  -0.0648  -0.0639  -0.0564  -0.0555  -0.0455  -0.0350
    -0.0202  -0.0183  -0.0129  -0.0124  -0.0112  -0.0071  -0.0011   0.0009
     0.0033   0.0046   0.0054   0.0068   0.0076   0.0122   0.0219   0.0326
     0.0329   0.0357   0.0389   0.0434   0.0579   0.0585   0.0594   0.0744
     0.0759   0.0901   0.1135   0.1140   0.1160   0.1162   0.1179   0.1346
     0.1376   0.1408   0.1413   0.1416   0.1417   0.1718   0.1767   0.1816
     0.1970   0.2528   0.2532   0.2544   0.2670   0.2697   0.2738   0.2742
     0.2763   0.2778   0.2818   0.2822   0.2835   0.2864   0.2870   0.2881
     0.2947   0.3054   0.3064   0.3066   0.3085   0.3201   0.3207   0.3255
     0.3283   0.3329   0.3351   0.3578   0.3582   0.3614   0.3724   0.3877
     0.3959   0.4046   0.4130   0.4242   0.4243   0.4427   0.4427   0.4433
     0.4464   0.4567   0.4573   0.4765   0.4791   0.4800   0.4847   0.4850
     0.4905   0.4909   0.4952   0.4955   0.5159   0.5216   0.5234   0.5339
     0.5405   0.5438   0.5439   0.5504   0.5509   0.5510   0.5536   0.5551
     0.5737   0.5790   0.5792   0.5908   0.5918   0.5925   0.5937   0.5960
     0.6093   0.6097   0.6129   0.6170   0.6174   0.6367   0.6371   0.6528
     0.6566   0.6628   0.6632   0.6653   0.6687   0.6708   0.6766   0.6899
     0.7003   0.7044   0.7233   0.7284   0.7398   0.7401   0.7439   0.7444
     0.7453   0.7502   0.7649   0.7704   0.7733   0.7777   0.7780   0.7870
     0.7880   0.8012   0.8029   0.8135   0.8151   0.8237   0.8239   0.8249
     0.8471   0.8513   0.8540   0.8558   0.8566   0.8786   0.8802   0.8904
     0.8924   0.8928   0.8935   0.8968   0.8986   0.9032   0.9043   0.9048
     0.9297   0.9385   0.9454   0.9464   0.9538   0.9540   0.9579   0.9669
     0.9694   0.9889   0.9901   0.9913   0.9923   0.9982   1.0003   1.0016
     1.0146   1.0163   1.0177   1.0182   1.0190   1.0214   1.0217   1.0234
     1.0252   1.0298   1.0322   1.0339   1.0394   1.0436   1.0561   1.0578
     1.0600   1.0628   1.0674   1.0683   1.0685   1.0754   1.0759   1.0895
     1.0899   1.1031   1.1066   1.1069   1.1080   1.1108   1.1207   1.1295
     1.1344   1.1357   1.1382   1.1428   1.1493   1.1521   1.1564   1.1569
     1.1582   1.1674   1.1831   1.1881   1.1895   1.1914   1.1916   1.2231
     1.2300   1.2321   1.2398   1.2415   1.2443   1.2497   1.2521   1.2526
     1.2538   1.2590   1.2618   1.2735   1.2744   1.2783   1.2785   1.2819
     1.2949   1.2962   1.2999   1.3001   1.3053   1.3104   1.3112   1.3132
     1.3138   1.3159   1.3162   1.3201   1.3232   1.3236   1.3318   1.3371
     1.3450   1.3485   1.3502   1.3511   1.3549   1.3552   1.3594   1.3638
     1.3726   1.3793   1.3795   1.3807   1.4028   1.4029   1.4113   1.4165
     1.4178   1.4217   1.4224   1.4247   1.4258   1.4263   1.4329   1.4333
     1.4341   1.4393   1.4402   1.4438   1.4594   1.4622   1.4626   1.4637
     1.4650   1.4689   1.4692   1.4821   1.4825   1.4903   1.4918   1.4971
     1.5054   1.5056   1.5075   1.5119   1.5137   1.5200   1.5451   1.5489
     1.5519   1.5739   1.5810   1.6227   1.6243   1.6270   1.6370   1.6542
     1.6643   1.7415   1.7549   1.7612   1.7619   1.7813   1.7894   1.7987
     1.8361   1.9601   2.0294   2.0607   2.0679   2.0794   2.0846   2.0873
     2.1888   2.2476   2.2514   2.5577   2.5615   2.5630   2.5661   2.9746
     2.9747   3.0077   3.1925   3.1928   3.2172   3.2172   3.2685   3.2721
     3.4545   3.4661   3.5640   3.5791   3.6116   3.6276   3.6528   3.6984
     3.7034   3.7168   3.7201   3.7782   3.8684   3.8698   3.9665   3.9690
     4.0502   4.1777   4.1813   4.1924   4.2797   4.3215   4.4169   4.5485
     4.7519   4.8199   4.8260   5.0816   5.1598   5.2172   5.2180   5.2281
     5.2558   5.3528   5.4599   5.4658   5.5054   5.5449   5.5738   5.5990
     5.6581   5.6786   5.6894   5.7305   5.7367   5.7987   5.8220   5.8239
     6.0072   6.0099   6.0214   6.0403   6.4339   6.5975   6.6732   6.6945
     6.6997   6.7482   6.7558   6.7655   6.8649   6.9520   7.0142   7.0326
     7.0498   7.0513   7.0655   7.2330   7.2401   7.2980   7.3023   7.4934
     7.5151   7.5222   7.5510   7.5686   7.6798   7.7597   7.7629   7.7917
     7.9947   8.0006   8.0368   8.0613   8.0965   8.1842   8.2068   8.2137
     8.2309   8.2718   8.3113   8.3117   8.3911   8.3942   8.4444   8.4708
     8.6426   8.6445   8.9407   8.9589   8.9836   8.9865   9.0074   9.1428
     9.1679   9.1885   9.2100   9.2258   9.2278   9.2550   9.2654   9.3373
     9.4013   9.4055   9.4397   9.4425   9.4846   9.5119   9.6432   9.6793
     9.7144   9.7189   9.8232   9.8307   9.8366   9.8458   9.9418

          k = 0.2500-0.2165 0.0000 (256316 PWs)   bands (ev):

   -17.2287 -16.1784 -15.8740 -15.5396 -15.4570 -15.1906 -14.7131 -14.5639
   -14.2544 -14.1153 -13.7211 -13.2686 -13.2495 -13.1606 -12.7668 -12.6622
   -12.1503 -12.0266 -11.5093 -11.4304 -11.2835 -11.1257 -10.9612 -10.6229
    -9.8684  -9.7863  -9.3904  -9.3557  -9.1025  -9.0509  -8.6745  -8.6253
    -8.4730  -8.4244  -7.3021  -7.0269  -6.8300  -6.6716  -6.5982  -6.5027
    -6.4501  -6.3181  -6.0841  -6.0315  -5.7147  -5.7049  -5.4267  -5.2545
    -5.1746  -5.0706  -4.9349  -4.8023  -4.6782  -4.6755  -4.5446  -4.5405
    -4.4760  -4.3495  -4.3464  -4.3170  -4.1860  -4.1595  -4.1476  -4.0560
    -3.9022  -3.7654  -3.7632  -3.7385  -3.5853  -3.5622  -3.5011  -3.4600
    -3.4587  -3.4554  -3.3609  -3.2921  -3.2538  -3.1946  -3.1428  -3.1021
    -3.0291  -2.9451  -2.9407  -2.9249  -2.9125  -2.9099  -2.8658  -2.8170
    -2.6933  -2.6553  -2.6078  -2.5059  -2.3328  -2.3143  -2.3121  -2.2686
    -2.1872  -2.1814  -2.1694  -2.1692  -2.1031  -2.0685  -2.0104  -2.0101
    -1.9777  -1.9747  -1.9720  -1.9695  -1.8932  -1.8300  -1.8228  -1.8135
    -1.8135  -1.7796  -1.7611  -1.7529  -1.7344  -1.7249  -1.7206  -1.7104
    -1.7101  -1.6936  -1.6795  -1.6782  -1.6770  -1.6768  -1.6679  -1.6678
    -1.5830  -1.5828  -1.5526  -1.4697  -1.4676  -1.3788  -1.3697  -1.3677
    -1.3616  -1.3307  -1.3304  -1.2782  -1.2780  -1.2699  -1.2634  -1.2633
    -1.2501  -1.2496  -1.2417  -1.2404  -1.2257  -1.2251  -1.2137  -1.2135
    -1.2116  -1.2043  -1.2020  -1.2000  -1.1879  -1.1877  -1.1727  -1.1342
    -1.1315  -1.1273  -1.1264  -1.1216  -1.1160  -1.1149  -1.1114  -1.0941
    -1.0840  -1.0823  -1.0404  -1.0402  -1.0363  -1.0301  -1.0268  -1.0247
    -0.9971  -0.9969  -0.9742  -0.9732  -0.9627  -0.9623  -0.9600  -0.9568
    -0.9564  -0.9537  -0.9492  -0.9327  -0.9249  -0.9247  -0.9119  -0.9057
    -0.8827  -0.8687  -0.8684  -0.8631  -0.8628  -0.8243  -0.7789  -0.7787
    -0.7745  -0.7744  -0.7708  -0.7699  -0.7238  -0.7227  -0.7153  -0.7131
    -0.7127  -0.7068  -0.7066  -0.6951  -0.6948  -0.6787  -0.6534  -0.6527
    -0.6161  -0.6152  -0.5828  -0.5688  -0.5671  -0.5671  -0.5645  -0.5621
    -0.5344  -0.5339  -0.5215  -0.5211  -0.5025  -0.5014  -0.4920  -0.4900
    -0.4892  -0.4746  -0.4612  -0.4595  -0.4508  -0.4502  -0.4436  -0.4434
    -0.4127  -0.4087  -0.4086  -0.3970  -0.3940  -0.3889  -0.3819  -0.3813
    -0.3686  -0.3681  -0.3641  -0.3637  -0.3581  -0.3567  -0.3526  -0.3525
    -0.3347  -0.3344  -0.3182  -0.3182  -0.2954  -0.2898  -0.2767  -0.2747
    -0.2621  -0.2576  -0.2408  -0.2406  -0.2361  -0.2316  -0.2186  -0.2181
    -0.2138  -0.2136  -0.1902  -0.1819  -0.1590  -0.1548  -0.1535  -0.1186
    -0.1184  -0.1096  -0.1096  -0.1056  -0.1046  -0.0881  -0.0881  -0.0856
    -0.0708  -0.0705  -0.0609  -0.0577  -0.0490  -0.0487  -0.0436  -0.0432
    -0.0416  -0.0410  -0.0160  -0.0143  -0.0131  -0.0063  -0.0047  -0.0037
    -0.0031  -0.0019  -0.0014   0.0006   0.0058   0.0067   0.0258   0.0306
     0.0309   0.0310   0.0312   0.0641   0.0649   0.0724   0.0730   0.0734
     0.0768   0.0923   0.0983   0.0994   0.1224   0.1309   0.1311   0.1343
     0.1397   0.1404   0.1510   0.1512   0.1542   0.1549   0.1683   0.1683
     0.1743   0.1754   0.2040   0.2043   0.2671   0.2681   0.2807   0.2809
     0.2823   0.2825   0.2856   0.2862   0.2876   0.2880   0.2919   0.2926
     0.3140   0.3163   0.3164   0.3189   0.3197   0.3267   0.3290   0.3303
     0.3336   0.3337   0.3650   0.3663   0.3779   0.3802   0.3813   0.3942
     0.3999   0.4017   0.4148   0.4420   0.4430   0.4467   0.4497   0.4504
     0.4567   0.4568   0.4682   0.4683   0.4748   0.4778   0.4795   0.4802
     0.4807   0.4813   0.5021   0.5116   0.5123   0.5175   0.5232   0.5336
     0.5339   0.5549   0.5663   0.5666   0.5671   0.5684   0.5981   0.6003
     0.6028   0.6037   0.6069   0.6079   0.6113   0.6138   0.6238   0.6256
     0.6273   0.6281   0.6324   0.6356   0.6474   0.6477   0.6586   0.6597
     0.6673   0.6673   0.6703   0.6703   0.6772   0.6793   0.6810   0.6846
     0.6883   0.6886   0.7010   0.7047   0.7090   0.7100   0.7150   0.7156
     0.7177   0.7185   0.7197   0.7208   0.7545   0.7553   0.7664   0.7668
     0.7843   0.7862   0.8031   0.8054   0.8223   0.8226   0.8240   0.8240
     0.8298   0.8300   0.8442   0.8528   0.8531   0.8534   0.8536   0.8546
     0.8551   0.8616   0.8699   0.8752   0.8820   0.8830   0.8890   0.8943
     0.8982   0.9044   0.9276   0.9278   0.9309   0.9408   0.9495   0.9510
     0.9579   0.9585   0.9634   0.9637   0.9703   0.9704   0.9749   0.9898
     1.0005   1.0021   1.0109   1.0164   1.0177   1.0255   1.0303   1.0367
     1.0462   1.0583   1.0607   1.0636   1.0783   1.0797   1.0859   1.0861
     1.0885   1.0888   1.0901   1.0901   1.0944   1.0946   1.1039   1.1045
     1.1112   1.1141   1.1157   1.1173   1.1349   1.1362   1.1623   1.1647
     1.1657   1.1690   1.1698   1.1720   1.1739   1.1748   1.1805   1.1833
     1.1870   1.1898   1.1899   1.1908   1.1941   1.1954   1.1999   1.2015
     1.2073   1.2082   1.2163   1.2200   1.2225   1.2227   1.2238   1.2239
     1.2356   1.2362   1.2435   1.2444   1.2670   1.2684   1.2763   1.2772
     1.2808   1.2903   1.2924   1.2951   1.3037   1.3093   1.3095   1.3128
     1.3181   1.3211   1.3301   1.3302   1.3338   1.3358   1.3421   1.3445
     1.3469   1.3471   1.3563   1.3588   1.3596   1.3698   1.3776   1.3799
     1.3804   1.3806   1.3855   1.3864   1.3905   1.3911   1.3945   1.4042
     1.4044   1.4086   1.4092   1.4170   1.4182   1.4210   1.4270   1.4326
     1.4362   1.4365   1.4366   1.4405   1.4433   1.4434   1.4442   1.4469
     1.4526   1.4526   1.4774   1.4774   1.4852   1.4853   1.4953   1.5000
     1.5113   1.5180   1.5254   1.5259   1.5280   1.5488   1.5491   1.5559
     1.5562   1.5793   1.5814   1.5882   1.6150   1.6451   1.6608   1.6622
     1.7131   1.7480   1.7576   1.7633   1.7671   1.7818   1.7831   1.7847
     1.7855   1.8097   1.8346   1.8423   2.1235   2.1244   2.1559   2.1563
     2.2814   2.2857   2.5814   2.5823   2.7773   2.7825   2.7862   2.7867
     2.7979   2.7993   2.8268   2.8308   2.9801   2.9810   3.0680   3.0779
     3.5244   3.5349   3.5875   3.6032   3.6501   3.6740   3.7760   3.8347
     3.8393   3.8435   3.8614   3.9889   3.9920   4.0567   4.0852   4.1585
     4.1610   4.3193   4.3708   4.3719   4.4244   4.5421   4.5432   4.6158
     4.6624   4.6718   4.7081   4.7190   4.9158   4.9243   4.9975   5.0184
     5.0250   5.1276   5.2588   5.2780   5.3930   5.4332   5.4386   5.4491
     5.4521   5.4714   5.7504   5.7576   5.8031   5.8795   5.8889   5.9472
     5.9548   5.9711   6.5828   6.5881   6.6042   6.6106   6.7268   6.7445
     6.8074   6.8500   6.8672   7.0187   7.0269   7.0452   7.0836   7.0882
     7.1008   7.1136   7.1881   7.2108   7.2138   7.3208   7.3244   7.3279
     7.3335   7.3964   7.4361   7.4366   7.6555   7.6621   7.7596   7.7836
     7.7898   7.8646   7.9755   7.9793   8.1858   8.1901   8.2320   8.2481
     8.2668   8.3887   8.5797   8.5828   8.5943   8.6038   8.6358   8.6375
     8.7037   8.7050   8.8024   8.8153   8.8994   8.9098   8.9392   8.9427
     9.0721   9.1168   9.1337   9.1477   9.1661   9.1758   9.1894   9.2053
     9.2134   9.2635   9.2673   9.3026   9.3408   9.3519   9.4251   9.4406
     9.4471   9.4787   9.6259   9.6267   9.9555   9.9568   9.9679

          k =-0.5000 0.0000 0.0000 (256496 PWs)   bands (ev):

   -17.1679 -16.0084 -15.7407 -15.6293 -15.6091 -15.5602 -14.8125 -14.6171
   -14.5142 -14.4812 -13.2076 -12.9074 -12.7637 -12.7022 -12.4507 -12.4339
   -11.9132 -11.8906 -11.8072 -11.7993 -11.2430 -11.2054 -10.9813 -10.7499
   -10.3349 -10.3031 -10.0786  -9.7611  -9.1468  -9.1450  -8.9792  -8.9455
    -7.8174  -7.6348  -7.5875  -7.4112  -7.3689  -7.3439  -6.3086  -6.2255
    -5.8451  -5.3240  -5.3180  -5.3096  -5.1444  -5.0044  -4.9657  -4.8665
    -4.8079  -4.8049  -4.8022  -4.8016  -4.7790  -4.7624  -4.7382  -4.6913
    -4.6654  -4.5430  -4.5398  -4.4710  -4.3803  -4.3770  -4.2894  -4.0518
    -4.0177  -3.9975  -3.9722  -3.9609  -3.6900  -3.6783  -3.6034  -3.5755
    -3.5729  -3.5556  -3.4270  -3.4212  -3.4204  -3.4195  -3.4193  -3.4107
    -3.3764  -3.3646  -2.9403  -2.9371  -2.8950  -2.8527  -2.8105  -2.7889
    -2.7672  -2.7607  -2.6251  -2.6099  -2.5661  -2.4789  -2.4511  -2.4401
    -2.3096  -2.3052  -2.3021  -2.3010  -1.8802  -1.8798  -1.8794  -1.8791
    -1.8773  -1.8772  -1.8670  -1.8192  -1.7799  -1.7599  -1.7571  -1.7559
    -1.6831  -1.6521  -1.6514  -1.6511  -1.6510  -1.6034  -1.6031  -1.6018
    -1.6016  -1.5128  -1.5066  -1.4893  -1.4888  -1.4845  -1.4789  -1.4513
    -1.4330  -1.4270  -1.4259  -1.4257  -1.4072  -1.4071  -1.3599  -1.3581
    -1.3569  -1.3550  -1.3546  -1.3433  -1.3424  -1.3423  -1.3383  -1.3375
    -1.2956  -1.2931  -1.2915  -1.2913  -1.2703  -1.2689  -1.2687  -1.2684
    -1.2314  -1.2053  -1.2052  -1.1839  -1.1834  -1.1829  -1.1826  -1.1594
    -1.1563  -1.1552  -1.1534  -1.1525  -1.1513  -1.1510  -1.1089  -1.1086
    -1.1080  -1.1076  -1.0870  -1.0866  -1.0682  -1.0564  -1.0564  -1.0531
    -1.0102  -1.0101  -1.0092  -0.9819  -0.9818  -0.9803  -0.9802  -0.9557
    -0.9538  -0.9535  -0.9520  -0.9492  -0.9466  -0.9449  -0.9323  -0.9321
    -0.9303  -0.9300  -0.9046  -0.9031  -0.8892  -0.8415  -0.8404  -0.8390
    -0.8385  -0.7954  -0.7953  -0.7139  -0.7124  -0.7121  -0.7120  -0.7057
    -0.6904  -0.6751  -0.6737  -0.6736  -0.6728  -0.6726  -0.6689  -0.6640
    -0.6407  -0.6327  -0.6325  -0.6320  -0.6241  -0.6193  -0.6112  -0.6043
    -0.6011  -0.5998  -0.5725  -0.5304  -0.5213  -0.5117  -0.4843  -0.4736
    -0.4666  -0.4649  -0.4571  -0.4570  -0.4321  -0.4167  -0.4133  -0.4109
    -0.4067  -0.4067  -0.4053  -0.4051  -0.3938  -0.3819  -0.3691  -0.3686
    -0.3685  -0.3684  -0.3301  -0.3299  -0.3292  -0.3290  -0.3148  -0.2964
    -0.2963  -0.2963  -0.2957  -0.2847  -0.2847  -0.2527  -0.2518  -0.2518
    -0.2504  -0.2503  -0.2473  -0.2411  -0.2288  -0.2190  -0.2034  -0.2016
    -0.1738  -0.1369  -0.1366  -0.1360  -0.1344  -0.1295  -0.1293  -0.1286
    -0.1285  -0.0891  -0.0888  -0.0873  -0.0869  -0.0672  -0.0530  -0.0524
    -0.0265  -0.0263  -0.0244  -0.0242  -0.0225  -0.0224  -0.0222  -0.0213
    -0.0207  -0.0206  -0.0201  -0.0196   0.0549   0.0568   0.0609   0.0631
     0.0653   0.0654   0.0713   0.0716   0.0719   0.0720   0.0767   0.0770
     0.0790   0.0791   0.0826   0.0838   0.0871   0.0874   0.1014   0.1014
     0.1135   0.1155   0.1159   0.1160   0.1161   0.1162   0.1179   0.1267
     0.1272   0.1273   0.1277   0.1385   0.1404   0.1409   0.1523   0.1523
     0.1526   0.1527   0.1744   0.1825   0.1831   0.1974   0.2442   0.2525
     0.2850   0.2853   0.2873   0.2874   0.3186   0.3189   0.3193   0.3194
     0.3339   0.3339   0.3393   0.3395   0.3441   0.3442   0.3452   0.3455
     0.3480   0.3490   0.3514   0.3515   0.3519   0.3525   0.3659   0.3660
     0.3748   0.3773   0.3782   0.3788   0.3885   0.3889   0.3946   0.3948
     0.4010   0.4016   0.4348   0.4377   0.4909   0.4912   0.4912   0.4917
     0.4992   0.5004   0.5216   0.5233   0.5249   0.5257   0.5282   0.5286
     0.5290   0.5293   0.5320   0.5326   0.5335   0.5343   0.5367   0.5368
     0.5438   0.5444   0.5448   0.5449   0.5617   0.5653   0.5825   0.5828
     0.5898   0.6018   0.6078   0.6094   0.6166   0.6174   0.6200   0.6208
     0.6298   0.6299   0.6304   0.6305   0.6330   0.6331   0.6475   0.6479
     0.6498   0.6502   0.6671   0.6675   0.6676   0.6678   0.7049   0.7052
     0.7059   0.7060   0.7065   0.7067   0.7245   0.7248   0.7519   0.7557
     0.7636   0.7652   0.7663   0.7668   0.7669   0.7673   0.7937   0.8079
     0.8275   0.8327   0.8377   0.8386   0.8393   0.8397   0.8406   0.8425
     0.8507   0.8515   0.8519   0.8527   0.8640   0.8641   0.8842   0.8842
     0.8858   0.8860   0.8873   0.8961   0.9048   0.9049   0.9055   0.9060
     0.9068   0.9068   0.9419   0.9446   0.9455   0.9458   0.9626   0.9955
     1.0107   1.0113   1.0123   1.0124   1.0369   1.0450   1.0456   1.0458
     1.0466   1.0482   1.0633   1.0647   1.0748   1.0759   1.0763   1.0827
     1.0911   1.0938   1.1083   1.1087   1.1145   1.1150   1.1157   1.1157
     1.1230   1.1235   1.1242   1.1248   1.1342   1.1342   1.1352   1.1356
     1.1370   1.1372   1.1373   1.1377   1.1714   1.1736   1.1749   1.1750
     1.1916   1.1997   1.2027   1.2030   1.2096   1.2107   1.2112   1.2113
     1.2285   1.2296   1.2337   1.2397   1.2401   1.2404   1.2414   1.2495
     1.2507   1.2511   1.2513   1.2551   1.2605   1.2682   1.2699   1.2716
     1.2975   1.2980   1.3116   1.3126   1.3135   1.3136   1.3138   1.3140
     1.3140   1.3142   1.3235   1.3252   1.3275   1.3276   1.3282   1.3289
     1.3297   1.3303   1.3342   1.3351   1.3406   1.3406   1.3412   1.3414
     1.3483   1.3487   1.3633   1.3635   1.3771   1.3813   1.3832   1.3840
     1.3904   1.3907   1.3920   1.3923   1.4060   1.4088   1.4124   1.4124
     1.4269   1.4279   1.4327   1.4344   1.4391   1.4467   1.4471   1.4472
     1.4480   1.4648   1.4668   1.4679   1.4690   1.4709   1.4777   1.4778
     1.4783   1.4784   1.4842   1.4862   1.4970   1.4974   1.5118   1.5119
     1.5120   1.5122   1.5123   1.5243   1.5252   1.5254   1.5738   1.5748
     1.5986   1.6053   1.6054   1.6097   1.6101   1.6207   2.0232   2.0267
     2.0284   2.0289   2.2304   2.2322   2.2462   2.2503   2.2827   2.2829
     2.2898   2.2900   2.6045   2.6131   2.6145   2.6149   2.8260   2.8275
     2.8318   2.8332   3.1797   3.1820   3.1852   3.1857   3.4644   3.4673
     3.7191   3.7503   3.7532   3.7539   3.8633   3.9163   3.9184   3.9218
     3.9440   4.0661   4.0685   4.0705   4.0863   4.1791   4.1834   4.3871
     4.3920   4.4845   4.7237   4.7395   4.7419   4.7463   4.8030   4.8229
     4.8239   4.8521   4.9289   5.0185   5.0190   5.0376   5.0403   5.0459
     5.0473   5.0495   5.0686   5.0698   5.1007   5.1029   5.1511   5.1545
     5.4777   5.5154   5.5291   5.5307   5.6496   5.6617   5.7587   5.8264
     5.9857   5.9887   5.9917   5.9991   6.0293   6.0337   6.0399   6.0424
     6.1994   6.3890   6.4147   6.4275   6.4388   6.4517   6.4566   6.4666
     7.0856   7.0918   7.1051   7.1083   7.1128   7.1199   7.5719   7.5797
     7.5968   7.5976   7.5991   7.5998   7.6203   7.6246   7.8127   7.8152
     7.8792   7.8825   7.8838   7.8840   8.0379   8.0514   8.0529   8.0548
     8.1158   8.1216   8.1251   8.1316   8.1592   8.1964   8.6484   8.6896
     8.6931   8.7075   8.8240   8.8265   8.8290   8.8302   8.9700   8.9860
     8.9919   9.0635   9.0639   9.0686   9.0870   9.2575   9.2586   9.3735
     9.4240   9.4454   9.4916   9.4940   9.4949   9.4957   9.5082   9.5112
     9.5185   9.5199   9.5285   9.5308   9.8245   9.8316  10.0195

          k =-0.5000-0.2165 0.0000 (256328 PWs)   bands (ev):

   -17.1678 -15.9761 -15.8195 -15.7961 -15.3893 -15.2185 -15.1507 -15.1142
   -14.0570 -13.8400 -13.7090 -13.6730 -12.6785 -12.4566 -12.0041 -11.9964
   -11.9174 -11.7752 -11.6754 -11.5883 -11.5366 -11.5334 -11.4236 -11.4062
   -10.0435 -10.0374  -9.7690  -9.7234  -9.2280  -8.9100  -8.7955  -8.7610
    -8.2693  -8.2309  -8.0220  -7.9993  -6.5322  -6.3434  -6.1229  -5.9494
    -5.8396  -5.6249  -5.3891  -5.3124  -5.3047  -5.2172  -5.2152  -5.1823
    -5.1802  -5.1800  -5.0182  -5.0057  -4.9550  -4.5110  -4.3846  -4.3516
    -4.3290  -4.3192  -4.2627  -4.2141  -4.2014  -4.1991  -4.1983  -4.1981
    -4.0801  -4.0753  -3.9145  -3.8769  -3.8649  -3.8586  -3.7540  -3.7449
    -3.7030  -3.6892  -3.6016  -3.5922  -3.5862  -3.4867  -3.4677  -3.4569
    -3.1736  -3.0871  -3.0729  -3.0622  -2.6377  -2.5840  -2.5816  -2.5796
    -2.5795  -2.5793  -2.5453  -2.5296  -2.5247  -2.5234  -2.4069  -2.3529
    -2.1628  -2.1520  -2.1093  -2.1011  -2.0975  -2.0964  -2.0512  -2.0502
    -2.0205  -2.0188  -2.0176  -2.0106  -1.9364  -1.8038  -1.8034  -1.8029
    -1.8023  -1.7726  -1.7404  -1.7283  -1.5684  -1.5238  -1.5092  -1.5027
    -1.4941  -1.4940  -1.4940  -1.4940  -1.4599  -1.4570  -1.4543  -1.4542
    -1.4343  -1.4341  -1.4339  -1.4337  -1.3849  -1.3847  -1.3846  -1.3844
    -1.3830  -1.3826  -1.3825  -1.3821  -1.3592  -1.3592  -1.3590  -1.3590
    -1.3100  -1.3091  -1.3083  -1.3077  -1.3062  -1.2384  -1.2341  -1.2333
    -1.2331  -1.1917  -1.1915  -1.1915  -1.1914  -1.1745  -1.1721  -1.1716
    -1.1715  -1.1282  -1.1227  -1.1224  -1.1223  -1.1176  -1.1164  -1.1163
    -1.1162  -1.1117  -1.0965  -1.0926  -1.0911  -1.0869  -1.0579  -1.0577
    -1.0575  -1.0573  -1.0416  -1.0409  -1.0407  -1.0405  -1.0390  -1.0379
    -1.0376  -1.0375  -1.0372  -1.0086  -0.8832  -0.8829  -0.8828  -0.8823
    -0.8539  -0.8535  -0.8532  -0.8532  -0.8023  -0.7718  -0.7706  -0.7704
    -0.7701  -0.7697  -0.7688  -0.7677  -0.7632  -0.7627  -0.7619  -0.7618
    -0.7045  -0.7008  -0.7008  -0.7005  -0.6937  -0.6898  -0.6892  -0.6885
    -0.6756  -0.6682  -0.6679  -0.6676  -0.6413  -0.5829  -0.5740  -0.5724
    -0.5688  -0.5671  -0.5670  -0.5665  -0.5045  -0.4990  -0.4989  -0.4985
    -0.4958  -0.4499  -0.4495  -0.4491  -0.4464  -0.4290  -0.4286  -0.4283
    -0.4278  -0.4104  -0.4008  -0.4005  -0.3899  -0.3899  -0.3890  -0.3890
    -0.3741  -0.3517  -0.3486  -0.3481  -0.3263  -0.2744  -0.2742  -0.2738
    -0.2736  -0.2583  -0.2582  -0.2577  -0.2576  -0.2420  -0.2412  -0.2409
    -0.2388  -0.1609  -0.1601  -0.1589  -0.1578  -0.1542  -0.1539  -0.1536
    -0.1535  -0.1524  -0.1503  -0.1500  -0.1478  -0.1133  -0.1132  -0.1131
    -0.1131  -0.1010  -0.1007  -0.1005  -0.1000  -0.0973  -0.0965  -0.0963
    -0.0961  -0.0679  -0.0274  -0.0269  -0.0264  -0.0260  -0.0025  -0.0010
     0.0009   0.0024   0.0476   0.0491   0.0507   0.0551   0.0611   0.0639
     0.0788   0.0791   0.0796   0.0796   0.0849   0.0864   0.0870   0.0875
     0.0892   0.0897   0.0913   0.0928   0.0995   0.0996   0.0999   0.1006
     0.1056   0.1057   0.1058   0.1059   0.1171   0.1214   0.1224   0.1226
     0.1374   0.1504   0.1504   0.1504   0.1505   0.1585   0.1606   0.1608
     0.1637   0.2075   0.2099   0.2103   0.2105   0.2192   0.2428   0.2431
     0.2439   0.2486   0.2669   0.2932   0.3099   0.3193   0.3250   0.3263
     0.3277   0.3282   0.3347   0.3417   0.3439   0.3444   0.3459   0.3511
     0.3603   0.3604   0.3609   0.3611   0.3634   0.3661   0.3667   0.3676
     0.3687   0.3690   0.3722   0.3762   0.3772   0.3852   0.4009   0.4014
     0.4454   0.4455   0.4510   0.4516   0.4560   0.4567   0.4576   0.4577
     0.4684   0.4685   0.4687   0.4691   0.5066   0.5071   0.5079   0.5086
     0.5089   0.5091   0.5097   0.5100   0.5413   0.5530   0.5536   0.5537
     0.5539   0.5620   0.5663   0.5669   0.5672   0.5678   0.5681   0.5694
     0.5754   0.5756   0.5758   0.5759   0.5898   0.5907   0.5907   0.5908
     0.6001   0.6025   0.6066   0.6074   0.6650   0.6754   0.6770   0.6773
     0.6787   0.6821   0.6823   0.6825   0.6828   0.6834   0.6887   0.6909
     0.6936   0.7009   0.7064   0.7095   0.7276   0.7281   0.7281   0.7287
     0.7298   0.7300   0.7311   0.7313   0.7796   0.7806   0.7813   0.7822
     0.8026   0.8055   0.8109   0.8112   0.8123   0.8154   0.8283   0.8298
     0.8469   0.8472   0.8473   0.8478   0.8682   0.8705   0.8707   0.8731
     0.9246   0.9247   0.9252   0.9253   0.9573   0.9578   0.9588   0.9589
     1.0019   1.0107   1.0115   1.0117   1.0127   1.0174   1.0245   1.0266
     1.0331   1.0368   1.0375   1.0384   1.0423   1.0435   1.0435   1.0437
     1.0443   1.0461   1.0469   1.0470   1.0482   1.0641   1.0643   1.0706
     1.0744   1.0753   1.0757   1.0767   1.0775   1.0779   1.0799   1.0805
     1.0906   1.0931   1.0946   1.0961   1.1160   1.1185   1.1213   1.1216
     1.1275   1.1288   1.1309   1.1318   1.1400   1.1409   1.1411   1.1415
     1.1867   1.1899   1.1919   1.1931   1.1936   1.1944   1.1953   1.1958
     1.2190   1.2202   1.2204   1.2207   1.2313   1.2346   1.2360   1.2385
     1.2399   1.2423   1.2549   1.2554   1.2694   1.2695   1.2696   1.2701
     1.2777   1.2785   1.2792   1.2798   1.2848   1.2849   1.2856   1.2856
     1.3432   1.3511   1.3517   1.3523   1.3525   1.3532   1.3534   1.3536
     1.3537   1.3577   1.3587   1.3610   1.3670   1.3682   1.3707   1.3719
     1.3786   1.3786   1.3790   1.3802   1.3831   1.3847   1.3850   1.3862
     1.3921   1.3929   1.3929   1.3935   1.3983   1.4009   1.4031   1.4040
     1.4137   1.4138   1.4143   1.4147   1.4467   1.4472   1.4473   1.4473
     1.4598   1.4612   1.4617   1.4630   1.4731   1.4757   1.4775   1.4791
     1.4969   1.4983   1.4997   1.4998   1.5378   1.5451   1.5500   1.5510
     1.5716   1.5719   1.5723   1.5724   1.6013   1.6017   1.6025   1.6031
     1.6047   1.6075   1.6081   1.6085   1.6140   1.6148   1.6149   1.6154
     1.8316   1.8325   1.8330   1.8337   2.3275   2.3361   2.3397   2.3434
     2.5543   2.5552   2.5570   2.5591   2.7857   2.7906   2.7923   2.7929
     3.0757   3.0857   3.0874   3.0885   3.4496   3.4511   3.4514   3.4517
     3.6302   3.6361   3.6392   3.6414   3.9047   3.9263   3.9267   3.9273
     3.9959   4.2227   4.2235   4.2260   4.2300   4.3163   4.3263   4.3309
     4.3391   4.5105   4.5538   4.5551   4.5597   4.5615   4.5866   4.5927
     4.6512   4.7752   4.8466   4.8870   4.8925   5.0183   5.0330   5.0657
     5.1558   5.1646   5.1689   5.1710   5.2236   5.2681   5.2821   5.3019
     5.3294   5.3327   5.3399   5.3475   5.5177   5.5919   5.7278   5.7317
     5.7440   5.7452   5.7471   5.7473   5.8626   5.8739   5.8756   5.8791
     6.7769   6.7820   6.7826   6.7834   7.1053   7.1140   7.1194   7.1215
     7.1391   7.1495   7.1516   7.1521   7.2564   7.2663   7.2699   7.2720
     7.3621   7.3648   7.3656   7.3657   7.5386   7.5985   7.6084   7.6098
     7.6474   7.9004   7.9400   7.9601   7.9674   7.9846   8.0006   8.0042
     8.2263   8.2373   8.2389   8.2430   8.2453   8.2859   8.3599   8.3649
     8.8871   8.8878   8.8901   8.8908   8.9210   8.9215   8.9233   8.9236
     8.9611   8.9629   8.9647   8.9648   9.1056   9.1098   9.1178   9.1181
     9.3063   9.3249   9.3392   9.3449   9.5074   9.5305   9.5339   9.5511
     9.5615   9.5648   9.5695   9.5733   9.9261   9.9385   9.9670

     the Fermi energy is     3.3202 ev

!    total energy              =  -12707.14387583 Ry
     Harris-Foulkes estimate   =  -12707.14387584 Ry
     estimated scf accuracy    <          3.5E-09 Ry

     The total energy is the sum of the following terms:

     one-electron contribution = -109279.47788167 Ry
     hartree contribution      =   56001.12102889 Ry
     xc contribution           =   -4447.77344037 Ry
     ewald contribution        =   45025.32909691 Ry
     Dispersion Correction     =      -2.98700982 Ry
     smearing contrib. (-TS)   =      -3.35566977 Ry

     convergence has been achieved in  46 iterations

     Writing output data file gc.save
 
     init_run     :    101.85s CPU    108.47s WALL (       1 calls)
     electrons    :  12117.52s CPU  12961.09s WALL (       1 calls)

     Called by init_run:
     wfcinit      :     99.57s CPU    105.87s WALL (       1 calls)
     potinit      :      0.36s CPU      0.37s WALL (       1 calls)

     Called by electrons:
     c_bands      :  11075.98s CPU  11815.79s WALL (      46 calls)
     sum_band     :    846.59s CPU    920.00s WALL (      46 calls)
     v_of_rho     :      3.07s CPU      3.79s WALL (      47 calls)
     newd         :      8.69s CPU     14.26s WALL (      47 calls)
     mix_rho      :    183.08s CPU    207.19s WALL (      46 calls)

     Called by c_bands:
     init_us_2    :     38.24s CPU     39.05s WALL (     558 calls)
     cegterg      :  10906.66s CPU  11639.62s WALL (     282 calls)

     Called by sum_band:
     sum_band:bec :      4.87s CPU      5.38s WALL (     276 calls)
     addusdens    :      8.36s CPU     14.01s WALL (      46 calls)

     Called by *egterg:
     h_psi        :   4109.98s CPU   4443.57s WALL (    1821 calls)
     s_psi        :    985.29s CPU    997.07s WALL (    1821 calls)
     g_psi        :     10.43s CPU     10.42s WALL (    1533 calls)
     cdiaghg      :   2946.11s CPU   3057.06s WALL (    1809 calls)

     Called by h_psi:
     add_vuspsi   :    991.26s CPU   1004.45s WALL (    1821 calls)

     General routines
     calbec       :   1421.83s CPU   1432.39s WALL (    2097 calls)
     fft          :      3.65s CPU      4.30s WALL (     610 calls)
     ffts         :    106.78s CPU    120.92s WALL (   28249 calls)
     fftw         :   2376.53s CPU   2644.74s WALL ( 1319452 calls)
     davcio       :      0.22s CPU      4.02s WALL (       6 calls)
 
     Parallel routines
     fft_scatter  :   1551.07s CPU   1697.53s WALL ( 1348311 calls)
 
     PWSCF        :     3h23m CPU        3h37m WALL

 
   This run was terminated on:  19:12: 9  26Mar2017            

=------------------------------------------------------------------------------=
   JOB DONE.
=------------------------------------------------------------------------------=
