
     Program PWSCF v.5.4.0 starts on 20Jan2017 at 22:56:16 

     This program is part of the open-source Quantum ESPRESSO suite
     for quantum simulation of materials; please cite
         "P. Giannozzi et al., J. Phys.:Condens. Matter 21 395502 (2009);
          URL http://www.quantum-espresso.org", 
     in publications or presentations arising from this work. More details at
     http://www.quantum-espresso.org/quote

     Parallel version (MPI & OpenMP), running on      56 processor cores
     Number of MPI processes:                56
     Threads/MPI process:                     1
     R & G space division:  proc/nbgrp/npool/nimage =      56
     Waiting for input...
     Reading input from standard input

     Current dimensions of program PWSCF are:
     Max number of different atomic species (ntypx) = 10
     Max number of k-points (npk) =  40000
     Max angular momentum in pseudopotentials (lmaxx) =  3

     -------------------------------------
     Parameters for Dispersion Correction:
     -------------------------------------
       atom      VdW radius       C_6     

        Cu         2.952        374.666

     Subspace diagonalization in iterative solution of the eigenvalue problem:
     one sub-group per band group will be used
     scalapack distributed-memory algorithm (size of sub-group:  5*  5 procs)

     Found symmetry operation: I + ( -0.5000  0.0000  0.0000)
     This is a supercell, fractional translations are disabled
 
     Parallelization info
     --------------------
     sticks:   dense  smooth     PW     G-vecs:    dense   smooth      PW
     Min         149     149     39                26889    26889    3597
     Max         150     150     40                26910    26910    3604
     Sum        8395    8395   2209              1506531  1506531  201593
 


     bravais-lattice index     =            0
     lattice parameter (alat)  =      19.5171  a.u.
     unit-cell volume          =   15580.7195 (a.u.)^3
     number of atoms/cell      =           64
     number of atomic types    =            1
     number of electrons       =       704.00
     number of Kohn-Sham states=          422
     kinetic-energy cutoff     =      80.0000  Ry
     charge density cutoff     =     320.0000  Ry
     convergence threshold     =      1.0E-08
     mixing beta               =       0.7000
     number of iterations used =            8  plain     mixing
     Exchange-correlation      =  SLA  PW   PBE  PBE ( 1  4  3  4 0 0)
     nstep                     =           50


     celldm(1)=  19.517092  celldm(2)=   0.000000  celldm(3)=   0.000000
     celldm(4)=   0.000000  celldm(5)=   0.000000  celldm(6)=   0.000000

     crystal axes: (cart. coord. in units of alat)
               a(1) = (   1.000000   0.000000   0.000000 )  
               a(2) = (  -0.500000   0.865802   0.000000 )  
               a(3) = (   0.000000   0.000000   2.420604 )  

     reciprocal axes: (cart. coord. in units 2 pi/alat)
               b(1) = (  1.000000  0.577499  0.000000 )  
               b(2) = (  0.000000  1.154999  0.000000 )  
               b(3) = (  0.000000  0.000000  0.413120 )  


     PseudoPot. # 1 for Cu read from file:
     /home/549/hxw549/Short/pseudopotentials/Cu.pbe-n-van_ak.UPF
     MD5 check sum: 601f7c30f7467666bec936e0661ce3e1
     Pseudo is Ultrasoft + core correction, Zval = 11.0
     Generated by new atomic code, or converted to UPF format
     Using radial grid of  867 points,  6 beta functions with: 
                l(1) =   0
                l(2) =   0
                l(3) =   1
                l(4) =   1
                l(5) =   2
                l(6) =   2
     Q(r) pseudized with  8 coefficients,  rinner =    1.400   1.400   1.400
                                                       1.400   1.400

     atomic species   valence    mass     pseudopotential
        Cu            11.00    63.54600     Cu( 1.00)

     No symmetry found



   Cartesian axes

     site n.     atom                  positions (alat units)
         1           Cu  tau(   1) = (   0.0000000   0.0000000   0.7987994  )
         2           Cu  tau(   2) = (   0.5000000   0.0000000   0.7987994  )
         3           Cu  tau(   3) = (  -0.2500000   0.4329009   0.7987994  )
         4           Cu  tau(   4) = (   0.2500000   0.4329009   0.7987994  )
         5           Cu  tau(   5) = (   0.2500000   0.0000000   0.7987994  )
         6           Cu  tau(   6) = (   0.7500000   0.0000000   0.7987994  )
         7           Cu  tau(   7) = (   0.0000000   0.4329009   0.7987994  )
         8           Cu  tau(   8) = (   0.5000000   0.4329009   0.7987994  )
         9           Cu  tau(   9) = (  -0.1250000   0.2164504   0.7987994  )
        10           Cu  tau(  10) = (   0.3750000   0.2164504   0.7987994  )
        11           Cu  tau(  11) = (  -0.3750000   0.6493513   0.7987994  )
        12           Cu  tau(  12) = (   0.1250000   0.6493513   0.7987994  )
        13           Cu  tau(  13) = (   0.1250000   0.2164504   0.7987994  )
        14           Cu  tau(  14) = (   0.6250000   0.2164504   0.7987994  )
        15           Cu  tau(  15) = (  -0.1250000   0.6493513   0.7987994  )
        16           Cu  tau(  16) = (   0.3750000   0.6493513   0.7987994  )
        17           Cu  tau(  17) = (   0.1457500   0.0722944   0.9924477  )
        18           Cu  tau(  18) = (   0.6457500   0.0722944   0.9924477  )
        19           Cu  tau(  19) = (  -0.1042500   0.5051953   0.9924477  )
        20           Cu  tau(  20) = (   0.3957500   0.5051953   0.9924477  )
        21           Cu  tau(  21) = (   0.3957500   0.0722944   0.9924477  )
        22           Cu  tau(  22) = (   0.8957500   0.0722944   0.9924477  )
        23           Cu  tau(  23) = (   0.1457500   0.5051953   0.9924477  )
        24           Cu  tau(  24) = (   0.6457500   0.5051953   0.9924477  )
        25           Cu  tau(  25) = (   0.0207500   0.2887449   0.9924477  )
        26           Cu  tau(  26) = (   0.5207500   0.2887449   0.9924477  )
        27           Cu  tau(  27) = (  -0.2292500   0.7216457   0.9924477  )
        28           Cu  tau(  28) = (   0.2707500   0.7216457   0.9924477  )
        29           Cu  tau(  29) = (   0.2707500   0.2887449   0.9924477  )
        30           Cu  tau(  30) = (   0.7707500   0.2887449   0.9924477  )
        31           Cu  tau(  31) = (   0.0207500   0.7216457   0.9924477  )
        32           Cu  tau(  32) = (   0.5207500   0.7216457   0.9924477  )
        33           Cu  tau(  33) = (   0.2917500   0.1441560   1.1860960  )
        34           Cu  tau(  34) = (   0.7917500   0.1441560   1.1860960  )
        35           Cu  tau(  35) = (   0.0417500   0.5770568   1.1860960  )
        36           Cu  tau(  36) = (   0.5417500   0.5770568   1.1860960  )
        37           Cu  tau(  37) = (   0.0417500   0.1441560   1.1860960  )
        38           Cu  tau(  38) = (   0.5417500   0.1441560   1.1860960  )
        39           Cu  tau(  39) = (  -0.2082500   0.5770568   1.1860960  )
        40           Cu  tau(  40) = (   0.2917500   0.5770568   1.1860960  )
        41           Cu  tau(  41) = (   0.1667500   0.3606064   1.1860960  )
        42           Cu  tau(  42) = (   0.6667500   0.3606064   1.1860960  )
        43           Cu  tau(  43) = (  -0.0832500   0.7935073   1.1860960  )
        44           Cu  tau(  44) = (   0.4167500   0.7935073   1.1860960  )
        45           Cu  tau(  45) = (  -0.0832500   0.3606064   1.1860960  )
        46           Cu  tau(  46) = (   0.4167500   0.3606064   1.1860960  )
        47           Cu  tau(  47) = (  -0.3332500   0.7935073   1.1860960  )
        48           Cu  tau(  48) = (   0.1667500   0.7935073   1.1860960  )
        49           Cu  tau(  49) = (   0.0625000   0.0000000   1.3797444  )
        50           Cu  tau(  50) = (   0.5625000   0.0000000   1.3797444  )
        51           Cu  tau(  51) = (  -0.1875000   0.4329009   1.3797444  )
        52           Cu  tau(  52) = (   0.3125000   0.4329009   1.3797444  )
        53           Cu  tau(  53) = (   0.3125000   0.0000000   1.3797444  )
        54           Cu  tau(  54) = (   0.8125000   0.0000000   1.3797444  )
        55           Cu  tau(  55) = (   0.0625000   0.4329009   1.3797444  )
        56           Cu  tau(  56) = (   0.5625000   0.4329009   1.3797444  )
        57           Cu  tau(  57) = (  -0.0625000   0.2164504   1.3797444  )
        58           Cu  tau(  58) = (   0.4375000   0.2164504   1.3797444  )
        59           Cu  tau(  59) = (  -0.3125000   0.6493513   1.3797444  )
        60           Cu  tau(  60) = (   0.1875000   0.6493513   1.3797444  )
        61           Cu  tau(  61) = (   0.1875000   0.2164504   1.3797444  )
        62           Cu  tau(  62) = (   0.6875000   0.2164504   1.3797444  )
        63           Cu  tau(  63) = (  -0.0625000   0.6493513   1.3797444  )
        64           Cu  tau(  64) = (   0.4375000   0.6493513   1.3797444  )

     number of k points=    34  gaussian smearing, width (Ry)=  0.1000
                       cart. coord. in units 2pi/alat
        k(    1) = (   0.0000000   0.0000000   0.0000000), wk =   0.0312500
        k(    2) = (   0.0000000   0.1443749   0.0000000), wk =   0.0625000
        k(    3) = (   0.0000000   0.2887497   0.0000000), wk =   0.0625000
        k(    4) = (   0.0000000   0.4331246   0.0000000), wk =   0.0625000
        k(    5) = (   0.0000000  -0.5774994   0.0000000), wk =   0.0312500
        k(    6) = (   0.1250000   0.0721874   0.0000000), wk =   0.0625000
        k(    7) = (   0.1250000   0.2165623   0.0000000), wk =   0.0625000
        k(    8) = (   0.1250000   0.3609372   0.0000000), wk =   0.0625000
        k(    9) = (   0.1250000   0.5053120   0.0000000), wk =   0.0625000
        k(   10) = (   0.2500000   0.1443749   0.0000000), wk =   0.0625000
        k(   11) = (   0.2500000   0.2887497   0.0000000), wk =   0.0625000
        k(   12) = (   0.2500000   0.4331246   0.0000000), wk =   0.0625000
        k(   13) = (   0.2500000   0.5774994   0.0000000), wk =   0.0625000
        k(   14) = (   0.2500000   0.0000000   0.0000000), wk =   0.0625000
        k(   15) = (   0.3750000   0.2165623   0.0000000), wk =   0.0625000
        k(   16) = (   0.3750000   0.3609372   0.0000000), wk =   0.0625000
        k(   17) = (   0.3750000   0.5053120   0.0000000), wk =   0.0625000
        k(   18) = (   0.3750000  -0.0721874   0.0000000), wk =   0.0625000
        k(   19) = (  -0.5000000  -0.2887497   0.0000000), wk =   0.0312500
        k(   20) = (  -0.5000000  -0.1443749   0.0000000), wk =   0.0625000
        k(   21) = (  -0.5000000   0.0000000   0.0000000), wk =   0.0625000
        k(   22) = (  -0.1250000   0.0721874   0.0000000), wk =   0.0625000
        k(   23) = (  -0.1250000   0.2165623   0.0000000), wk =   0.0625000
        k(   24) = (  -0.1250000   0.3609372   0.0000000), wk =   0.0625000
        k(   25) = (  -0.1250000   0.5053120   0.0000000), wk =   0.0625000
        k(   26) = (  -0.2500000   0.1443749   0.0000000), wk =   0.0625000
        k(   27) = (  -0.2500000   0.2887497   0.0000000), wk =   0.0625000
        k(   28) = (  -0.2500000   0.4331246   0.0000000), wk =   0.0625000
        k(   29) = (  -0.3750000   0.2165623   0.0000000), wk =   0.0625000
        k(   30) = (  -0.3750000   0.3609372   0.0000000), wk =   0.0625000
        k(   31) = (  -0.3750000   0.5053120   0.0000000), wk =   0.0625000
        k(   32) = (  -0.3750000  -0.0721874   0.0000000), wk =   0.0625000
        k(   33) = (   0.5000000  -0.2887497   0.0000000), wk =   0.0312500
        k(   34) = (   0.5000000  -0.1443749   0.0000000), wk =   0.0625000

     Dense  grid:  1506531 G-vectors     FFT dimensions: ( 120, 120, 270)

     Largest allocated arrays     est. size (Mb)     dimensions
        Kohn-Sham Wavefunctions        21.94 Mb     (    3408,  422)
        NL pseudopotentials            59.91 Mb     (    3408, 1152)
        Each V/rho on FFT grid          1.10 Mb     (   72000)
        Each G-vector array             0.21 Mb     (   26910)
        G-vector shells                 0.10 Mb     (   13326)
     Largest temporary arrays     est. size (Mb)     dimensions
        Auxiliary wavefunctions        87.78 Mb     (    3408, 1688)
        Each subspace H/S matrix        1.73 Mb     (     337,  337)
        Each <psi_i|beta_j> matrix      7.42 Mb     (    1152,  422)
        Arrays for rho mixing           8.79 Mb     (   72000,    8)

     Initial potential from superposition of free atoms
     Check: negative starting charge=   -0.001925

     starting charge  703.24325, renormalised to  704.00000

     negative rho (up, down):  1.927E-03 0.000E+00
     Starting wfc are  576 randomized atomic wfcs

     total cpu time spent up to now is      133.1 secs

     Self-consistent Calculation

     iteration #  1     ecut=    80.00 Ry     beta=0.70
     Davidson diagonalization with overlap
     c_bands:  2 eigenvalues not converged
     c_bands:  1 eigenvalues not converged
     c_bands:  1 eigenvalues not converged
     ethr =  1.00E-04,  avg # of iterations = 12.4

     negative rho (up, down):  1.919E-03 0.000E+00

     total cpu time spent up to now is      921.7 secs

     total energy              =   -7762.54812934 Ry
     Harris-Foulkes estimate   =   -7779.20751869 Ry
     estimated scf accuracy    <      19.94263013 Ry

     iteration #  2     ecut=    80.00 Ry     beta=0.70
     Davidson diagonalization with overlap
     ethr =  2.83E-03,  avg # of iterations = 11.4

     total cpu time spent up to now is     2242.1 secs

     total energy              =   -7537.56125914 Ry
     Harris-Foulkes estimate   =   -7888.71120463 Ry
     estimated scf accuracy    <    8994.94476321 Ry

     iteration #  3     ecut=    80.00 Ry     beta=0.70
     Davidson diagonalization with overlap
     ethr =  2.83E-03,  avg # of iterations =  5.8

     total cpu time spent up to now is     3015.5 secs

     total energy              =   -7770.92149348 Ry
     Harris-Foulkes estimate   =   -7786.86829958 Ry
     estimated scf accuracy    <      43.70100481 Ry

     iteration #  4     ecut=    80.00 Ry     beta=0.70
     Davidson diagonalization with overlap
     ethr =  2.83E-03,  avg # of iterations =  2.9

     total cpu time spent up to now is     3440.9 secs

     total energy              =   -7776.36073411 Ry
     Harris-Foulkes estimate   =   -7776.78441539 Ry
     estimated scf accuracy    <       2.54793282 Ry

     iteration #  5     ecut=    80.00 Ry     beta=0.70
     Davidson diagonalization with overlap
     ethr =  3.62E-04,  avg # of iterations =  2.4

     total cpu time spent up to now is     3733.5 secs

     total energy              =   -7776.51219868 Ry
     Harris-Foulkes estimate   =   -7776.74380617 Ry
     estimated scf accuracy    <       1.24469632 Ry

     iteration #  6     ecut=    80.00 Ry     beta=0.70
     Davidson diagonalization with overlap
     ethr =  1.77E-04,  avg # of iterations =  1.8

     total cpu time spent up to now is     4008.6 secs

     total energy              =   -7776.56140551 Ry
     Harris-Foulkes estimate   =   -7776.61837844 Ry
     estimated scf accuracy    <       0.88192521 Ry

     iteration #  7     ecut=    80.00 Ry     beta=0.70
     Davidson diagonalization with overlap
     ethr =  1.25E-04,  avg # of iterations =  5.5

     total cpu time spent up to now is     4354.0 secs

     total energy              =   -7776.49069181 Ry
     Harris-Foulkes estimate   =   -7776.66744198 Ry
     estimated scf accuracy    <       4.48274724 Ry

     iteration #  8     ecut=    80.00 Ry     beta=0.70
     Davidson diagonalization with overlap
     ethr =  1.25E-04,  avg # of iterations =  3.1

     total cpu time spent up to now is     4655.2 secs

     total energy              =   -7776.55776021 Ry
     Harris-Foulkes estimate   =   -7776.58142905 Ry
     estimated scf accuracy    <       0.98796601 Ry

     iteration #  9     ecut=    80.00 Ry     beta=0.70
     Davidson diagonalization with overlap
     ethr =  1.25E-04,  avg # of iterations =  1.0

     total cpu time spent up to now is     4918.6 secs

     total energy              =   -7776.55695693 Ry
     Harris-Foulkes estimate   =   -7776.56202242 Ry
     estimated scf accuracy    <       0.70974716 Ry

     iteration # 10     ecut=    80.00 Ry     beta=0.70
     Davidson diagonalization with overlap
     ethr =  1.01E-04,  avg # of iterations =  1.0

     total cpu time spent up to now is     5182.0 secs

     total energy              =   -7776.56191086 Ry
     Harris-Foulkes estimate   =   -7776.55768317 Ry
     estimated scf accuracy    <       0.68317421 Ry

     iteration # 11     ecut=    80.00 Ry     beta=0.70
     Davidson diagonalization with overlap
     ethr =  9.70E-05,  avg # of iterations =  1.0

     total cpu time spent up to now is     5445.2 secs

     total energy              =   -7776.30588550 Ry
     Harris-Foulkes estimate   =   -7776.56225317 Ry
     estimated scf accuracy    <       0.72132040 Ry

     iteration # 12     ecut=    80.00 Ry     beta=0.70
     Davidson diagonalization with overlap
     ethr =  9.70E-05,  avg # of iterations = 12.4

     total cpu time spent up to now is     6014.4 secs

     total energy              =   -7776.33079984 Ry
     Harris-Foulkes estimate   =   -7776.42016184 Ry
     estimated scf accuracy    <       0.38663768 Ry

     iteration # 13     ecut=    80.00 Ry     beta=0.70
     Davidson diagonalization with overlap
     ethr =  5.49E-05,  avg # of iterations =  1.4

     total cpu time spent up to now is     6283.7 secs

     total energy              =   -7776.30410701 Ry
     Harris-Foulkes estimate   =   -7776.36415037 Ry
     estimated scf accuracy    <       0.15923996 Ry

     iteration # 14     ecut=    80.00 Ry     beta=0.70
     Davidson diagonalization with overlap
     ethr =  2.26E-05,  avg # of iterations =  9.2

     total cpu time spent up to now is     6964.6 secs

     total energy              =   -7776.27452451 Ry
     Harris-Foulkes estimate   =   -7776.38682374 Ry
     estimated scf accuracy    <       0.59737514 Ry

     iteration # 15     ecut=    80.00 Ry     beta=0.70
     Davidson diagonalization with overlap
     ethr =  2.26E-05,  avg # of iterations =  4.6

     total cpu time spent up to now is     7346.6 secs

     total energy              =   -7776.30066676 Ry
     Harris-Foulkes estimate   =   -7776.36552349 Ry
     estimated scf accuracy    <       0.34801898 Ry

     iteration # 16     ecut=    80.00 Ry     beta=0.70
     Davidson diagonalization with overlap
     ethr =  2.26E-05,  avg # of iterations =  3.7

     negative rho (up, down):  4.670E-06 0.000E+00

     total cpu time spent up to now is     7676.6 secs

     total energy              =   -7776.32552846 Ry
     Harris-Foulkes estimate   =   -7776.33931109 Ry
     estimated scf accuracy    <       0.05624772 Ry

     iteration # 17     ecut=    80.00 Ry     beta=0.70
     Davidson diagonalization with overlap
     ethr =  7.99E-06,  avg # of iterations =  5.6

     negative rho (up, down):  4.665E-07 0.000E+00

     total cpu time spent up to now is     8060.4 secs

     total energy              =   -7776.31312597 Ry
     Harris-Foulkes estimate   =   -7776.35381299 Ry
     estimated scf accuracy    <       0.56634175 Ry

     iteration # 18     ecut=    80.00 Ry     beta=0.70
     Davidson diagonalization with overlap
     ethr =  7.99E-06,  avg # of iterations =  5.1

     negative rho (up, down):  1.163E-03 0.000E+00

     total cpu time spent up to now is     8418.8 secs

     total energy              =   -7776.33064893 Ry
     Harris-Foulkes estimate   =   -7776.33938410 Ry
     estimated scf accuracy    <       0.10831036 Ry

     iteration # 19     ecut=    80.00 Ry     beta=0.70
     Davidson diagonalization with overlap
     ethr =  7.99E-06,  avg # of iterations =  4.8

     negative rho (up, down):  6.181E-04 0.000E+00

     total cpu time spent up to now is     8757.2 secs

     total energy              =   -7776.33207180 Ry
     Harris-Foulkes estimate   =   -7776.33841825 Ry
     estimated scf accuracy    <       0.03538427 Ry

     iteration # 20     ecut=    80.00 Ry     beta=0.70
     Davidson diagonalization with overlap
     ethr =  5.03E-06,  avg # of iterations =  2.2

     negative rho (up, down):  3.735E-04 0.000E+00

     total cpu time spent up to now is     9045.4 secs

     total energy              =   -7776.33462474 Ry
     Harris-Foulkes estimate   =   -7776.33655507 Ry
     estimated scf accuracy    <       0.01064081 Ry

     iteration # 21     ecut=    80.00 Ry     beta=0.70
     Davidson diagonalization with overlap
     ethr =  1.51E-06,  avg # of iterations =  3.9

     negative rho (up, down):  6.724E-04 0.000E+00

     total cpu time spent up to now is     9364.1 secs

     total energy              =   -7776.33534992 Ry
     Harris-Foulkes estimate   =   -7776.33589982 Ry
     estimated scf accuracy    <       0.00325309 Ry

     iteration # 22     ecut=    80.00 Ry     beta=0.70
     Davidson diagonalization with overlap
     ethr =  4.62E-07,  avg # of iterations =  2.8

     negative rho (up, down):  8.949E-04 0.000E+00

     total cpu time spent up to now is     9665.5 secs

     total energy              =   -7776.33534440 Ry
     Harris-Foulkes estimate   =   -7776.33606178 Ry
     estimated scf accuracy    <       0.00443520 Ry

     iteration # 23     ecut=    80.00 Ry     beta=0.70
     Davidson diagonalization with overlap
     ethr =  4.62E-07,  avg # of iterations =  2.0

     negative rho (up, down):  1.199E-03 0.000E+00

     total cpu time spent up to now is     9948.2 secs

     total energy              =   -7776.33567775 Ry
     Harris-Foulkes estimate   =   -7776.33572727 Ry
     estimated scf accuracy    <       0.00017804 Ry

     iteration # 24     ecut=    80.00 Ry     beta=0.70
     Davidson diagonalization with overlap
     ethr =  2.53E-08,  avg # of iterations =  3.4

     negative rho (up, down):  1.524E-03 0.000E+00

     total cpu time spent up to now is    10347.8 secs

     total energy              =   -7776.33564699 Ry
     Harris-Foulkes estimate   =   -7776.33578220 Ry
     estimated scf accuracy    <       0.00080258 Ry

     iteration # 25     ecut=    80.00 Ry     beta=0.70
     Davidson diagonalization with overlap
     ethr =  2.53E-08,  avg # of iterations =  3.0

     negative rho (up, down):  1.572E-03 0.000E+00

     total cpu time spent up to now is    10679.7 secs

     total energy              =   -7776.33568133 Ry
     Harris-Foulkes estimate   =   -7776.33574854 Ry
     estimated scf accuracy    <       0.00036334 Ry

     iteration # 26     ecut=    80.00 Ry     beta=0.70
     Davidson diagonalization with overlap
[r3763:10003] *** An error occurred in MPI_Comm_split
[r3763:10003] *** reported by process [3908370433,139629386792984]
[r3763:10003] *** on communicator MPI COMMUNICATOR 65532 CREATE FROM 15
[r3763:10003] *** MPI_ERR_INTERN: internal error
[r3763:10003] *** MPI_ERRORS_ARE_FATAL (processes in this communicator will now abort,
[r3763:10003] ***    and potentially your MPI job)
