
     Program PWSCF v.5.4.0 starts on 13Jan2017 at  4: 1:54 

     This program is part of the open-source Quantum ESPRESSO suite
     for quantum simulation of materials; please cite
         "P. Giannozzi et al., J. Phys.:Condens. Matter 21 395502 (2009);
          URL http://www.quantum-espresso.org", 
     in publications or presentations arising from this work. More details at
     http://www.quantum-espresso.org/quote

     Parallel version (MPI & OpenMP), running on      56 processor cores
     Number of MPI processes:                56
     Threads/MPI process:                     1
     R & G space division:  proc/nbgrp/npool/nimage =      56
     Waiting for input...
     Reading input from standard input
Warning: card &IONS ignored
Warning: card / ignored

     Current dimensions of program PWSCF are:
     Max number of different atomic species (ntypx) = 10
     Max number of k-points (npk) =  40000
     Max angular momentum in pseudopotentials (lmaxx) =  3
     WARNING: atomic wfc #  2 for atom type 4 has zero norm
     WARNING: atomic wfc #  4 for atom type 4 has zero norm
     WARNING: atomic wfc #  5 for atom type 4 has zero norm

     -------------------------------------
     Parameters for Dispersion Correction:
     -------------------------------------
       atom      VdW radius       C_6     

        Cu         2.952        374.666
        C_h        2.744         60.710
        C          2.744         60.710
        O          2.536         24.284

     Subspace diagonalization in iterative solution of the eigenvalue problem:
     one sub-group per band group will be used
     scalapack distributed-memory algorithm (size of sub-group:  5*  5 procs)

 
     Parallelization info
     --------------------
     sticks:   dense  smooth     PW     G-vecs:    dense   smooth      PW
     Min         204     204     54                36612    36612    4962
     Max         205     205     55                36617    36617    4968
     Sum       11433   11433   3039              2050409  2050409  278033
 


     bravais-lattice index     =            0
     lattice parameter (alat)  =      13.9425  a.u.
     unit-cell volume          =   21209.0878 (a.u.)^3
     number of atoms/cell      =          149
     number of atomic types    =            4
     number of electrons       =      1298.00
     number of Kohn-Sham states=          779
     kinetic-energy cutoff     =      80.0000  Ry
     charge density cutoff     =     320.0000  Ry
     convergence threshold     =      1.0E-08
     mixing beta               =       0.7000
     number of iterations used =            8  local-TF  mixing
     Exchange-correlation      =  SLA  PW   PBX  PBC ( 1  4  3  4 0 0)

     celldm(1)=  13.942539  celldm(2)=   0.000000  celldm(3)=   0.000000
     celldm(4)=   0.000000  celldm(5)=   0.000000  celldm(6)=   0.000000

     crystal axes: (cart. coord. in units of alat)
               a(1) = (   1.000000   0.000000   0.000000 )  
               a(2) = (   0.000000   2.309401   0.000000 )  
               a(3) = (   0.000000   0.000000   3.388418 )  

     reciprocal axes: (cart. coord. in units 2 pi/alat)
               b(1) = (  1.000000  0.000000  0.000000 )  
               b(2) = (  0.000000  0.433013  0.000000 )  
               b(3) = (  0.000000  0.000000  0.295123 )  


     PseudoPot. # 1 for Cu read from file:
     /home/549/hxw549/Short/pseudopotentials/Cu.pbe-n-van_ak.UPF
     MD5 check sum: 601f7c30f7467666bec936e0661ce3e1
     Pseudo is Ultrasoft + core correction, Zval = 11.0
     Generated by new atomic code, or converted to UPF format
     Using radial grid of  867 points,  6 beta functions with: 
                l(1) =   0
                l(2) =   0
                l(3) =   1
                l(4) =   1
                l(5) =   2
                l(6) =   2
     Q(r) pseudized with  8 coefficients,  rinner =    1.400   1.400   1.400
                                                       1.400   1.400

     PseudoPot. # 2 for C  read from file:
     /home/549/hxw549/Short/pseudopotentials/C.star1s-pbe-mt_gipaw.UPF
     MD5 check sum: ef0cb3dee31bd9e4ba2a832a2c716264
     Pseudo is Norm-conserving, Zval =  5.0
     Generated by new atomic code, or converted to UPF format
     Using radial grid of 1073 points,  1 beta functions with: 
                l(1) =   0

     PseudoPot. # 3 for C  read from file:
     /home/549/hxw549/Short/pseudopotentials/C.pbe-mt_gipaw.UPF
     MD5 check sum: 5ac2f21f2c440b14befe521540822c15
     Pseudo is Norm-conserving, Zval =  4.0
     Generated by new atomic code, or converted to UPF format
     Using radial grid of 1073 points,  1 beta functions with: 
                l(1) =   0

     PseudoPot. # 4 for O  read from file:
     /home/549/hxw549/Short/pseudopotentials/O.pbe-van_gipaw.UPF
     MD5 check sum: 5ce2a047509d4f331db576c963e74b29
     Pseudo is Ultrasoft, Zval =  6.0
     Generated by new atomic code, or converted to UPF format
     Using radial grid of 1095 points,  4 beta functions with: 
                l(1) =   0
                l(2) =   0
                l(3) =   1
                l(4) =   1
     Q(r) pseudized with 0 coefficients 


     atomic species   valence    mass     pseudopotential
        Cu            11.00    63.54600     Cu( 1.00)
        C_h            5.00    12.01070     C ( 1.00)
        C              4.00    12.01070     C ( 1.00)
        O              6.00    15.99940     O ( 1.00)

     No symmetry found



   Cartesian axes

     site n.     atom                  positions (alat units)
         1           Cu  tau(   1) = (  -0.0000267   0.0003068   0.9983929  )
         2           Cu  tau(   2) = (   0.2500036   0.2312703   0.9983145  )
         3           Cu  tau(   3) = (   0.4999803   0.0002594   0.9983489  )
         4           Cu  tau(   4) = (   0.7499895   0.2312918   0.9983342  )
         5           Cu  tau(   5) = (   0.0000225   0.4620329   0.9981170  )
         6           Cu  tau(   6) = (   0.2500219   0.6928138   0.9977793  )
         7           Cu  tau(   7) = (   0.5000145   0.4620708   0.9980771  )
         8           Cu  tau(   8) = (   0.7500464   0.6928005   0.9977795  )
         9           Cu  tau(   9) = (   0.0000444   0.9236560   0.9976799  )
        10           Cu  tau(  10) = (   0.2500468   1.1544894   0.9979087  )
        11           Cu  tau(  11) = (   0.5000294   0.9236428   0.9976663  )
        12           Cu  tau(  12) = (   0.7500113   1.1544661   0.9979233  )
        13           Cu  tau(  13) = (  -0.0000030   1.3852325   0.9982653  )
        14           Cu  tau(  14) = (   0.2500078   1.6159458   0.9985773  )
        15           Cu  tau(  15) = (   0.5000250   1.3851939   0.9983781  )
        16           Cu  tau(  16) = (   0.7499695   1.6160612   0.9985012  )
        17           Cu  tau(  17) = (   0.0000343   1.8470384   0.9985232  )
        18           Cu  tau(  18) = (   0.2499384   2.0784489   0.9984548  )
        19           Cu  tau(  19) = (   0.4999091   1.8470915   0.9984673  )
        20           Cu  tau(  20) = (   0.7499959   2.0783416   0.9983130  )
        21           Cu  tau(  21) = (   0.0000812   0.2314093   1.2467788  )
        22           Cu  tau(  22) = (   0.2500218   0.0003249   1.2465774  )
        23           Cu  tau(  23) = (   0.5000485   0.2314075   1.2466680  )
        24           Cu  tau(  24) = (   0.7500266   0.0001653   1.2463696  )
        25           Cu  tau(  25) = (   0.0001623   0.6931214   1.2464311  )
        26           Cu  tau(  26) = (   0.2501033   0.4623525   1.2466471  )
        27           Cu  tau(  27) = (   0.5001337   0.6931028   1.2464251  )
        28           Cu  tau(  28) = (   0.7501184   0.4623956   1.2466785  )
        29           Cu  tau(  29) = (   0.0001568   1.1541245   1.2464838  )
        30           Cu  tau(  30) = (   0.2501615   0.9236200   1.2463252  )
        31           Cu  tau(  31) = (   0.5001177   1.1540045   1.2466424  )
        32           Cu  tau(  32) = (   0.7501390   0.9235859   1.2463014  )
        33           Cu  tau(  33) = (   0.0000729   1.6157545   1.2468989  )
        34           Cu  tau(  34) = (   0.2501093   1.3847381   1.2469554  )
        35           Cu  tau(  35) = (   0.5000326   1.6158869   1.2468953  )
        36           Cu  tau(  36) = (   0.7500890   1.3848287   1.2468265  )
        37           Cu  tau(  37) = (   0.0000323   2.0783589   1.2463249  )
        38           Cu  tau(  38) = (   0.2500077   1.8470268   1.2466081  )
        39           Cu  tau(  39) = (   0.4999755   2.0783445   1.2462814  )
        40           Cu  tau(  40) = (   0.7500223   1.8470837   1.2465241  )
        41           Cu  tau(  41) = (   0.0002124  -0.0001420   1.4956913  )
        42           Cu  tau(  42) = (   0.2502432   0.2315683   1.4963144  )
        43           Cu  tau(  43) = (   0.5000580  -0.0001022   1.4955702  )
        44           Cu  tau(  44) = (   0.7501834   0.2311697   1.4957919  )
        45           Cu  tau(  45) = (   0.0003849   0.4627079   1.4963383  )
        46           Cu  tau(  46) = (   0.2503961   0.6934059   1.4964363  )
        47           Cu  tau(  47) = (   0.5002404   0.4626228   1.4962459  )
        48           Cu  tau(  48) = (   0.7504437   0.6934576   1.4964425  )
        49           Cu  tau(  49) = (   0.0004625   0.9237210   1.4966639  )
        50           Cu  tau(  50) = (   0.2503244   1.1534720   1.4969567  )
        51           Cu  tau(  51) = (   0.5003991   0.9233981   1.4968565  )
        52           Cu  tau(  52) = (   0.7504645   1.1536830   1.4965640  )
        53           Cu  tau(  53) = (   0.0003821   1.3842432   1.4966806  )
        54           Cu  tau(  54) = (   0.2501321   1.6156588   1.4962873  )
        55           Cu  tau(  55) = (   0.5002113   1.3843989   1.4963900  )
        56           Cu  tau(  56) = (   0.7502647   1.6157441   1.4960739  )
        57           Cu  tau(  57) = (   0.0001207   1.8471506   1.4957144  )
        58           Cu  tau(  58) = (   0.2500858   2.0782753   1.4956306  )
        59           Cu  tau(  59) = (   0.5001251   1.8473075   1.4957920  )
        60           Cu  tau(  60) = (   0.7501138   2.0783207   1.4955742  )
        61           Cu  tau(  61) = (   0.0006392   0.2308735   1.7441459  )
        62           Cu  tau(  62) = (   0.2504158  -0.0005355   1.7449106  )
        63           Cu  tau(  63) = (   0.5002246   0.2305722   1.7445406  )
        64           Cu  tau(  64) = (   0.7501913  -0.0003931   1.7446966  )
        65           Cu  tau(  65) = (   0.0011818   0.6935460   1.7465189  )
        66           Cu  tau(  66) = (   0.2510178   0.4635280   1.7463239  )
        67           Cu  tau(  67) = (   0.5006724   0.6932120   1.7469307  )
        68           Cu  tau(  68) = (   0.7502789   0.4622959   1.7447587  )
        69           Cu  tau(  69) = (   0.0010896   1.1532691   1.7478853  )
        70           Cu  tau(  70) = (   0.2510233   0.9227073   1.7481025  )
        71           Cu  tau(  71) = (   0.5006627   1.1535677   1.7464536  )
        72           Cu  tau(  72) = (   0.7510601   0.9235893   1.7472115  )
        73           Cu  tau(  73) = (   0.0004758   1.6160976   1.7450473  )
        74           Cu  tau(  74) = (   0.2502121   1.3840137   1.7461821  )
        75           Cu  tau(  75) = (   0.5003724   1.6159583   1.7442703  )
        76           Cu  tau(  76) = (   0.7510145   1.3842499   1.7454633  )
        77           Cu  tau(  77) = (   0.0002451   2.0780251   1.7451646  )
        78           Cu  tau(  78) = (   0.2501320   1.8474404   1.7447821  )
        79           Cu  tau(  79) = (   0.5002731   2.0784000   1.7451917  )
        80           Cu  tau(  80) = (   0.7504684   1.8474054   1.7447238  )
        81           Cu  tau(  81) = (   0.0005767   0.0000026   1.9903772  )
        82           Cu  tau(  82) = (   0.2505076   0.2308079   1.9897657  )
        83           Cu  tau(  83) = (   0.5003407  -0.0001971   1.9920597  )
        84           Cu  tau(  84) = (   0.7508598   0.2304463   1.9896692  )
        85           Cu  tau(  85) = (   0.0007252   0.4619078   1.9888295  )
        86           Cu  tau(  86) = (   0.2543946   0.6925846   1.9984671  )
        87           Cu  tau(  87) = (   0.5014478   0.4595729   1.9915324  )
        88           Cu  tau(  88) = (   0.7494838   0.6919755   1.9922578  )
        89           Cu  tau(  89) = (   0.0022301   0.9213544   1.9947254  )
        90           Cu  tau(  90) = (   0.2515066   1.1535075   1.9951996  )
        91           Cu  tau(  91) = (   0.5019605   0.9245193   1.9950177  )
        92           Cu  tau(  92) = (   0.7515414   1.1546013   1.9935588  )
        93           Cu  tau(  93) = (   0.0013104   1.3858691   1.9926217  )
        94           Cu  tau(  94) = (   0.2503372   1.6166014   1.9901204  )
        95           Cu  tau(  95) = (   0.5006192   1.3858005   1.9901314  )
        96           Cu  tau(  96) = (   0.7509579   1.6160844   1.9897276  )
        97           Cu  tau(  97) = (   0.0002748   1.8473145   1.9921170  )
        98           Cu  tau(  98) = (   0.2505214   2.0779375   1.9914291  )
        99           Cu  tau(  99) = (   0.5006319   1.8466210   1.9902901  )
       100           Cu  tau( 100) = (   0.7502694   2.0782754   1.9912423  )
       101           C   tau( 101) = (  -0.0007583   0.0963134   2.3862891  )
       102           C   tau( 102) = (  -0.0009641   0.2884428   2.3833147  )
       103           C   tau( 103) = (   0.1660055   0.0003785   2.3872135  )
       104           C   tau( 104) = (   0.1654608   0.3840869   2.3791849  )
       105           C   tau( 105) = (   0.3325218   0.0962801   2.3838471  )
       106           C   tau( 106) = (   0.3323993   0.2885900   2.3788628  )
       107           C   tau( 107) = (   0.4993762   0.0002074   2.3846977  )
       108           C   tau( 108) = (   0.4993768   0.3848633   2.3764734  )
       109           C   tau( 109) = (   0.6662368   0.0964118   2.3840959  )
       110           C   tau( 110) = (   0.6662787   0.2886562   2.3798869  )
       111           C   tau( 111) = (   0.8326681   0.0003019   2.3874107  )
       112           C   tau( 112) = (   0.8327915   0.3847794   2.3811008  )
       113           C   tau( 113) = (  -0.0012722   0.6735101   2.3803848  )
       114           C   tau( 114) = (  -0.0009511   0.8666962   2.3764449  )
       115           C   tau( 115) = (   0.1655204   0.5765016   2.3784056  )
       116           C   tau( 116) = (   0.1624509   0.9643662   2.3844256  )
       117           C   tau( 117) = (   0.3316218   0.6703151   2.3800734  )
       118           C   tau( 118) = (   0.3292206   0.8643671   2.4184809  )
       119           C   tau( 119) = (   0.4987612   0.5771637   2.3788923  )
       120           C   tau( 120) = (   0.5021138   0.9644200   2.4216837  )
       121           O   tau( 121) = (   0.4140165   0.9101453   2.5990232  )
       122           C   tau( 122) = (   0.6663442   0.6742083   2.3806324  )
       123           C   tau( 123) = (   0.6689595   0.8654305   2.3851659  )
       124           C   tau( 124) = (   0.8329766   0.5774622   2.3796904  )
       125           C   tau( 125) = (   0.8321191   0.9628646   2.3782389  )
       126           C   tau( 126) = (  -0.0010921   1.2520160   2.3785180  )
       127           C   tau( 127) = (  -0.0007197   1.4446627   2.3773574  )
       128           C   tau( 128) = (   0.1654289   1.1553812   2.3831881  )
       129           C   tau( 129) = (   0.1661398   1.5408122   2.3809588  )
       130           C   tau( 130) = (   0.3332591   1.2524179   2.3871897  )
       131           C   tau( 131) = (   0.3327347   1.4447081   2.3843921  )
       132           C_h tau( 132) = (   0.4999577   1.1596325   2.3913607  )
       133           C   tau( 133) = (   0.4993062   1.5408861   2.3859785  )
       134           C   tau( 134) = (   0.6656079   1.2530081   2.3829609  )
       135           C   tau( 135) = (   0.6659456   1.4454088   2.3819018  )
       136           C   tau( 136) = (   0.8327273   1.1559617   2.3795433  )
       137           C   tau( 137) = (   0.8326004   1.5410745   2.3794124  )
       138           C   tau( 138) = (  -0.0005841   1.8293317   2.3831804  )
       139           C   tau( 139) = (  -0.0006107   2.0215344   2.3872925  )
       140           C   tau( 140) = (   0.1662470   1.7330653   2.3837749  )
       141           C   tau( 141) = (   0.1660003   2.1175423   2.3879995  )
       142           C   tau( 142) = (   0.3327657   1.8291420   2.3882670  )
       143           C   tau( 143) = (   0.3327961   2.0213806   2.3890482  )
       144           C   tau( 144) = (   0.4993270   1.7331699   2.3878917  )
       145           C   tau( 145) = (   0.4993850   2.1173816   2.3892301  )
       146           C   tau( 146) = (   0.6659668   1.8291231   2.3874666  )
       147           C   tau( 147) = (   0.6659485   2.0213555   2.3883541  )
       148           C   tau( 148) = (   0.8325583   1.7332547   2.3830305  )
       149           C   tau( 149) = (   0.8327361   2.1174924   2.3876620  )

     number of k points=     6  gaussian smearing, width (Ry)=  0.1000
                       cart. coord. in units 2pi/alat
        k(    1) = (   0.0000000   0.0000000   0.0000000), wk =   0.2500000
        k(    2) = (   0.0000000  -0.2165064   0.0000000), wk =   0.2500000
        k(    3) = (   0.2500000   0.0000000   0.0000000), wk =   0.5000000
        k(    4) = (   0.2500000  -0.2165064   0.0000000), wk =   0.5000000
        k(    5) = (  -0.5000000   0.0000000   0.0000000), wk =   0.2500000
        k(    6) = (  -0.5000000  -0.2165064   0.0000000), wk =   0.2500000

     Dense  grid:  2050409 G-vectors     FFT dimensions: (  80, 192, 270)

     Largest allocated arrays     est. size (Mb)     dimensions
        Kohn-Sham Wavefunctions        54.73 Mb     (    4604,  779)
        NL pseudopotentials           130.39 Mb     (    4604, 1856)
        Each V/rho on FFT grid          1.17 Mb     (   76800)
        Each G-vector array             0.28 Mb     (   36616)
        G-vector shells                 0.14 Mb     (   17932)
     Largest temporary arrays     est. size (Mb)     dimensions
        Auxiliary wavefunctions       218.90 Mb     (    4604, 3116)
        Each subspace H/S matrix        5.92 Mb     (     623,  623)
        Each <psi_i|beta_j> matrix     22.06 Mb     (    1856,  779)
        Arrays for rho mixing           9.38 Mb     (   76800,    8)

     Initial potential from superposition of free atoms
     Check: negative starting charge=   -0.001800

     starting charge 1272.81751, renormalised to 1298.00000

     negative rho (up, down):  1.836E-03 0.000E+00
     Starting wfc are 1288 randomized atomic wfcs

     total cpu time spent up to now is      107.4 secs

     Self-consistent Calculation

     iteration #  1     ecut=    80.00 Ry     beta=0.70
     Davidson diagonalization with overlap
     c_bands:  3 eigenvalues not converged
     c_bands:  2 eigenvalues not converged
     c_bands:  5 eigenvalues not converged
     c_bands:  1 eigenvalues not converged
     ethr =  1.00E-04,  avg # of iterations = 33.2

     negative rho (up, down):  2.543E+01 0.000E+00

     total cpu time spent up to now is     2037.1 secs

     total energy              =   -9769.27088102 Ry
     Harris-Foulkes estimate   =  -17290.37055100 Ry
     estimated scf accuracy    <  178178.75267090 Ry

     iteration #  2     ecut=    80.00 Ry     beta=0.70
     Davidson diagonalization with overlap
     ethr =  1.00E-02,  avg # of iterations = 11.8

     negative rho (up, down):  2.988E+01 0.000E+00

     total cpu time spent up to now is     2944.0 secs

     total energy              =  -12275.74929351 Ry
     Harris-Foulkes estimate   =  -13654.98028737 Ry
     estimated scf accuracy    <   22834.15738454 Ry

     iteration #  3     ecut=    80.00 Ry     beta=0.70
     Davidson diagonalization with overlap
     ethr =  1.00E-02,  avg # of iterations =  7.0

     negative rho (up, down):  3.035E+01 0.000E+00

     total cpu time spent up to now is     3476.7 secs

     total energy              =  -12462.56747967 Ry
     Harris-Foulkes estimate   =  -13395.96251161 Ry
     estimated scf accuracy    <    5924.57819130 Ry

     iteration #  4     ecut=    80.00 Ry     beta=0.70
     Davidson diagonalization with overlap
     ethr =  1.00E-02,  avg # of iterations =  5.5

     negative rho (up, down):  2.231E+01 0.000E+00

     total cpu time spent up to now is     4039.0 secs

     total energy              =  -12855.76351505 Ry
     Harris-Foulkes estimate   =  -13091.83353107 Ry
     estimated scf accuracy    <    1884.01649930 Ry

     iteration #  5     ecut=    80.00 Ry     beta=0.70
     Davidson diagonalization with overlap
     ethr =  1.00E-02,  avg # of iterations =  3.2

     negative rho (up, down):  1.713E+01 0.000E+00

     total cpu time spent up to now is     4314.3 secs

     total energy              =  -12858.70912324 Ry
     Harris-Foulkes estimate   =  -12974.23976391 Ry
     estimated scf accuracy    <    1161.56595528 Ry

     iteration #  6     ecut=    80.00 Ry     beta=0.70
     Davidson diagonalization with overlap
     ethr =  1.00E-02,  avg # of iterations =  3.0

     negative rho (up, down):  1.178E+01 0.000E+00

     total cpu time spent up to now is     4519.7 secs

     total energy              =  -12848.32040073 Ry
     Harris-Foulkes estimate   =  -12919.89187189 Ry
     estimated scf accuracy    <     576.27339200 Ry

     iteration #  7     ecut=    80.00 Ry     beta=0.70
     Davidson diagonalization with overlap
     ethr =  1.00E-02,  avg # of iterations =  2.0

     negative rho (up, down):  8.412E+00 0.000E+00

     total cpu time spent up to now is     4705.6 secs

     total energy              =  -12826.32034494 Ry
     Harris-Foulkes estimate   =  -12868.78515577 Ry
     estimated scf accuracy    <     410.33195303 Ry

     iteration #  8     ecut=    80.00 Ry     beta=0.70
     Davidson diagonalization with overlap
     ethr =  1.00E-02,  avg # of iterations =  2.0

     negative rho (up, down):  6.818E+00 0.000E+00

     total cpu time spent up to now is     4886.2 secs

     total energy              =  -12811.75444780 Ry
     Harris-Foulkes estimate   =  -12842.43754763 Ry
     estimated scf accuracy    <     482.93434858 Ry

     iteration #  9     ecut=    80.00 Ry     beta=0.70
     Davidson diagonalization with overlap
     ethr =  1.00E-02,  avg # of iterations =  1.8

     negative rho (up, down):  4.999E+00 0.000E+00

     total cpu time spent up to now is     5064.3 secs

     total energy              =  -12803.15999327 Ry
     Harris-Foulkes estimate   =  -12822.90647096 Ry
     estimated scf accuracy    <     194.28254612 Ry

     iteration # 10     ecut=    80.00 Ry     beta=0.70
     Davidson diagonalization with overlap
     ethr =  1.00E-02,  avg # of iterations =  1.0

     negative rho (up, down):  1.325E+00 0.000E+00

     total cpu time spent up to now is     5231.5 secs

     total energy              =  -12770.08395393 Ry
     Harris-Foulkes estimate   =  -12805.16372249 Ry
     estimated scf accuracy    <     132.76063490 Ry

     iteration # 11     ecut=    80.00 Ry     beta=0.70
     Davidson diagonalization with overlap
     ethr =  1.00E-02,  avg # of iterations =  2.3

     negative rho (up, down):  8.086E-01 0.000E+00

     total cpu time spent up to now is     5414.9 secs

     total energy              =  -12765.86469669 Ry
     Harris-Foulkes estimate   =  -12778.96095785 Ry
     estimated scf accuracy    <     271.03906494 Ry

     iteration # 12     ecut=    80.00 Ry     beta=0.70
     Davidson diagonalization with overlap
     ethr =  1.00E-02,  avg # of iterations =  1.7

     negative rho (up, down):  3.464E-01 0.000E+00

     total cpu time spent up to now is     5589.6 secs

     total energy              =  -12760.29499457 Ry
     Harris-Foulkes estimate   =  -12771.98773069 Ry
     estimated scf accuracy    <     129.67307254 Ry

     iteration # 13     ecut=    80.00 Ry     beta=0.70
     Davidson diagonalization with overlap
     ethr =  9.99E-03,  avg # of iterations =  1.7

     negative rho (up, down):  1.683E+00 0.000E+00

     total cpu time spent up to now is     5765.3 secs

     total energy              =  -12748.15047395 Ry
     Harris-Foulkes estimate   =  -12767.99742689 Ry
     estimated scf accuracy    <     184.63107364 Ry

     iteration # 14     ecut=    80.00 Ry     beta=0.70
     Davidson diagonalization with overlap
     ethr =  9.99E-03,  avg # of iterations =  2.0

     negative rho (up, down):  5.016E+00 0.000E+00

     total cpu time spent up to now is     5946.4 secs

     total energy              =  -12749.43286438 Ry
     Harris-Foulkes estimate   =  -12757.52246418 Ry
     estimated scf accuracy    <      54.85935186 Ry

     iteration # 15     ecut=    80.00 Ry     beta=0.70
     Davidson diagonalization with overlap
     ethr =  4.23E-03,  avg # of iterations =  3.8

     negative rho (up, down):  3.843E+00 0.000E+00

     total cpu time spent up to now is     6146.7 secs

     total energy              =  -12746.27952511 Ry
     Harris-Foulkes estimate   =  -12751.25890478 Ry
     estimated scf accuracy    <      27.07478365 Ry

     iteration # 16     ecut=    80.00 Ry     beta=0.70
     Davidson diagonalization with overlap
     ethr =  2.09E-03,  avg # of iterations =  4.8

     negative rho (up, down):  5.283E+00 0.000E+00

     total cpu time spent up to now is     6362.8 secs

     total energy              =  -12745.15148151 Ry
     Harris-Foulkes estimate   =  -12747.91084272 Ry
     estimated scf accuracy    <      21.94669219 Ry

     iteration # 17     ecut=    80.00 Ry     beta=0.70
     Davidson diagonalization with overlap
     ethr =  1.69E-03,  avg # of iterations =  3.8

     negative rho (up, down):  5.038E+00 0.000E+00

     total cpu time spent up to now is     6563.3 secs

     total energy              =  -12745.35595773 Ry
     Harris-Foulkes estimate   =  -12746.45611088 Ry
     estimated scf accuracy    <      11.39798170 Ry

     iteration # 18     ecut=    80.00 Ry     beta=0.70
     Davidson diagonalization with overlap
     ethr =  8.78E-04,  avg # of iterations =  8.3

     negative rho (up, down):  4.219E+00 0.000E+00

     total cpu time spent up to now is     6814.4 secs

     total energy              =  -12744.43736732 Ry
     Harris-Foulkes estimate   =  -12745.81741265 Ry
     estimated scf accuracy    <      11.45223556 Ry

     iteration # 19     ecut=    80.00 Ry     beta=0.70
     Davidson diagonalization with overlap
     ethr =  8.78E-04,  avg # of iterations =  4.8

     negative rho (up, down):  4.278E+00 0.000E+00

     total cpu time spent up to now is     7027.6 secs

     total energy              =  -12744.26888591 Ry
     Harris-Foulkes estimate   =  -12744.76677146 Ry
     estimated scf accuracy    <      10.25524499 Ry

     iteration # 20     ecut=    80.00 Ry     beta=0.70
     Davidson diagonalization with overlap
     ethr =  7.90E-04,  avg # of iterations =  2.8

     negative rho (up, down):  1.590E+00 0.000E+00

     total cpu time spent up to now is     7216.4 secs

     total energy              =  -12742.23737187 Ry
     Harris-Foulkes estimate   =  -12744.40059372 Ry
     estimated scf accuracy    <       7.66938453 Ry

     iteration # 21     ecut=    80.00 Ry     beta=0.70
     Davidson diagonalization with overlap
     ethr =  5.91E-04,  avg # of iterations =  4.7

     negative rho (up, down):  2.260E+00 0.000E+00

     total cpu time spent up to now is     7426.5 secs

     total energy              =  -12741.47247592 Ry
     Harris-Foulkes estimate   =  -12742.58236697 Ry
     estimated scf accuracy    <      11.35959156 Ry

     iteration # 22     ecut=    80.00 Ry     beta=0.70
     Davidson diagonalization with overlap
     ethr =  5.91E-04,  avg # of iterations =  7.3

     negative rho (up, down):  1.619E+00 0.000E+00

     total cpu time spent up to now is     7672.7 secs

     total energy              =  -12740.67571053 Ry
     Harris-Foulkes estimate   =  -12741.77262160 Ry
     estimated scf accuracy    <       6.44266886 Ry

     iteration # 23     ecut=    80.00 Ry     beta=0.70
     Davidson diagonalization with overlap
     ethr =  4.96E-04,  avg # of iterations =  4.2

     negative rho (up, down):  7.582E-01 0.000E+00

     total cpu time spent up to now is     7877.4 secs

     total energy              =  -12739.62241914 Ry
     Harris-Foulkes estimate   =  -12740.85638344 Ry
     estimated scf accuracy    <       4.94136727 Ry

     iteration # 24     ecut=    80.00 Ry     beta=0.70
     Davidson diagonalization with overlap
     ethr =  3.81E-04,  avg # of iterations =  9.7

     negative rho (up, down):  6.503E-01 0.000E+00

     total cpu time spent up to now is     8151.0 secs

     total energy              =  -12739.35928922 Ry
     Harris-Foulkes estimate   =  -12739.87321753 Ry
     estimated scf accuracy    <       3.63709602 Ry

     iteration # 25     ecut=    80.00 Ry     beta=0.70
     Davidson diagonalization with overlap
     ethr =  2.80E-04,  avg # of iterations =  2.3

     negative rho (up, down):  5.871E-01 0.000E+00

     total cpu time spent up to now is     8335.1 secs

     total energy              =  -12739.15697830 Ry
     Harris-Foulkes estimate   =  -12739.44310356 Ry
     estimated scf accuracy    <       1.67086404 Ry

     iteration # 26     ecut=    80.00 Ry     beta=0.70
     Davidson diagonalization with overlap
     ethr =  1.29E-04,  avg # of iterations =  5.7

     negative rho (up, down):  9.605E-01 0.000E+00

     total cpu time spent up to now is     8557.1 secs

     total energy              =  -12739.00900853 Ry
     Harris-Foulkes estimate   =  -12739.21449990 Ry
     estimated scf accuracy    <       1.66067538 Ry

     iteration # 27     ecut=    80.00 Ry     beta=0.70
     Davidson diagonalization with overlap
     ethr =  1.28E-04,  avg # of iterations =  7.8

     negative rho (up, down):  6.936E-01 0.000E+00

     total cpu time spent up to now is     8817.9 secs

     total energy              =  -12738.89027711 Ry
     Harris-Foulkes estimate   =  -12739.04818813 Ry
     estimated scf accuracy    <       0.72978987 Ry

     iteration # 28     ecut=    80.00 Ry     beta=0.70
     Davidson diagonalization with overlap
     ethr =  5.62E-05,  avg # of iterations =  7.3

     negative rho (up, down):  5.018E-01 0.000E+00

     total cpu time spent up to now is     9068.2 secs

     total energy              =  -12738.84479252 Ry
     Harris-Foulkes estimate   =  -12738.92437514 Ry
     estimated scf accuracy    <       0.55963636 Ry

     iteration # 29     ecut=    80.00 Ry     beta=0.70
     Davidson diagonalization with overlap
     ethr =  4.31E-05,  avg # of iterations =  5.7

     negative rho (up, down):  2.764E-01 0.000E+00

     total cpu time spent up to now is     9295.6 secs

     total energy              =  -12738.82355967 Ry
     Harris-Foulkes estimate   =  -12738.88714199 Ry
     estimated scf accuracy    <       0.32543204 Ry

     iteration # 30     ecut=    80.00 Ry     beta=0.70
     Davidson diagonalization with overlap
     ethr =  2.51E-05,  avg # of iterations =  8.7

     negative rho (up, down):  1.449E-01 0.000E+00

     total cpu time spent up to now is     9584.8 secs

     total energy              =  -12738.85006651 Ry
     Harris-Foulkes estimate   =  -12738.85713687 Ry
     estimated scf accuracy    <       0.03925816 Ry

     iteration # 31     ecut=    80.00 Ry     beta=0.70
     Davidson diagonalization with overlap
     c_bands:  1 eigenvalues not converged
     c_bands:  2 eigenvalues not converged
     ethr =  3.02E-06,  avg # of iterations = 18.2

     negative rho (up, down):  1.083E-01 0.000E+00

     total cpu time spent up to now is    10000.1 secs

     total energy              =  -12738.85262365 Ry
     Harris-Foulkes estimate   =  -12738.85415360 Ry
     estimated scf accuracy    <       0.01710148 Ry

     iteration # 32     ecut=    80.00 Ry     beta=0.70
     Davidson diagonalization with overlap
     c_bands:  1 eigenvalues not converged
     c_bands:  1 eigenvalues not converged
     ethr =  1.32E-06,  avg # of iterations = 15.8

     negative rho (up, down):  6.634E-02 0.000E+00

     total cpu time spent up to now is    10358.8 secs

     total energy              =  -12738.85397342 Ry
     Harris-Foulkes estimate   =  -12738.85413220 Ry
     estimated scf accuracy    <       0.00659953 Ry

     iteration # 33     ecut=    80.00 Ry     beta=0.70
     Davidson diagonalization with overlap
     c_bands:  1 eigenvalues not converged
     ethr =  5.08E-07,  avg # of iterations = 15.2

     negative rho (up, down):  2.316E-02 0.000E+00

     total cpu time spent up to now is    10722.0 secs

     total energy              =  -12738.85382188 Ry
     Harris-Foulkes estimate   =  -12738.85442115 Ry
     estimated scf accuracy    <       0.00255572 Ry

     iteration # 34     ecut=    80.00 Ry     beta=0.70
     Davidson diagonalization with overlap
     c_bands:  1 eigenvalues not converged
     c_bands:  1 eigenvalues not converged
     c_bands:  1 eigenvalues not converged
     ethr =  1.97E-07,  avg # of iterations = 15.5

     negative rho (up, down):  1.489E-02 0.000E+00

     total cpu time spent up to now is    11105.5 secs

     total energy              =  -12738.85374904 Ry
     Harris-Foulkes estimate   =  -12738.85405941 Ry
     estimated scf accuracy    <       0.00061916 Ry

     iteration # 35     ecut=    80.00 Ry     beta=0.70
     Davidson diagonalization with overlap
     c_bands:  1 eigenvalues not converged
     ethr =  4.77E-08,  avg # of iterations = 12.7

     negative rho (up, down):  1.233E-02 0.000E+00

     total cpu time spent up to now is    11431.4 secs

     total energy              =  -12738.85378825 Ry
     Harris-Foulkes estimate   =  -12738.85382818 Ry
     estimated scf accuracy    <       0.00035586 Ry

     iteration # 36     ecut=    80.00 Ry     beta=0.70
     Davidson diagonalization with overlap
     ethr =  2.74E-08,  avg # of iterations =  6.7

     negative rho (up, down):  1.369E-02 0.000E+00

     total cpu time spent up to now is    11675.9 secs

     total energy              =  -12738.85382919 Ry
     Harris-Foulkes estimate   =  -12738.85381281 Ry
     estimated scf accuracy    <       0.00013360 Ry

     iteration # 37     ecut=    80.00 Ry     beta=0.70
     Davidson diagonalization with overlap
     ethr =  1.03E-08,  avg # of iterations =  7.8

     negative rho (up, down):  9.837E-03 0.000E+00

     total cpu time spent up to now is    11942.7 secs

     total energy              =  -12738.85375541 Ry
     Harris-Foulkes estimate   =  -12738.85383966 Ry
     estimated scf accuracy    <       0.00008139 Ry

     iteration # 38     ecut=    80.00 Ry     beta=0.70
     Davidson diagonalization with overlap
     ethr =  6.27E-09,  avg # of iterations =  7.2

     negative rho (up, down):  4.560E-03 0.000E+00

     total cpu time spent up to now is    12195.0 secs

     total energy              =  -12738.85367437 Ry
     Harris-Foulkes estimate   =  -12738.85376241 Ry
     estimated scf accuracy    <       0.00004504 Ry

     iteration # 39     ecut=    80.00 Ry     beta=0.70
     Davidson diagonalization with overlap
     ethr =  3.47E-09,  avg # of iterations =  7.3

     negative rho (up, down):  2.501E-03 0.000E+00

     total cpu time spent up to now is    12447.9 secs

     total energy              =  -12738.85366105 Ry
     Harris-Foulkes estimate   =  -12738.85367747 Ry
     estimated scf accuracy    <       0.00000693 Ry

     iteration # 40     ecut=    80.00 Ry     beta=0.70
     Davidson diagonalization with overlap
     ethr =  5.34E-10,  avg # of iterations =  4.3

     negative rho (up, down):  1.934E-03 0.000E+00

     total cpu time spent up to now is    12673.2 secs

     total energy              =  -12738.85366084 Ry
     Harris-Foulkes estimate   =  -12738.85366197 Ry
     estimated scf accuracy    <       0.00000365 Ry

     iteration # 41     ecut=    80.00 Ry     beta=0.70
     Davidson diagonalization with overlap
     ethr =  2.81E-10,  avg # of iterations =  2.7

     negative rho (up, down):  1.928E-03 0.000E+00

     total cpu time spent up to now is    12868.6 secs

     total energy              =  -12738.85366142 Ry
     Harris-Foulkes estimate   =  -12738.85366124 Ry
     estimated scf accuracy    <       0.00000122 Ry

     iteration # 42     ecut=    80.00 Ry     beta=0.70
     Davidson diagonalization with overlap
     ethr =  9.39E-11,  avg # of iterations =  2.0

     negative rho (up, down):  2.089E-03 0.000E+00

     total cpu time spent up to now is    13053.2 secs

     total energy              =  -12738.85366156 Ry
     Harris-Foulkes estimate   =  -12738.85366151 Ry
     estimated scf accuracy    <       0.00000034 Ry

     iteration # 43     ecut=    80.00 Ry     beta=0.70
     Davidson diagonalization with overlap
     ethr =  2.62E-11,  avg # of iterations =  3.0

     negative rho (up, down):  2.074E-03 0.000E+00

     total cpu time spent up to now is    13259.2 secs

     total energy              =  -12738.85366160 Ry
     Harris-Foulkes estimate   =  -12738.85366160 Ry
     estimated scf accuracy    <       0.00000005 Ry

     iteration # 44     ecut=    80.00 Ry     beta=0.70
     Davidson diagonalization with overlap
     ethr =  3.55E-12,  avg # of iterations =  3.0

     negative rho (up, down):  2.087E-03 0.000E+00

     total cpu time spent up to now is    13501.9 secs

     total energy              =  -12738.85366160 Ry
     Harris-Foulkes estimate   =  -12738.85366161 Ry
     estimated scf accuracy    <       0.00000002 Ry

     iteration # 45     ecut=    80.00 Ry     beta=0.70
     Davidson diagonalization with overlap
     ethr =  1.91E-12,  avg # of iterations =  1.8

     negative rho (up, down):  2.107E-03 0.000E+00

     total cpu time spent up to now is    13684.8 secs

     total energy              =  -12738.85366158 Ry
     Harris-Foulkes estimate   =  -12738.85366160 Ry
     estimated scf accuracy    <       0.00000001 Ry

     iteration # 46     ecut=    80.00 Ry     beta=0.70
     Davidson diagonalization with overlap
     ethr =  8.03E-13,  avg # of iterations =  3.0

     negative rho (up, down):  2.094E-03 0.000E+00

     total cpu time spent up to now is    13878.1 secs

     End of self-consistent calculation

          k = 0.0000 0.0000 0.0000 (256287 PWs)   bands (ev):

   -19.3723 -16.8371 -16.2765 -15.9537 -15.4372 -14.9280 -14.7595 -14.5616
   -14.3002 -14.2329 -14.1566 -13.9939 -13.4144 -13.2184 -13.1744 -13.1394
   -13.1186 -12.6363 -11.6152 -11.5408 -11.4193 -11.3083 -11.0919 -10.3567
    -9.7781  -9.7498  -9.6361  -9.4577  -8.9653  -8.8239  -8.7174  -8.6151
    -8.0463  -7.9286  -7.7964  -7.6629  -7.6297  -7.5824  -7.5625  -7.5536
    -6.4442  -6.3718  -6.2079  -6.0897  -6.0734  -6.0307  -5.9356  -5.9074
    -5.8626  -5.5446  -5.5375  -5.2167  -4.9420  -4.9158  -4.8506  -4.7270
    -4.6442  -4.6286  -4.5052  -4.2894  -4.1504  -4.0885  -4.0447  -4.0415
    -3.9637  -3.7938  -3.6973  -3.5903  -3.5688  -3.4754  -3.4621  -3.4465
    -3.4399  -3.2891  -3.2312  -3.2158  -3.1825  -3.1217  -3.0647  -3.0625
    -3.0589  -3.0548  -2.9567  -2.9133  -2.8678  -2.8452  -2.7968  -2.7938
    -2.7826  -2.7621  -2.7306  -2.6560  -2.5379  -2.4637  -2.4322  -2.3953
    -2.3914  -2.3038  -2.2681  -2.2475  -2.2462  -2.2169  -2.2070  -2.2067
    -2.2064  -2.2055  -2.1755  -2.1466  -2.0781  -2.0771  -2.0746  -2.0738
    -2.0614  -2.0114  -1.8953  -1.8482  -1.8314  -1.7947  -1.7933  -1.7928
    -1.7817  -1.7546  -1.7434  -1.7268  -1.7134  -1.7111  -1.6932  -1.6565
    -1.6493  -1.6252  -1.6181  -1.6170  -1.6107  -1.6026  -1.5909  -1.5837
    -1.5700  -1.5688  -1.5624  -1.5000  -1.4908  -1.4710  -1.4606  -1.4583
    -1.4459  -1.4269  -1.4074  -1.3839  -1.3535  -1.3203  -1.3172  -1.3143
    -1.3036  -1.2666  -1.2654  -1.2496  -1.2461  -1.2440  -1.2213  -1.2187
    -1.1826  -1.1739  -1.1587  -1.1094  -1.1041  -1.0998  -1.0951  -1.0867
    -1.0779  -1.0774  -1.0763  -1.0757  -1.0718  -1.0705  -1.0636  -1.0620
    -1.0530  -1.0375  -1.0154  -1.0066  -0.9932  -0.9847  -0.9803  -0.9739
    -0.9735  -0.9712  -0.9421  -0.9139  -0.9124  -0.9112  -0.9103  -0.9091
    -0.9087  -0.9078  -0.9063  -0.9054  -0.9039  -0.9026  -0.9024  -0.8992
    -0.8968  -0.8964  -0.8855  -0.8814  -0.8615  -0.8533  -0.8401  -0.7453
    -0.7439  -0.7408  -0.7380  -0.7373  -0.7162  -0.7140  -0.6968  -0.6962
    -0.6759  -0.6739  -0.6671  -0.6603  -0.6553  -0.6546  -0.6425  -0.6206
    -0.6194  -0.6156  -0.6152  -0.6086  -0.6080  -0.5973  -0.5966  -0.5738
    -0.5479  -0.5463  -0.4932  -0.4930  -0.4835  -0.4820  -0.4797  -0.4788
    -0.4653  -0.4642  -0.4598  -0.4589  -0.4586  -0.4579  -0.4551  -0.4545
    -0.4396  -0.4395  -0.4341  -0.4316  -0.4300  -0.4065  -0.4058  -0.4053
    -0.3554  -0.3530  -0.3507  -0.3457  -0.3456  -0.3200  -0.3198  -0.3175
    -0.3174  -0.3103  -0.3018  -0.2995  -0.2970  -0.2968  -0.2787  -0.2749
    -0.2738  -0.2724  -0.2707  -0.2691  -0.2677  -0.2657  -0.2644  -0.2641
    -0.2589  -0.2447  -0.2446  -0.2424  -0.2412  -0.2210  -0.1783  -0.1751
    -0.1730  -0.1724  -0.1706  -0.1697  -0.1272  -0.1260  -0.1226  -0.1222
    -0.1170  -0.1168  -0.1165  -0.1157  -0.1150  -0.1058  -0.0970  -0.0842
    -0.0646  -0.0631  -0.0621  -0.0600  -0.0539  -0.0376  -0.0341  -0.0334
    -0.0296  -0.0280  -0.0226  -0.0090  -0.0082  -0.0081  -0.0079  -0.0051
    -0.0037   0.0079   0.0091   0.0095   0.0098   0.0126   0.0203   0.0216
     0.0301   0.0471   0.0486   0.0709   0.0808   0.0832   0.1093   0.1107
     0.1225   0.1347   0.1417   0.1515   0.1785   0.1812   0.1820   0.1880
     0.1884   0.1914   0.2146   0.2164   0.2184   0.2191   0.2207   0.2258
     0.2306   0.2352   0.2727   0.2861   0.2868   0.2886   0.2938   0.2968
     0.2984   0.3201   0.3233   0.3285   0.3292   0.3302   0.3324   0.3598
     0.3624   0.3663   0.3747   0.3801   0.3858   0.3861   0.3875   0.4202
     0.4244   0.4364   0.4399   0.4410   0.4451   0.4452   0.4536   0.4615
     0.4679   0.4754   0.4762   0.4794   0.4805   0.4812   0.4833   0.4851
     0.4891   0.4910   0.4949   0.4974   0.5005   0.5015   0.5074   0.5095
     0.5109   0.5414   0.5475   0.5518   0.5522   0.5572   0.5662   0.5929
     0.5931   0.5940   0.5952   0.5999   0.6003   0.6006   0.6015   0.6037
     0.6148   0.6204   0.6231   0.6248   0.6261   0.6267   0.6334   0.6335
     0.6433   0.6462   0.6560   0.6661   0.6667   0.6691   0.6726   0.6803
     0.6843   0.6884   0.6931   0.6948   0.6948   0.6966   0.7001   0.7012
     0.7029   0.7049   0.7143   0.7513   0.7521   0.7620   0.7640   0.7672
     0.7687   0.7702   0.7709   0.7928   0.7984   0.8017   0.8128   0.8196
     0.8222   0.8223   0.8230   0.8361   0.8366   0.8451   0.8465   0.8480
     0.8499   0.8544   0.8667   0.8820   0.8836   0.8871   0.8880   0.8881
     0.8896   0.9016   0.9064   0.9228   0.9290   0.9317   0.9333   0.9431
     0.9466   0.9577   0.9583   0.9587   0.9588   0.9601   0.9650   0.9684
     0.9717   0.9735   0.9746   0.9751   0.9758   0.9906   0.9907   0.9965
     1.0060   1.0109   1.0109   1.0142   1.0197   1.0248   1.0454   1.0507
     1.0510   1.0553   1.0567   1.0587   1.0620   1.0640   1.0660   1.0662
     1.0668   1.0673   1.0691   1.0797   1.0823   1.0843   1.1021   1.1203
     1.1299   1.1334   1.1430   1.1464   1.1489   1.1499   1.1514   1.1528
     1.1563   1.1697   1.1713   1.1827   1.1835   1.1855   1.1872   1.1873
     1.1898   1.1907   1.1934   1.2007   1.2141   1.2186   1.2196   1.2201
     1.2219   1.2235   1.2244   1.2245   1.2277   1.2400   1.2402   1.2411
     1.2462   1.2556   1.2565   1.2571   1.2577   1.2581   1.2662   1.2700
     1.2725   1.2819   1.2907   1.2957   1.3003   1.3004   1.3025   1.3058
     1.3118   1.3264   1.3288   1.3338   1.3340   1.3380   1.3407   1.3494
     1.3599   1.3622   1.3663   1.3694   1.3698   1.3732   1.3795   1.3811
     1.3813   1.3818   1.3832   1.3844   1.3849   1.3949   1.3962   1.3967
     1.4047   1.4126   1.4130   1.4137   1.4146   1.4166   1.4269   1.4293
     1.4427   1.4560   1.4643   1.4670   1.4958   1.5031   1.5075   1.5082
     1.5122   1.5259   1.5283   1.5308   1.5335   1.5392   1.5519   1.5749
     1.5794   1.5802   1.5814   1.5852   1.5890   1.5899   1.5905   1.8429
     1.9021   2.0516   2.0575   2.0954   2.1120   2.1382   2.1518   2.1535
     2.1543   2.1596   2.1686   2.1744   2.1783   2.3177   2.3471   2.3639
     2.4032   2.4201   2.4220   2.4245   2.4320   2.4743   2.6481   2.6707
     2.6762   2.6888   2.8294   2.9705   3.1430   3.2951   3.4779   3.4808
     3.7517   3.7690   3.7921   3.8015   3.8067   3.8082   3.8539   3.9056
     3.9270   3.9482   3.9546   3.9551   3.9596   3.9614   3.9682   3.9758
     4.1010   4.2048   4.2104   4.2146   4.2443   4.3805   4.5365   4.7094
     4.7190   4.8833   5.1901   5.2476   5.3594   5.3796   5.3965   5.6204
     5.6731   5.6859   5.6933   5.8224   5.8802   5.9294   6.2945   6.3199
     6.3369   6.3583   6.3825   6.4367   6.4406   6.4581   6.4991   6.5530
     6.6503   6.6531   6.7158   6.7423   6.7711   6.8059   6.9457   6.9611
     6.9979   7.0138   7.0498   7.0604   7.1615   7.3042   7.3084   7.5185
     7.5252   7.5850   7.6529   7.6563   7.6611   7.6786   7.7418   8.0823
     8.1393   8.1621   8.1815   8.2727   8.2818   8.2837   8.2909   8.3027
     8.3248   8.3513   8.3575   8.3628   8.3795   8.4892   8.4994   8.5111
     8.6198   8.6217   8.6278   8.6358   8.7130   8.7886   8.7913   8.7966
     8.8026   8.8353   8.8413   9.0385   9.0766   9.0804   9.0861   9.0906
     9.0989   9.1863   9.2688   9.2928   9.2971   9.4011   9.5228   9.5286
     9.6237   9.6551   9.7516   9.7767   9.7875   9.9269   9.9889   9.9902
    10.0520  10.0848  10.1355

          k = 0.0000-0.2165 0.0000 (256176 PWs)   bands (ev):

   -19.3723 -16.8372 -16.2856 -15.9174 -15.4731 -15.0691 -14.6138 -14.3875
   -14.3645 -14.2609 -14.0148 -13.8634 -13.7902 -13.7358 -13.3908 -12.5466
   -12.4357 -12.3543 -12.2181 -12.1091 -11.8000 -10.6263 -10.5793 -10.4630
   -10.3693  -9.4375  -9.3930  -9.2880  -9.1241  -9.0035  -8.9797  -8.4301
    -8.3111  -8.2730  -8.1539  -7.4792  -7.3667  -7.0754  -7.0163  -6.9466
    -6.9289  -6.9197  -6.8691  -6.2204  -6.1280  -5.9405  -5.9386  -5.6430
    -5.4610  -5.2908  -5.1936  -5.1479  -5.0324  -5.0102  -4.8989  -4.8920
    -4.8030  -4.7346  -4.6453  -4.6304  -4.4988  -4.2284  -4.0542  -3.9121
    -3.8026  -3.7426  -3.5924  -3.4494  -3.3943  -3.3593  -3.3587  -3.3486
    -3.3365  -3.2801  -3.2464  -3.1289  -3.1157  -3.0952  -3.0860  -3.0765
    -2.9423  -2.9336  -2.9112  -2.8727  -2.8471  -2.8225  -2.7983  -2.7273
    -2.6966  -2.6552  -2.6352  -2.6330  -2.6327  -2.6316  -2.6271  -2.5430
    -2.4488  -2.3908  -2.3690  -2.3272  -2.2997  -2.2943  -2.2875  -2.2145
    -2.2027  -2.2006  -2.1987  -2.1461  -2.0957  -2.0577  -2.0412  -2.0411
    -2.0156  -2.0153  -1.9440  -1.9170  -1.9105  -1.8704  -1.8429  -1.8221
    -1.8212  -1.8054  -1.8038  -1.7956  -1.7955  -1.7789  -1.7754  -1.7298
    -1.7066  -1.7018  -1.6980  -1.6600  -1.6252  -1.5629  -1.5253  -1.5206
    -1.5157  -1.5148  -1.4714  -1.4374  -1.4263  -1.4250  -1.4220  -1.3719
    -1.3704  -1.3437  -1.3344  -1.3320  -1.3292  -1.3290  -1.3277  -1.3244
    -1.3045  -1.2994  -1.2864  -1.2807  -1.2784  -1.2775  -1.2671  -1.2643
    -1.2174  -1.2023  -1.1984  -1.1891  -1.1881  -1.1434  -1.1430  -1.1140
    -1.1053  -1.1049  -1.1017  -1.1016  -1.0619  -1.0595  -1.0400  -1.0395
    -1.0366  -1.0340  -1.0336  -1.0321  -0.9829  -0.9813  -0.9741  -0.9737
    -0.9659  -0.9651  -0.9560  -0.9504  -0.9498  -0.9483  -0.9114  -0.8848
    -0.8820  -0.8813  -0.8737  -0.8725  -0.8673  -0.8596  -0.8522  -0.8502
    -0.8428  -0.8341  -0.8240  -0.8098  -0.8088  -0.8042  -0.7959  -0.7121
    -0.7119  -0.7064  -0.7054  -0.6878  -0.6875  -0.6627  -0.6610  -0.6597
    -0.6591  -0.6557  -0.6555  -0.6316  -0.6291  -0.6071  -0.5975  -0.5971
    -0.5952  -0.5941  -0.5925  -0.5922  -0.5894  -0.5877  -0.5683  -0.5591
    -0.5582  -0.5383  -0.5383  -0.5360  -0.5247  -0.5030  -0.5027  -0.5008
    -0.4998  -0.4927  -0.4915  -0.4874  -0.4861  -0.4616  -0.4157  -0.4153
    -0.4093  -0.4079  -0.4068  -0.3820  -0.3792  -0.3655  -0.3576  -0.3556
    -0.3515  -0.3510  -0.3492  -0.3484  -0.3274  -0.3260  -0.3213  -0.3211
    -0.3148  -0.3091  -0.3052  -0.3042  -0.2999  -0.2994  -0.2980  -0.2976
    -0.2961  -0.2901  -0.2864  -0.2652  -0.2613  -0.2594  -0.2585  -0.2582
    -0.2336  -0.1980  -0.1956  -0.1941  -0.1933  -0.1871  -0.1854  -0.1849
    -0.1813  -0.1798  -0.1658  -0.1604  -0.1536  -0.1464  -0.1421  -0.1409
    -0.1388  -0.1328  -0.1323  -0.1297  -0.1294  -0.1283  -0.1271  -0.1159
    -0.0735  -0.0718  -0.0708  -0.0699  -0.0689  -0.0509  -0.0491  -0.0489
    -0.0464  -0.0459  -0.0402  -0.0281  -0.0268  -0.0265  -0.0226  -0.0199
    -0.0077   0.0043   0.0058   0.0209   0.0211   0.0213   0.0228   0.0372
     0.0406   0.0560   0.0563   0.0660   0.0665   0.0703   0.0791   0.0810
     0.0814   0.0865   0.1226   0.1228   0.1309   0.1320   0.1398   0.1451
     0.1469   0.1478   0.1733   0.1747   0.2071   0.2087   0.2117   0.2131
     0.2404   0.2472   0.2518   0.2987   0.3281   0.3288   0.3319   0.3345
     0.3407   0.3551   0.3572   0.3573   0.3590   0.3708   0.3900   0.3947
     0.3968   0.3985   0.3992   0.4013   0.4034   0.4040   0.4088   0.4135
     0.4209   0.4228   0.4238   0.4253   0.4277   0.4297   0.4328   0.4358
     0.4606   0.4620   0.4726   0.4731   0.4735   0.4747   0.4822   0.4822
     0.4877   0.5013   0.5016   0.5022   0.5035   0.5046   0.5049   0.5053
     0.5091   0.5238   0.5253   0.5259   0.5291   0.5301   0.5318   0.5332
     0.5335   0.5429   0.5482   0.5513   0.5904   0.5908   0.6026   0.6026
     0.6112   0.6121   0.6135   0.6147   0.6156   0.6194   0.6200   0.6250
     0.6284   0.6286   0.6290   0.6326   0.6669   0.6698   0.6703   0.6708
     0.6796   0.6867   0.6880   0.6881   0.6895   0.6929   0.7042   0.7082
     0.7200   0.7203   0.7222   0.7270   0.7290   0.7312   0.7452   0.7804
     0.7804   0.8313   0.8326   0.8361   0.8384   0.8395   0.8421   0.8463
     0.8508   0.8551   0.8562   0.8618   0.8630   0.8644   0.8685   0.8706
     0.8721   0.8794   0.8837   0.8859   0.8875   0.8885   0.8899   0.8946
     0.9010   0.9036   0.9124   0.9127   0.9128   0.9142   0.9148   0.9169
     0.9200   0.9285   0.9296   0.9354   0.9355   0.9362   0.9395   0.9402
     0.9433   0.9563   0.9574   0.9642   0.9705   0.9723   0.9741   0.9757
     0.9779   0.9838   0.9845   0.9846   0.9851   0.9860   0.9877   1.0227
     1.0367   1.0515   1.0727   1.0736   1.0753   1.0872   1.0903   1.0945
     1.0967   1.1005   1.1112   1.1157   1.1167   1.1283   1.1330   1.1359
     1.1375   1.1384   1.1412   1.1434   1.1457   1.1459   1.1467   1.1474
     1.1490   1.1497   1.1513   1.1555   1.1565   1.1641   1.1739   1.1761
     1.1784   1.1800   1.1815   1.1862   1.1878   1.2096   1.2145   1.2152
     1.2191   1.2216   1.2230   1.2235   1.2255   1.2375   1.2436   1.2452
     1.2468   1.2564   1.2577   1.2579   1.2598   1.2608   1.2628   1.2751
     1.2783   1.2789   1.2795   1.2955   1.2963   1.2976   1.3001   1.3186
     1.3199   1.3245   1.3248   1.3264   1.3271   1.3390   1.3406   1.3413
     1.3422   1.3571   1.3585   1.3707   1.3722   1.3723   1.3729   1.3913
     1.3929   1.3935   1.3937   1.3962   1.3966   1.3976   1.3977   1.4244
     1.4253   1.4311   1.4337   1.4362   1.4410   1.4457   1.4565   1.4643
     1.4655   1.4659   1.4677   1.4715   1.4780   1.4839   1.4896   1.5245
     1.5293   1.5351   1.5366   1.5601   1.6368   1.6422   1.6604   1.6689
     1.6755   1.6791   1.6926   1.7212   1.7351   1.7358   1.7378   1.7474
     1.7594   1.7611   1.7628   1.7954   1.7983   1.8004   1.9287   2.0667
     2.3173   2.3633   2.3709   2.3716   2.3763   2.4426   2.4449   2.5063
     2.5144   2.5190   2.5212   2.5294   2.5350   2.6540   2.6577   2.7138
     2.7165   2.7286   2.7329   2.8688   2.8702   3.1057   3.1161   3.1163
     3.1289   3.2356   3.3729   3.3926   3.6182   3.6288   3.7266   3.9206
     4.0293   4.0347   4.0644   4.0695   4.2443   4.2760   4.2842   4.2857
     4.3084   4.4514   4.4578   4.6512   4.6665   4.7289   4.7401   4.8280
     5.0327   5.0491   5.0645   5.1759   5.2937   5.3069   5.3090   5.3107
     5.3637   5.3965   5.5550   5.6357   5.6780   5.7855   6.1141   6.3176
     6.3664   6.3849   6.4004   6.4135   6.4143   6.4685   6.5123   6.6067
     6.6167   6.6640   6.7761   6.7982   6.9745   6.9867   7.0080   7.0243
     7.0338   7.0491   7.0737   7.0886   7.0913   7.1223   7.2705   7.3035
     7.3187   7.3933   7.4308   7.4537   7.6506   7.6903   7.7420   7.9027
     7.9224   8.0929   8.0947   8.2151   8.3062   8.3091   8.3970   8.4141
     8.4167   8.4298   8.4428   8.4618   8.5383   8.5874   8.6608   8.6630
     8.6720   8.6773   8.7102   8.7151   8.7835   8.8741   8.9168   8.9330
     8.9574   8.9914   9.1034   9.1072   9.1451   9.1892   9.2768   9.3242
     9.3290   9.3392   9.3464   9.3673   9.4226   9.4492   9.4575   9.4643
     9.4736   9.4806   9.5013   9.6276   9.6365   9.7309   9.7343   9.8352
     9.8356   9.9310  10.0544

          k = 0.2500 0.0000 0.0000 (256240 PWs)   bands (ev):

   -19.3696 -16.7762 -16.1673 -15.8609 -15.6256 -15.1789 -14.9867 -14.9481
   -14.6287 -14.1258 -13.8510 -13.6821 -13.2512 -13.1384 -13.0897 -12.8185
   -12.3253 -12.2176 -12.1605 -11.8901 -11.2122 -11.0217 -10.7759 -10.6864
   -10.3443 -10.1843  -9.9556  -9.8411  -9.5193  -9.2861  -9.1549  -8.6897
    -8.0167  -7.8124  -7.7369  -7.5948  -7.5597  -7.4715  -7.1192  -7.0014
    -6.3622  -6.2563  -6.1054  -6.0589  -5.9653  -5.8945  -5.5187  -5.3908
    -5.3667  -5.3624  -5.0819  -4.9695  -4.7795  -4.7271  -4.5947  -4.5298
    -4.5220  -4.5008  -4.4822  -4.4404  -4.2986  -4.1879  -4.0746  -4.0567
    -4.0462  -4.0023  -3.9554  -3.8971  -3.8934  -3.8234  -3.6899  -3.6508
    -3.6311  -3.5908  -3.5666  -3.4633  -3.4391  -3.3484  -3.3142  -3.2867
    -3.2394  -3.1478  -3.0835  -3.0374  -2.9723  -2.8579  -2.8539  -2.8491
    -2.7887  -2.7109  -2.6811  -2.6714  -2.6651  -2.5623  -2.4545  -2.4292
    -2.3935  -2.3725  -2.1589  -2.1546  -2.1498  -2.1371  -2.1343  -2.1120
    -2.0500  -2.0323  -1.9614  -1.9482  -1.9324  -1.8905  -1.8622  -1.8566
    -1.8559  -1.8487  -1.8480  -1.8285  -1.8217  -1.7997  -1.7853  -1.7714
    -1.7660  -1.7327  -1.7163  -1.7043  -1.6883  -1.6582  -1.6392  -1.6380
    -1.6352  -1.6334  -1.6331  -1.6313  -1.5800  -1.5748  -1.5585  -1.5569
    -1.5453  -1.5439  -1.4527  -1.4268  -1.3903  -1.3855  -1.3712  -1.3669
    -1.3274  -1.3215  -1.3045  -1.2990  -1.2977  -1.2924  -1.2795  -1.2677
    -1.2630  -1.2597  -1.2400  -1.2377  -1.2361  -1.2311  -1.2084  -1.1937
    -1.1907  -1.1885  -1.1864  -1.1796  -1.1701  -1.1668  -1.1655  -1.1490
    -1.1297  -1.1180  -1.1056  -1.1039  -1.1026  -1.0901  -1.0850  -1.0722
    -1.0674  -1.0658  -1.0575  -1.0557  -1.0497  -1.0425  -1.0364  -1.0351
    -1.0347  -1.0331  -1.0314  -1.0299  -1.0193  -1.0043  -1.0018  -0.9991
    -0.9938  -0.9678  -0.9574  -0.9563  -0.9512  -0.9086  -0.9064  -0.8712
    -0.8707  -0.8552  -0.8497  -0.8427  -0.8331  -0.8257  -0.8235  -0.8116
    -0.8083  -0.8076  -0.8032  -0.7978  -0.7946  -0.7774  -0.6615  -0.6572
    -0.6553  -0.6534  -0.6246  -0.6232  -0.6217  -0.6073  -0.6053  -0.6045
    -0.6039  -0.6027  -0.5904  -0.5825  -0.5811  -0.5802  -0.5761  -0.5601
    -0.5433  -0.5403  -0.5396  -0.5371  -0.5363  -0.5241  -0.5153  -0.5150
    -0.5127  -0.4604  -0.4544  -0.4537  -0.4518  -0.4465  -0.4436  -0.4414
    -0.4352  -0.4298  -0.4118  -0.4111  -0.3924  -0.3883  -0.3873  -0.3839
    -0.3781  -0.3516  -0.3493  -0.3482  -0.3461  -0.3400  -0.3378  -0.3354
    -0.3276  -0.3243  -0.3166  -0.3075  -0.2984  -0.2888  -0.2848  -0.2723
    -0.2582  -0.2537  -0.2529  -0.2514  -0.2436  -0.2395  -0.2356  -0.2348
    -0.2338  -0.2260  -0.2066  -0.2064  -0.2057  -0.1939  -0.1912  -0.1681
    -0.1661  -0.1652  -0.1466  -0.1221  -0.1183  -0.1173  -0.1131  -0.1105
    -0.0975  -0.0870  -0.0748  -0.0741  -0.0711  -0.0665  -0.0651  -0.0614
    -0.0545  -0.0516  -0.0512  -0.0480  -0.0467  -0.0457  -0.0439  -0.0413
    -0.0235  -0.0209  -0.0206  -0.0164  -0.0134  -0.0078   0.0039   0.0049
     0.0191   0.0231   0.0370   0.0578   0.0592   0.0613   0.0618   0.0634
     0.0674   0.0754   0.0844   0.0863   0.0865   0.0880   0.0889   0.0961
     0.1247   0.1263   0.1791   0.1967   0.1991   0.2003   0.2040   0.2155
     0.2173   0.2186   0.2201   0.2218   0.2271   0.2281   0.2304   0.2338
     0.2349   0.2374   0.2431   0.2520   0.2526   0.2538   0.2616   0.2661
     0.2669   0.2724   0.2757   0.2806   0.2818   0.2985   0.3024   0.3104
     0.3193   0.3341   0.3490   0.3510   0.3678   0.3690   0.3799   0.3878
     0.3888   0.3896   0.3932   0.4022   0.4096   0.4226   0.4253   0.4278
     0.4305   0.4307   0.4361   0.4382   0.4409   0.4422   0.4617   0.4626
     0.4679   0.4770   0.4852   0.4886   0.4905   0.4927   0.4961   0.4975
     0.5011   0.5042   0.5221   0.5241   0.5253   0.5314   0.5377   0.5404
     0.5416   0.5431   0.5547   0.5560   0.5589   0.5623   0.5640   0.5793
     0.5828   0.5861   0.6005   0.6041   0.6090   0.6115   0.6147   0.6169
     0.6214   0.6337   0.6480   0.6506   0.6689   0.6719   0.6851   0.6862
     0.6894   0.6911   0.6951   0.7056   0.7096   0.7116   0.7168   0.7205
     0.7237   0.7271   0.7328   0.7435   0.7474   0.7565   0.7603   0.7683
     0.7696   0.7708   0.7844   0.7949   0.8011   0.8024   0.8041   0.8079
     0.8252   0.8263   0.8357   0.8380   0.8393   0.8402   0.8432   0.8472
     0.8483   0.8517   0.8540   0.8673   0.8876   0.8935   0.8997   0.9010
     0.9028   0.9144   0.9166   0.9240   0.9351   0.9368   0.9380   0.9389
     0.9449   0.9464   0.9480   0.9616   0.9636   0.9645   0.9651   0.9662
     0.9677   0.9693   0.9711   0.9734   0.9763   0.9780   0.9784   0.9870
     0.9886   0.9990   1.0035   1.0072   1.0109   1.0147   1.0159   1.0212
     1.0222   1.0299   1.0361   1.0369   1.0495   1.0518   1.0530   1.0553
     1.0577   1.0669   1.0694   1.0774   1.0814   1.0840   1.0902   1.0927
     1.1011   1.1038   1.1054   1.1114   1.1200   1.1300   1.1353   1.1371
     1.1389   1.1477   1.1734   1.1810   1.1823   1.1880   1.1908   1.1934
     1.1979   1.1987   1.2002   1.2015   1.2076   1.2093   1.2148   1.2235
     1.2245   1.2263   1.2329   1.2431   1.2453   1.2460   1.2467   1.2508
     1.2564   1.2577   1.2596   1.2612   1.2639   1.2662   1.2678   1.2691
     1.2758   1.2793   1.2865   1.2937   1.2969   1.2976   1.3034   1.3043
     1.3057   1.3069   1.3139   1.3260   1.3263   1.3267   1.3429   1.3475
     1.3489   1.3561   1.3621   1.3657   1.3680   1.3687   1.3709   1.3726
     1.3738   1.3790   1.3798   1.3800   1.3860   1.3881   1.3930   1.4082
     1.4100   1.4121   1.4123   1.4146   1.4152   1.4168   1.4288   1.4290
     1.4364   1.4410   1.4471   1.4526   1.4535   1.4559   1.4601   1.4637
     1.4728   1.4919   1.4984   1.5072   1.5273   1.5443   1.5690   1.5709
     1.5737   1.5917   1.6125   1.6492   1.6883   1.7052   1.7087   1.7108
     1.7252   1.7447   1.7651   1.7828   1.9452   1.9763   2.0015   2.0200
     2.0338   2.0382   2.0624   2.1450   2.2065   2.2164   2.5029   2.5092
     2.5130   2.5170   2.9205   2.9213   2.9622   3.1345   3.1385   3.1624
     3.1637   3.1797   3.2326   3.2706   3.4130   3.4412   3.5309   3.5480
     3.5751   3.5892   3.6392   3.6560   3.6647   3.6724   3.6991   3.8196
     3.8271   3.8899   3.9282   3.9644   4.1384   4.1604   4.1753   4.2244
     4.3334   4.4489   4.5773   4.7342   4.7522   4.7867   4.9748   5.1257
     5.1661   5.1697   5.1788   5.2339   5.3265   5.4181   5.4264   5.4486
     5.5085   5.5308   5.5604   5.5883   5.6457   5.6721   5.6948   5.6975
     5.7848   5.7967   5.8775   5.9537   5.9586   5.9760   6.0220   6.3035
     6.5665   6.6469   6.6521   6.6802   6.6983   6.7086   6.7744   6.8514
     6.9453   6.9723   6.9907   7.0019   7.0095   7.0216   7.1919   7.2160
     7.2529   7.2877   7.3909   7.4878   7.5015   7.5096   7.5248   7.7345
     7.7443   7.7654   7.8470   7.9377   7.9647   7.9831   8.0137   8.0636
     8.1638   8.2172   8.2573   8.2643   8.2796   8.3074   8.3637   8.3801
     8.4062   8.4680   8.5099   8.5919   8.5971   8.8947   8.9071   8.9723
     9.0062   9.0395   9.0899   9.1265   9.1441   9.1630   9.1801   9.2014
     9.2170   9.2325   9.2712   9.3744   9.3916   9.4015   9.4153   9.4336
     9.6060   9.6499   9.6706   9.6840   9.8007   9.8512   9.8942   9.9112
     9.9211   9.9391   9.9607

          k = 0.2500-0.2165 0.0000 (256316 PWs)   bands (ev):

   -19.3696 -16.7763 -16.1703 -15.8772 -15.4904 -15.3391 -15.1675 -14.7369
   -14.4651 -14.2314 -13.9415 -13.6233 -13.3084 -13.2281 -13.0112 -12.7945
   -12.5633 -12.0470 -11.9006 -11.5227 -11.4310 -11.2246 -11.1229 -10.8049
   -10.6292  -9.8846  -9.7694  -9.3853  -9.3035  -9.1182  -9.0678  -8.6992
    -8.6297  -8.4956  -8.4329  -7.3163  -7.0514  -6.8665  -6.7171  -6.6459
    -6.5492  -6.4990  -6.3775  -6.1167  -6.0756  -5.7626  -5.7606  -5.4913
    -5.3265  -5.1931  -5.0487  -4.9889  -4.8530  -4.7345  -4.7289  -4.6135
    -4.5842  -4.4809  -4.4086  -4.4032  -4.3638  -4.3287  -4.2504  -4.1961
    -4.0926  -3.9602  -3.8949  -3.8448  -3.7787  -3.6350  -3.6250  -3.5588
    -3.5159  -3.5132  -3.4819  -3.4545  -3.3784  -3.3109  -3.2487  -3.2340
    -3.1660  -3.0946  -3.0587  -2.9863  -2.9718  -2.9640  -2.9630  -2.9165
    -2.8684  -2.7692  -2.7266  -2.7087  -2.5869  -2.4188  -2.3706  -2.3669
    -2.3263  -2.2705  -2.2331  -2.2239  -2.2233  -2.2224  -2.1787  -2.1064
    -2.0652  -2.0645  -2.0531  -2.0210  -2.0085  -1.9741  -1.9140  -1.8921
    -1.8689  -1.8675  -1.8668  -1.8493  -1.8057  -1.8043  -1.7785  -1.7767
    -1.7659  -1.7630  -1.7517  -1.7383  -1.7323  -1.7319  -1.7311  -1.7285
    -1.7225  -1.7213  -1.6389  -1.6345  -1.5250  -1.5240  -1.4639  -1.4386
    -1.4229  -1.4188  -1.3854  -1.3846  -1.3793  -1.3326  -1.3316  -1.3178
    -1.3174  -1.3093  -1.3045  -1.3030  -1.2961  -1.2938  -1.2794  -1.2788
    -1.2700  -1.2656  -1.2641  -1.2581  -1.2564  -1.2472  -1.2449  -1.2389
    -1.2243  -1.1926  -1.1868  -1.1852  -1.1812  -1.1776  -1.1698  -1.1684
    -1.1645  -1.1374  -1.1346  -1.1193  -1.0970  -1.0944  -1.0924  -1.0871
    -1.0798  -1.0776  -1.0541  -1.0508  -1.0496  -1.0307  -1.0272  -1.0164
    -1.0159  -1.0112  -1.0108  -1.0064  -1.0025  -0.9803  -0.9785  -0.9766
    -0.9567  -0.9546  -0.9258  -0.9199  -0.9171  -0.9168  -0.9084  -0.8360
    -0.8340  -0.8317  -0.8308  -0.8262  -0.8252  -0.8198  -0.7790  -0.7762
    -0.7678  -0.7674  -0.7618  -0.7605  -0.7570  -0.7499  -0.7478  -0.7102
    -0.7078  -0.6793  -0.6699  -0.6672  -0.6325  -0.6229  -0.6200  -0.6187
    -0.6177  -0.5965  -0.5894  -0.5876  -0.5782  -0.5727  -0.5573  -0.5564
    -0.5547  -0.5439  -0.5380  -0.5262  -0.5123  -0.5113  -0.5007  -0.4959
    -0.4949  -0.4926  -0.4636  -0.4629  -0.4564  -0.4496  -0.4482  -0.4384
    -0.4347  -0.4229  -0.4222  -0.4180  -0.4176  -0.4138  -0.4119  -0.4069
    -0.4058  -0.3907  -0.3869  -0.3760  -0.3721  -0.3708  -0.3459  -0.3408
    -0.3308  -0.3273  -0.3126  -0.3085  -0.2948  -0.2945  -0.2906  -0.2802
    -0.2735  -0.2719  -0.2695  -0.2652  -0.2601  -0.2364  -0.2254  -0.2088
    -0.2083  -0.1721  -0.1711  -0.1633  -0.1630  -0.1598  -0.1590  -0.1425
    -0.1421  -0.1386  -0.1244  -0.1235  -0.1146  -0.1076  -0.1056  -0.1011
    -0.0991  -0.0960  -0.0951  -0.0938  -0.0770  -0.0705  -0.0671  -0.0626
    -0.0584  -0.0574  -0.0565  -0.0562  -0.0535  -0.0527  -0.0480  -0.0447
    -0.0341  -0.0242  -0.0236  -0.0229  -0.0225   0.0098   0.0107   0.0167
     0.0192   0.0201   0.0271   0.0424   0.0453   0.0547   0.0656   0.0768
     0.0774   0.0832   0.0882   0.0916   0.0974   0.0980   0.1009   0.1036
     0.1127   0.1160   0.1217   0.1259   0.1486   0.1520   0.2102   0.2135
     0.2237   0.2248   0.2262   0.2277   0.2294   0.2314   0.2340   0.2370
     0.2383   0.2397   0.2579   0.2584   0.2643   0.2653   0.2672   0.2681
     0.2769   0.2793   0.2814   0.2848   0.3092   0.3151   0.3228   0.3251
     0.3286   0.3365   0.3407   0.3477   0.3546   0.3855   0.3878   0.3949
     0.3959   0.3986   0.4027   0.4031   0.4142   0.4149   0.4185   0.4216
     0.4250   0.4260   0.4272   0.4293   0.4420   0.4566   0.4579   0.4636
     0.4651   0.4794   0.4810   0.5053   0.5116   0.5126   0.5132   0.5189
     0.5447   0.5473   0.5499   0.5509   0.5530   0.5541   0.5590   0.5627
     0.5695   0.5711   0.5723   0.5775   0.5796   0.5910   0.5934   0.5964
     0.6017   0.6048   0.6127   0.6136   0.6168   0.6170   0.6243   0.6275
     0.6287   0.6327   0.6346   0.6383   0.6465   0.6471   0.6560   0.6568
     0.6612   0.6618   0.6632   0.6647   0.6663   0.6678   0.6965   0.6997
     0.7107   0.7134   0.7158   0.7291   0.7364   0.7500   0.7544   0.7682
     0.7687   0.7703   0.7705   0.7748   0.7754   0.7775   0.7985   0.7991
     0.7997   0.8002   0.8012   0.8016   0.8100   0.8153   0.8286   0.8292
     0.8327   0.8397   0.8423   0.8475   0.8515   0.8663   0.8740   0.8745
     0.8860   0.8998   0.9012   0.9064   0.9089   0.9095   0.9109   0.9143
     0.9194   0.9217   0.9402   0.9467   0.9488   0.9537   0.9633   0.9643
     0.9767   0.9826   0.9860   0.9988   1.0093   1.0162   1.0248   1.0255
     1.0290   1.0324   1.0348   1.0353   1.0362   1.0368   1.0373   1.0400
     1.0413   1.0506   1.0510   1.0572   1.0627   1.0647   1.0676   1.0816
     1.0842   1.1036   1.1092   1.1108   1.1127   1.1175   1.1208   1.1213
     1.1238   1.1250   1.1317   1.1339   1.1361   1.1368   1.1403   1.1453
     1.1479   1.1500   1.1516   1.1557   1.1647   1.1670   1.1683   1.1694
     1.1699   1.1713   1.1736   1.1836   1.1866   1.1904   1.1910   1.2140
     1.2150   1.2230   1.2237   1.2323   1.2387   1.2413   1.2432   1.2490
     1.2551   1.2561   1.2627   1.2681   1.2715   1.2764   1.2770   1.2787
     1.2817   1.2874   1.2916   1.2933   1.2934   1.3033   1.3055   1.3091
     1.3200   1.3247   1.3265   1.3273   1.3287   1.3300   1.3310   1.3373
     1.3383   1.3425   1.3489   1.3496   1.3546   1.3581   1.3647   1.3678
     1.3720   1.3782   1.3805   1.3830   1.3834   1.3869   1.3888   1.3890
     1.3901   1.3953   1.3989   1.3992   1.4088   1.4238   1.4239   1.4300
     1.4337   1.4411   1.4473   1.4541   1.4671   1.4707   1.4731   1.4784
     1.4949   1.4960   1.5022   1.5033   1.5252   1.5297   1.5657   1.5921
     1.6118   1.6144   1.6291   1.6822   1.7005   1.7060   1.7211   1.7251
     1.7351   1.7358   1.7391   1.7460   1.7933   1.8003   1.8961   2.0702
     2.0738   2.1026   2.1068   2.2327   2.2362   2.5250   2.5292   2.7002
     2.7313   2.7345   2.7365   2.7475   2.7495   2.7854   2.7896   2.9206
     2.9287   3.0177   3.0353   3.2017   3.4775   3.4901   3.5579   3.5740
     3.6320   3.6491   3.7826   3.7883   3.7925   3.8003   3.9373   3.9451
     3.9990   4.0156   4.1053   4.1083   4.2910   4.3184   4.3271   4.3791
     4.4998   4.5051   4.5534   4.6177   4.6280   4.6857   4.8850   4.8956
     4.9064   4.9747   4.9996   5.0279   5.1471   5.2340   5.2464   5.3609
     5.3781   5.3978   5.4040   5.4060   5.4655   5.6709   5.7075   5.7386
     5.8341   5.8574   5.8928   5.9151   6.0046   6.4555   6.5324   6.5501
     6.5935   6.6188   6.7023   6.7128   6.8179   6.8307   6.9645   7.0118
     7.0272   7.0421   7.0497   7.0601   7.0990   7.1553   7.1669   7.2620
     7.2774   7.2841   7.2924   7.3455   7.3789   7.3898   7.4103   7.6063
     7.6255   7.7400   7.7526   7.9030   7.9282   7.9562   8.0371   8.1102
     8.1409   8.1683   8.2051   8.2154   8.4241   8.5394   8.5422   8.5932
     8.5987   8.6141   8.6273   8.6601   8.6641   8.7864   8.8804   8.8950
     8.9009   8.9416   8.9577   9.0734   9.0916   9.1114   9.1205   9.1380
     9.1541   9.1703   9.2081   9.2190   9.2269   9.2538   9.3007   9.3107
     9.3551   9.3987   9.4120   9.5313   9.5965   9.6448   9.6592   9.8393
     9.9064   9.9252   9.9748

          k =-0.5000 0.0000 0.0000 (256496 PWs)   bands (ev):

   -19.3669 -16.6961 -16.0043 -15.7866 -15.6460 -15.6000 -15.3896 -14.8079
   -14.5401 -14.5333 -14.1377 -13.1567 -12.8028 -12.7487 -12.7142 -12.4321
   -12.2152 -11.9562 -11.9356 -11.8388 -11.6855 -11.2823 -11.2073 -10.8092
   -10.6627 -10.3462 -10.2704 -10.0074  -9.7878  -9.2009  -9.1328  -9.0020
    -8.9109  -7.8348  -7.6573  -7.5890  -7.4489  -7.4044  -7.3721  -6.3088
    -6.2607  -5.8802  -5.4046  -5.3668  -5.3629  -5.2390  -5.0801  -5.0135
    -4.9503  -4.8903  -4.8665  -4.8595  -4.8551  -4.8531  -4.7899  -4.7346
    -4.7146  -4.6745  -4.6559  -4.5984  -4.5028  -4.4519  -4.4217  -4.3174
    -4.1034  -4.0736  -4.0206  -4.0151  -4.0048  -3.8783  -3.7420  -3.6980
    -3.6292  -3.6111  -3.5609  -3.5247  -3.4786  -3.4764  -3.4742  -3.4713
    -3.4549  -3.4232  -3.3928  -3.2124  -3.0708  -2.9478  -2.9349  -2.8889
    -2.8186  -2.8083  -2.7837  -2.6806  -2.6573  -2.6395  -2.5273  -2.4918
    -2.4710  -2.3593  -2.3590  -2.3529  -2.3503  -2.1595  -2.0582  -1.9347
    -1.9341  -1.9332  -1.9326  -1.9324  -1.9296  -1.8762  -1.8363  -1.8092
    -1.8036  -1.7968  -1.7090  -1.7056  -1.7052  -1.7051  -1.6836  -1.6581
    -1.6574  -1.6553  -1.6549  -1.5654  -1.5561  -1.5430  -1.5424  -1.5389
    -1.5273  -1.4999  -1.4822  -1.4808  -1.4799  -1.4786  -1.4622  -1.4605
    -1.4134  -1.4121  -1.4089  -1.4077  -1.4012  -1.3978  -1.3960  -1.3939
    -1.3909  -1.3858  -1.3473  -1.3466  -1.3457  -1.3443  -1.3234  -1.3231
    -1.3228  -1.3213  -1.2595  -1.2590  -1.2395  -1.2387  -1.2371  -1.2362
    -1.2349  -1.2184  -1.2091  -1.2088  -1.2064  -1.2050  -1.2025  -1.1981
    -1.1632  -1.1627  -1.1618  -1.1608  -1.1415  -1.1398  -1.1318  -1.1110
    -1.1100  -1.0653  -1.0638  -1.0631  -1.0399  -1.0366  -1.0360  -1.0341
    -1.0332  -1.0119  -1.0068  -1.0054  -1.0048  -1.0016  -0.9979  -0.9930
    -0.9871  -0.9855  -0.9842  -0.9833  -0.9600  -0.9562  -0.9037  -0.8964
    -0.8947  -0.8935  -0.8928  -0.8502  -0.8491  -0.7901  -0.7669  -0.7663
    -0.7650  -0.7643  -0.7388  -0.7290  -0.7287  -0.7277  -0.7269  -0.7256
    -0.7175  -0.7115  -0.6910  -0.6865  -0.6860  -0.6834  -0.6777  -0.6733
    -0.6650  -0.6573  -0.6544  -0.6504  -0.6172  -0.6035  -0.5630  -0.5583
    -0.5342  -0.5320  -0.5282  -0.5119  -0.5111  -0.5082  -0.4812  -0.4800
    -0.4640  -0.4631  -0.4620  -0.4602  -0.4596  -0.4578  -0.4434  -0.4257
    -0.4234  -0.4226  -0.4221  -0.4199  -0.3853  -0.3848  -0.3833  -0.3828
    -0.3531  -0.3510  -0.3504  -0.3492  -0.3469  -0.3393  -0.3385  -0.3302
    -0.3059  -0.3056  -0.3044  -0.3037  -0.2915  -0.2903  -0.2760  -0.2634
    -0.2602  -0.2532  -0.2125  -0.1914  -0.1899  -0.1895  -0.1885  -0.1844
    -0.1831  -0.1822  -0.1793  -0.1450  -0.1435  -0.1425  -0.1386  -0.1085
    -0.1069  -0.0827  -0.0805  -0.0797  -0.0785  -0.0780  -0.0767  -0.0762
    -0.0753  -0.0746  -0.0741  -0.0734  -0.0725  -0.0640  -0.0025   0.0007
     0.0070   0.0071   0.0095   0.0141   0.0157   0.0175   0.0188   0.0204
     0.0220   0.0246   0.0252   0.0274   0.0302   0.0313   0.0324   0.0347
     0.0477   0.0479   0.0523   0.0622   0.0628   0.0630   0.0631   0.0635
     0.0649   0.0725   0.0729   0.0735   0.0746   0.0858   0.0873   0.0980
     0.0987   0.0993   0.0995   0.1071   0.1201   0.1282   0.1288   0.1470
     0.2003   0.2293   0.2308   0.2322   0.2335   0.2624   0.2635   0.2649
     0.2654   0.2773   0.2791   0.2796   0.2833   0.2869   0.2882   0.2887
     0.2909   0.2934   0.2944   0.2956   0.2977   0.2985   0.3008   0.3071
     0.3134   0.3146   0.3162   0.3178   0.3233   0.3325   0.3340   0.3416
     0.3421   0.3467   0.3478   0.3631   0.3732   0.4014   0.4317   0.4342
     0.4375   0.4380   0.4458   0.4509   0.4643   0.4671   0.4705   0.4707
     0.4720   0.4735   0.4747   0.4786   0.4792   0.4792   0.4802   0.4825
     0.4832   0.4840   0.4880   0.4902   0.4918   0.4949   0.5007   0.5088
     0.5215   0.5293   0.5300   0.5438   0.5493   0.5612   0.5629   0.5652
     0.5671   0.5747   0.5753   0.5761   0.5782   0.5789   0.5801   0.5861
     0.5909   0.5969   0.5973   0.6086   0.6122   0.6128   0.6143   0.6215
     0.6473   0.6504   0.6507   0.6522   0.6542   0.6571   0.6707   0.6714
     0.6774   0.6941   0.7050   0.7093   0.7108   0.7131   0.7134   0.7157
     0.7396   0.7524   0.7614   0.7772   0.7826   0.7832   0.7856   0.7864
     0.7879   0.7891   0.7933   0.7959   0.7975   0.7984   0.8024   0.8089
     0.8121   0.8141   0.8295   0.8301   0.8325   0.8331   0.8496   0.8505
     0.8517   0.8527   0.8529   0.8531   0.8685   0.8894   0.8918   0.8934
     0.8956   0.9023   0.9554   0.9579   0.9580   0.9597   0.9617   0.9814
     0.9906   0.9915   0.9924   0.9941   1.0066   1.0111   1.0152   1.0214
     1.0227   1.0269   1.0349   1.0378   1.0526   1.0572   1.0606   1.0620
     1.0623   1.0637   1.0682   1.0693   1.0702   1.0724   1.0757   1.0796
     1.0809   1.0811   1.0817   1.0824   1.0831   1.0860   1.0922   1.1148
     1.1213   1.1217   1.1219   1.1252   1.1366   1.1488   1.1561   1.1580
     1.1592   1.1606   1.1634   1.1755   1.1768   1.1843   1.1862   1.1867
     1.1874   1.1887   1.1966   1.1981   1.1985   1.1996   1.2047   1.2092
     1.2208   1.2302   1.2439   1.2448   1.2507   1.2571   1.2598   1.2608
     1.2612   1.2613   1.2614   1.2624   1.2667   1.2711   1.2738   1.2747
     1.2751   1.2758   1.2767   1.2778   1.2825   1.2864   1.2870   1.2874
     1.2878   1.2901   1.2936   1.2948   1.2995   1.3090   1.3103   1.3298
     1.3329   1.3344   1.3352   1.3371   1.3373   1.3387   1.3396   1.3543
     1.3571   1.3593   1.3602   1.3735   1.3743   1.3791   1.3814   1.3922
     1.3942   1.3948   1.3954   1.4029   1.4139   1.4150   1.4182   1.4190
     1.4228   1.4233   1.4240   1.4243   1.4285   1.4383   1.4438   1.4450
     1.4524   1.4580   1.4588   1.4588   1.4595   1.4684   1.4730   1.4756
     1.5088   1.5222   1.5260   1.5508   1.5523   1.5555   1.5572   1.5841
     1.6582   1.9750   1.9793   1.9832   1.9862   2.1773   2.1839   2.2034
     2.2100   2.2292   2.2295   2.2352   2.2376   2.5522   2.5704   2.5769
     2.5815   2.7591   2.7762   2.7768   2.7825   3.1156   3.1282   3.1307
     3.1316   3.2392   3.4100   3.4274   3.6952   3.7144   3.7170   3.7303
     3.8677   3.8685   3.8752   3.8898   4.0025   4.0181   4.0203   4.0254
     4.1306   4.1598   4.2654   4.4168   4.5696   4.6376   4.6998   4.7190
     4.7262   4.7371   4.7701   4.7722   4.8188   4.8382   4.9633   4.9640
     4.9767   4.9940   4.9955   5.0006   5.0178   5.0227   5.0300   5.0534
     5.0825   5.1067   5.2940   5.3779   5.4770   5.4823   5.5374   5.6112
     5.6567   5.6879   5.8326   5.9312   5.9375   5.9520   5.9616   5.9881
     6.0017   6.0034   6.0194   6.1948   6.3048   6.4090   6.4206   6.4283
     6.4401   6.4431   6.8154   7.0339   7.0514   7.0638   7.0745   7.0829
     7.0911   7.4925   7.5451   7.5475   7.5495   7.5523   7.5528   7.5731
     7.5995   7.7547   7.7635   7.8025   7.8373   7.8459   7.8463   7.9355
     8.0071   8.0154   8.0225   8.0624   8.1012   8.1062   8.1202   8.3129
     8.3459   8.4872   8.7664   8.7767   8.7854   8.7881   8.7957   8.8060
     8.8366   8.9686   8.9946   9.0062   9.0267   9.0345   9.0402   9.0789
     9.1959   9.2090   9.2365   9.3846   9.4615   9.4791   9.4810   9.4830
     9.4899   9.4988   9.5105   9.5135   9.5143   9.5227   9.5829   9.8557
     9.9193   9.9286   9.9732

          k =-0.5000-0.2165 0.0000 (256328 PWs)   bands (ev):

   -19.3669 -16.6962 -15.9656 -15.8431 -15.7713 -15.4109 -15.1828 -15.1587
   -14.8232 -14.0202 -13.7442 -13.7179 -13.4126 -12.6426 -12.4102 -12.0480
   -12.0283 -11.7882 -11.7784 -11.6420 -11.6128 -11.5718 -11.5154 -11.4419
   -11.0730 -10.0520 -10.0065  -9.7969  -9.6789  -9.1865  -8.8918  -8.8150
    -8.7838  -8.3143  -8.2375  -8.0477  -8.0190  -6.5558  -6.3550  -6.1771
    -5.9777  -5.8688  -5.6927  -5.4378  -5.4147  -5.3492  -5.3095  -5.2380
    -5.2370  -5.2355  -5.2328  -5.0939  -5.0600  -4.7707  -4.6372  -4.4971
    -4.4806  -4.3928  -4.3707  -4.3545  -4.2677  -4.2606  -4.2532  -4.2508
    -4.2479  -4.1685  -4.0800  -4.0032  -3.9700  -3.9210  -3.8992  -3.8532
    -3.8214  -3.7681  -3.7523  -3.6599  -3.6298  -3.6046  -3.5216  -3.5099
    -3.4532  -3.2414  -3.1385  -3.1157  -3.0819  -2.8827  -2.7139  -2.6383
    -2.6342  -2.6328  -2.6313  -2.6162  -2.5839  -2.5746  -2.5731  -2.5387
    -2.4963  -2.4191  -2.2440  -2.1883  -2.1544  -2.1514  -2.1472  -2.1183
    -2.0995  -2.0801  -2.0677  -2.0660  -2.0593  -2.0384  -1.8598  -1.8587
    -1.8569  -1.8540  -1.8418  -1.8035  -1.7811  -1.6895  -1.6072  -1.5859
    -1.5543  -1.5487  -1.5484  -1.5477  -1.5475  -1.5144  -1.5087  -1.5080
    -1.5072  -1.4888  -1.4884  -1.4873  -1.4871  -1.4613  -1.4409  -1.4403
    -1.4398  -1.4388  -1.4382  -1.4373  -1.4349  -1.4306  -1.4136  -1.4133
    -1.4126  -1.4122  -1.3652  -1.3624  -1.3618  -1.3605  -1.3236  -1.2933
    -1.2870  -1.2840  -1.2795  -1.2462  -1.2455  -1.2451  -1.2447  -1.2278
    -1.2274  -1.2263  -1.2241  -1.1799  -1.1774  -1.1755  -1.1751  -1.1711
    -1.1706  -1.1704  -1.1699  -1.1647  -1.1567  -1.1487  -1.1318  -1.1267
    -1.1146  -1.1142  -1.1100  -1.1077  -1.0974  -1.0971  -1.0933  -1.0931
    -1.0920  -1.0914  -1.0906  -1.0899  -1.0832  -1.0607  -0.9397  -0.9384
    -0.9377  -0.9350  -0.9081  -0.9075  -0.9072  -0.9067  -0.8366  -0.8317
    -0.8266  -0.8258  -0.8239  -0.8229  -0.8186  -0.8177  -0.8172  -0.8166
    -0.8158  -0.8123  -0.7568  -0.7552  -0.7543  -0.7537  -0.7467  -0.7445
    -0.7437  -0.7433  -0.7258  -0.7240  -0.7208  -0.7175  -0.6540  -0.6330
    -0.6297  -0.6269  -0.6257  -0.6239  -0.6229  -0.6150  -0.5546  -0.5538
    -0.5529  -0.5517  -0.5065  -0.5044  -0.5035  -0.5029  -0.4859  -0.4836
    -0.4832  -0.4820  -0.4813  -0.4610  -0.4564  -0.4532  -0.4448  -0.4442
    -0.4433  -0.4424  -0.4295  -0.4136  -0.4049  -0.4037  -0.3316  -0.3301
    -0.3298  -0.3269  -0.3260  -0.3125  -0.3119  -0.3115  -0.3111  -0.2981
    -0.2960  -0.2946  -0.2915  -0.2394  -0.2123  -0.2118  -0.2095  -0.2091
    -0.2083  -0.2077  -0.2067  -0.2060  -0.2048  -0.2032  -0.1980  -0.1691
    -0.1669  -0.1668  -0.1663  -0.1632  -0.1550  -0.1546  -0.1542  -0.1530
    -0.1510  -0.1499  -0.1489  -0.1344  -0.0948  -0.0814  -0.0807  -0.0792
    -0.0772  -0.0555  -0.0542  -0.0529  -0.0495  -0.0100  -0.0054  -0.0003
     0.0025   0.0082   0.0227   0.0237   0.0254   0.0263   0.0278   0.0294
     0.0323   0.0345   0.0360   0.0368   0.0390   0.0395   0.0451   0.0459
     0.0460   0.0473   0.0520   0.0521   0.0531   0.0533   0.0623   0.0682
     0.0687   0.0698   0.0714   0.0967   0.0968   0.0969   0.0971   0.1037
     0.1058   0.1074   0.1090   0.1341   0.1555   0.1565   0.1571   0.1588
     0.1883   0.1885   0.1892   0.1915   0.2018   0.2469   0.2531   0.2691
     0.2701   0.2708   0.2724   0.2760   0.2807   0.2859   0.2890   0.2897
     0.2912   0.2943   0.3025   0.3033   0.3052   0.3097   0.3110   0.3112
     0.3131   0.3132   0.3157   0.3161   0.3191   0.3237   0.3301   0.3380
     0.3409   0.3897   0.3900   0.3972   0.3984   0.3996   0.4021   0.4023
     0.4048   0.4149   0.4152   0.4153   0.4160   0.4422   0.4463   0.4519
     0.4533   0.4545   0.4560   0.4587   0.4599   0.4618   0.4836   0.4938
     0.4973   0.4990   0.5001   0.5019   0.5118   0.5129   0.5138   0.5140
     0.5152   0.5202   0.5203   0.5216   0.5235   0.5332   0.5341   0.5352
     0.5379   0.5394   0.5466   0.5527   0.5542   0.5859   0.5924   0.6100
     0.6158   0.6221   0.6247   0.6263   0.6277   0.6282   0.6293   0.6309
     0.6365   0.6370   0.6412   0.6437   0.6567   0.6734   0.6738   0.6744
     0.6750   0.6753   0.6761   0.6768   0.6787   0.6905   0.7144   0.7226
     0.7289   0.7318   0.7324   0.7478   0.7565   0.7572   0.7584   0.7593
     0.7716   0.7927   0.7932   0.7936   0.7948   0.8159   0.8179   0.8189
     0.8206   0.8361   0.8640   0.8699   0.8703   0.8714   0.8722   0.9031
     0.9040   0.9043   0.9065   0.9321   0.9496   0.9558   0.9568   0.9584
     0.9608   0.9685   0.9728   0.9761   0.9829   0.9843   0.9864   0.9872
     0.9896   0.9897   0.9899   0.9905   0.9929   0.9935   0.9947   0.9969
     1.0059   1.0161   1.0210   1.0215   1.0240   1.0248   1.0269   1.0271
     1.0290   1.0319   1.0423   1.0434   1.0438   1.0482   1.0581   1.0648
     1.0687   1.0695   1.0714   1.0735   1.0776   1.0817   1.0865   1.0890
     1.0904   1.0979   1.1213   1.1334   1.1372   1.1399   1.1409   1.1423
     1.1463   1.1501   1.1565   1.1660   1.1667   1.1675   1.1686   1.1780
     1.1849   1.1853   1.1900   1.1924   1.2015   1.2065   1.2137   1.2152
     1.2159   1.2165   1.2233   1.2243   1.2261   1.2267   1.2301   1.2306
     1.2321   1.2330   1.2469   1.2920   1.2951   1.2978   1.2980   1.2991
     1.2991   1.2995   1.3000   1.3005   1.3063   1.3101   1.3137   1.3178
     1.3184   1.3203   1.3232   1.3253   1.3280   1.3283   1.3293   1.3333
     1.3353   1.3384   1.3392   1.3397   1.3406   1.3415   1.3417   1.3514
     1.3529   1.3586   1.3599   1.3612   1.3616   1.3624   1.3917   1.3942
     1.3948   1.3951   1.3979   1.4069   1.4096   1.4106   1.4122   1.4206
     1.4248   1.4274   1.4360   1.4442   1.4466   1.4475   1.4616   1.4900
     1.5019   1.5063   1.5173   1.5178   1.5189   1.5192   1.5355   1.5460
     1.5485   1.5503   1.5523   1.5575   1.5593   1.5600   1.5618   1.5624
     1.5633   1.5645   1.6236   1.7779   1.7804   1.7822   1.7844   2.2816
     2.2970   2.2987   2.3016   2.5021   2.5030   2.5048   2.5058   2.7102
     2.7405   2.7470   2.7481   2.9991   3.0377   3.0496   3.0519   3.2144
     3.3973   3.3981   3.3988   3.4196   3.5756   3.5875   3.5899   3.6014
     3.8720   3.8728   3.8753   3.8786   4.1695   4.1711   4.1744   4.1800
     4.2575   4.3009   4.3025   4.3156   4.4820   4.4957   4.5145   4.5202
     4.5209   4.5408   4.5560   4.6246   4.7552   4.8057   4.8481   4.9276
     4.9631   5.0224   5.0681   5.0984   5.1234   5.1250   5.1414   5.1446
     5.1989   5.2366   5.2813   5.3042   5.3175   5.3251   5.3606   5.4251
     5.6727   5.6901   5.6940   5.6969   5.7019   5.7103   5.8137   5.8559
     5.8620   5.8676   6.0892   6.7099   6.7168   6.7385   6.7453   6.9976
     7.0575   7.0761   7.0808   7.0886   7.1087   7.1118   7.1159   7.1790
     7.2423   7.2541   7.2606   7.2933   7.3144   7.3172   7.3189   7.3723
     7.5781   7.5823   7.5918   7.6491   7.7732   7.9278   7.9346   7.9463
     7.9574   7.9853   8.1276   8.1743   8.1808   8.1989   8.2761   8.3970
     8.4130   8.5046   8.5710   8.8166   8.8383   8.8424   8.8438   8.8685
     8.8774   8.8795   8.8891   8.9027   8.9123   8.9161   8.9183   9.0465
     9.1273   9.1278   9.1408   9.1680   9.4367   9.4396   9.4610   9.4908
     9.4943   9.5114   9.5233   9.5456   9.5487   9.5548   9.5791   9.8076
    10.0184  10.0204  10.0650

     the Fermi energy is     3.2669 ev

!    total energy              =  -12738.85366159 Ry
     Harris-Foulkes estimate   =  -12738.85366158 Ry
     estimated scf accuracy    <          2.5E-09 Ry

     The total energy is the sum of the following terms:

     one-electron contribution = -109178.52741134 Ry
     hartree contribution      =   55951.43940884 Ry
     xc contribution           =   -4454.80952400 Ry
     ewald contribution        =   44949.40140717 Ry
     Dispersion Correction     =      -3.00103089 Ry
     smearing contrib. (-TS)   =      -3.35651138 Ry

     convergence has been achieved in  46 iterations

     Writing output data file gc.save
 
     init_run     :     99.63s CPU    107.04s WALL (       1 calls)
     electrons    :  12902.68s CPU  13770.83s WALL (       1 calls)

     Called by init_run:
     wfcinit      :     97.14s CPU    104.18s WALL (       1 calls)
     potinit      :      0.46s CPU      0.47s WALL (       1 calls)

     Called by electrons:
     c_bands      :  11859.92s CPU  12628.00s WALL (      46 calls)
     sum_band     :    862.63s CPU    933.93s WALL (      46 calls)
     v_of_rho     :      2.96s CPU      3.72s WALL (      47 calls)
     newd         :      9.50s CPU     15.57s WALL (      47 calls)
     mix_rho      :    167.55s CPU    189.48s WALL (      46 calls)

     Called by c_bands:
     init_us_2    :     38.86s CPU     39.34s WALL (     558 calls)
     cegterg      :  11688.82s CPU  12448.76s WALL (     281 calls)

     Called by sum_band:
     sum_band:bec :      5.62s CPU      6.20s WALL (     276 calls)
     addusdens    :      9.15s CPU     15.27s WALL (      46 calls)

     Called by *egterg:
     h_psi        :   4162.41s CPU   4495.07s WALL (    2064 calls)
     s_psi        :    990.56s CPU   1002.00s WALL (    2064 calls)
     g_psi        :     10.49s CPU     10.52s WALL (    1777 calls)
     cdiaghg      :   3530.15s CPU   3662.07s WALL (    2053 calls)

     Called by h_psi:
     add_vuspsi   :    995.17s CPU   1008.18s WALL (    2064 calls)

     General routines
     calbec       :   1453.65s CPU   1464.66s WALL (    2340 calls)
     fft          :      3.75s CPU      4.39s WALL (     610 calls)
     ffts         :     97.39s CPU    110.28s WALL (   25809 calls)
     fftw         :   2408.30s CPU   2668.80s WALL ( 1329068 calls)
     davcio       :      0.24s CPU      3.77s WALL (       6 calls)
 
     Parallel routines
     fft_scatter  :   1561.48s CPU   1707.77s WALL ( 1355487 calls)
 
     PWSCF        :     3h36m CPU        3h51m WALL

 
   This run was terminated on:   7:53:19  13Jan2017            

=------------------------------------------------------------------------------=
   JOB DONE.
=------------------------------------------------------------------------------=
