
     Program PWSCF v.5.4.0 starts on  9Apr2017 at 10:40:42 

     This program is part of the open-source Quantum ESPRESSO suite
     for quantum simulation of materials; please cite
         "P. Giannozzi et al., J. Phys.:Condens. Matter 21 395502 (2009);
          URL http://www.quantum-espresso.org", 
     in publications or presentations arising from this work. More details at
     http://www.quantum-espresso.org/quote

     Parallel version (MPI & OpenMP), running on      56 processor cores
     Number of MPI processes:                56
     Threads/MPI process:                     1
     R & G space division:  proc/nbgrp/npool/nimage =      56
     Waiting for input...
     Reading input from standard input
Warning: card &IONS ignored
Warning: card / ignored

     Current dimensions of program PWSCF are:
     Max number of different atomic species (ntypx) = 10
     Max number of k-points (npk) =  40000
     Max angular momentum in pseudopotentials (lmaxx) =  3
     WARNING: atomic wfc #  2 for atom type 4 has zero norm
     WARNING: atomic wfc #  4 for atom type 4 has zero norm
     WARNING: atomic wfc #  5 for atom type 4 has zero norm

     -------------------------------------
     Parameters for Dispersion Correction:
     -------------------------------------
       atom      VdW radius       C_6     

        Cu         2.952        374.666
        C_h        2.744         60.710
        C          2.744         60.710
        O          2.536         24.284

     Subspace diagonalization in iterative solution of the eigenvalue problem:
     one sub-group per band group will be used
     scalapack distributed-memory algorithm (size of sub-group:  5*  5 procs)

 
     Parallelization info
     --------------------
     sticks:   dense  smooth     PW     G-vecs:    dense   smooth      PW
     Min         204     204     54                36612    36612    4962
     Max         205     205     55                36617    36617    4968
     Sum       11433   11433   3039              2050409  2050409  278033
 
     Generating pointlists ...
     new r_m :   0.1382 (alat units)  1.9275 (a.u.) for type    1
     new r_m :   0.0786 (alat units)  1.0966 (a.u.) for type    2
     new r_m :   0.0786 (alat units)  1.0964 (a.u.) for type    3
     new r_m :   0.0791 (alat units)  1.1028 (a.u.) for type    4


     bravais-lattice index     =            0
     lattice parameter (alat)  =      13.9425  a.u.
     unit-cell volume          =   21209.0878 (a.u.)^3
     number of atoms/cell      =          149
     number of atomic types    =            4
     number of electrons       =      1298.00
     number of Kohn-Sham states=          779
     kinetic-energy cutoff     =      80.0000  Ry
     charge density cutoff     =     320.0000  Ry
     convergence threshold     =      1.0E-08
     mixing beta               =       0.7000
     number of iterations used =            8  local-TF  mixing
     Exchange-correlation      =  SLA  PW   PBX  PBC ( 1  4  3  4 0 0)

     celldm(1)=  13.942539  celldm(2)=   0.000000  celldm(3)=   0.000000
     celldm(4)=   0.000000  celldm(5)=   0.000000  celldm(6)=   0.000000

     crystal axes: (cart. coord. in units of alat)
               a(1) = (   1.000000   0.000000   0.000000 )  
               a(2) = (   0.000000   2.309401   0.000000 )  
               a(3) = (   0.000000   0.000000   3.388418 )  

     reciprocal axes: (cart. coord. in units 2 pi/alat)
               b(1) = (  1.000000  0.000000  0.000000 )  
               b(2) = (  0.000000  0.433013  0.000000 )  
               b(3) = (  0.000000  0.000000  0.295123 )  


     PseudoPot. # 1 for Cu read from file:
     /home/549/hxw549/Short/pseudopotentials/Cu.pbe-n-van_ak.UPF
     MD5 check sum: 601f7c30f7467666bec936e0661ce3e1
     Pseudo is Ultrasoft + core correction, Zval = 11.0
     Generated by new atomic code, or converted to UPF format
     Using radial grid of  867 points,  6 beta functions with: 
                l(1) =   0
                l(2) =   0
                l(3) =   1
                l(4) =   1
                l(5) =   2
                l(6) =   2
     Q(r) pseudized with  8 coefficients,  rinner =    1.400   1.400   1.400
                                                       1.400   1.400

     PseudoPot. # 2 for C  read from file:
     /home/549/hxw549/Short/pseudopotentials/C.star1s-pbe-mt_gipaw.UPF
     MD5 check sum: ef0cb3dee31bd9e4ba2a832a2c716264
     Pseudo is Norm-conserving, Zval =  5.0
     Generated by new atomic code, or converted to UPF format
     Using radial grid of 1073 points,  1 beta functions with: 
                l(1) =   0

     PseudoPot. # 3 for C  read from file:
     /home/549/hxw549/Short/pseudopotentials/C.pbe-mt_gipaw.UPF
     MD5 check sum: 5ac2f21f2c440b14befe521540822c15
     Pseudo is Norm-conserving, Zval =  4.0
     Generated by new atomic code, or converted to UPF format
     Using radial grid of 1073 points,  1 beta functions with: 
                l(1) =   0

     PseudoPot. # 4 for O  read from file:
     /home/549/hxw549/Short/pseudopotentials/O.pbe-van_gipaw.UPF
     MD5 check sum: 5ce2a047509d4f331db576c963e74b29
     Pseudo is Ultrasoft, Zval =  6.0
     Generated by new atomic code, or converted to UPF format
     Using radial grid of 1095 points,  4 beta functions with: 
                l(1) =   0
                l(2) =   0
                l(3) =   1
                l(4) =   1
     Q(r) pseudized with 0 coefficients 


     atomic species   valence    mass     pseudopotential
        Cu            11.00    63.54600     Cu( 1.00)
        C_h            5.00    12.01070     C ( 1.00)
        C              4.00    12.01070     C ( 1.00)
        O              6.00    15.99940     O ( 1.00)

     Starting magnetic structure 
     atomic species   magnetization
        Cu           0.000
        C_h          0.000
        C            0.000
        O            1.000

     No symmetry found



   Cartesian axes

     site n.     atom                  positions (alat units)
         1           Cu  tau(   1) = (   0.0001178   0.0001751   0.9991399  )
         2           Cu  tau(   2) = (   0.2500647   0.2315788   0.9992879  )
         3           Cu  tau(   3) = (   0.5001090   0.0002824   0.9991514  )
         4           Cu  tau(   4) = (   0.7501448   0.2315979   0.9993693  )
         5           Cu  tau(   5) = (   0.0000932   0.4624661   0.9992448  )
         6           Cu  tau(   6) = (   0.2501040   0.6930408   0.9987587  )
         7           Cu  tau(   7) = (   0.5001044   0.4624308   0.9992470  )
         8           Cu  tau(   8) = (   0.7500909   0.6930451   0.9988127  )
         9           Cu  tau(   9) = (   0.0000907   0.9236195   0.9983746  )
        10           Cu  tau(  10) = (   0.2501315   1.1542013   0.9984774  )
        11           Cu  tau(  11) = (   0.5001085   0.9236121   0.9984107  )
        12           Cu  tau(  12) = (   0.7500776   1.1542041   0.9985334  )
        13           Cu  tau(  13) = (   0.0001210   1.3847107   0.9989336  )
        14           Cu  tau(  14) = (   0.2501076   1.6153136   0.9993453  )
        15           Cu  tau(  15) = (   0.5001016   1.3847235   0.9991112  )
        16           Cu  tau(  16) = (   0.7501325   1.6152607   0.9994161  )
        17           Cu  tau(  17) = (   0.0000836   1.8463185   0.9992677  )
        18           Cu  tau(  18) = (   0.2501939   2.0778557   0.9990932  )
        19           Cu  tau(  19) = (   0.5001665   1.8462421   0.9993297  )
        20           Cu  tau(  20) = (   0.7500499   2.0778858   0.9990886  )
        21           Cu  tau(  21) = (   0.0001201   0.2315510   1.2474060  )
        22           Cu  tau(  22) = (   0.2501297   0.0000932   1.2468084  )
        23           Cu  tau(  23) = (   0.5000985   0.2315859   1.2474013  )
        24           Cu  tau(  24) = (   0.7501392   0.0000369   1.2467986  )
        25           Cu  tau(  25) = (   0.0000837   0.6935790   1.2476031  )
        26           Cu  tau(  26) = (   0.2500834   0.4627990   1.2476878  )
        27           Cu  tau(  27) = (   0.5000729   0.6935238   1.2475645  )
        28           Cu  tau(  28) = (   0.7500921   0.4627963   1.2477406  )
        29           Cu  tau(  29) = (   0.0001043   1.1538633   1.2473903  )
        30           Cu  tau(  30) = (   0.2500740   0.9237755   1.2473144  )
        31           Cu  tau(  31) = (   0.5000779   1.1537741   1.2475188  )
        32           Cu  tau(  32) = (   0.7500848   0.9237806   1.2473699  )
        33           Cu  tau(  33) = (   0.0001394   1.6150341   1.2477604  )
        34           Cu  tau(  34) = (   0.2501124   1.3841605   1.2478282  )
        35           Cu  tau(  35) = (   0.5001301   1.6150934   1.2478863  )
        36           Cu  tau(  36) = (   0.7501066   1.3841739   1.2478487  )
        37           Cu  tau(  37) = (   0.0001703   2.0778855   1.2466178  )
        38           Cu  tau(  38) = (   0.2501557   1.8463742   1.2472016  )
        39           Cu  tau(  39) = (   0.5001379   2.0779082   1.2466660  )
        40           Cu  tau(  40) = (   0.7501553   1.8464101   1.2472347  )
        41           Cu  tau(  41) = (   0.0001561  -0.0004210   1.4957109  )
        42           Cu  tau(  42) = (   0.2501545   0.2312899   1.4963241  )
        43           Cu  tau(  43) = (   0.5001223  -0.0003473   1.4956858  )
        44           Cu  tau(  44) = (   0.7500415   0.2311756   1.4962428  )
        45           Cu  tau(  45) = (   0.0000797   0.4629130   1.4969910  )
        46           Cu  tau(  46) = (   0.2500644   0.6939574   1.4977027  )
        47           Cu  tau(  47) = (   0.5000448   0.4629913   1.4971228  )
        48           Cu  tau(  48) = (   0.7500213   0.6939388   1.4976647  )
        49           Cu  tau(  49) = (   0.0000772   0.9240249   1.4981269  )
        50           Cu  tau(  50) = (   0.2500138   1.1533268   1.4981828  )
        51           Cu  tau(  51) = (   0.4999981   0.9236958   1.4981756  )
        52           Cu  tau(  52) = (   0.7500898   1.1534051   1.4980997  )
        53           Cu  tau(  53) = (   0.0000854   1.3837290   1.4977758  )
        54           Cu  tau(  54) = (   0.2500811   1.6151223   1.4969711  )
        55           Cu  tau(  55) = (   0.5000715   1.3836600   1.4977194  )
        56           Cu  tau(  56) = (   0.7501512   1.6151612   1.4969707  )
        57           Cu  tau(  57) = (   0.0001647   1.8467653   1.4961187  )
        58           Cu  tau(  58) = (   0.2501492   2.0780074   1.4956995  )
        59           Cu  tau(  59) = (   0.5001483   1.8469374   1.4962451  )
        60           Cu  tau(  60) = (   0.7501797   2.0780088   1.4957512  )
        61           Cu  tau(  61) = (   0.0001434   0.2303911   1.7440553  )
        62           Cu  tau(  62) = (   0.2502640  -0.0007400   1.7447773  )
        63           Cu  tau(  63) = (   0.5000564   0.2301922   1.7446801  )
        64           Cu  tau(  64) = (   0.7499969  -0.0007135   1.7448307  )
        65           Cu  tau(  65) = (   0.0000745   0.6935765   1.7472176  )
        66           Cu  tau(  66) = (   0.2505720   0.4624882   1.7457398  )
        67           Cu  tau(  67) = (   0.5000325   0.6937721   1.7485044  )
        68           Cu  tau(  68) = (   0.7495773   0.4622837   1.7454788  )
        69           Cu  tau(  69) = (   0.0000649   1.1534345   1.7495728  )
        70           Cu  tau(  70) = (   0.2503992   0.9235614   1.7498004  )
        71           Cu  tau(  71) = (   0.5000004   1.1529972   1.7490166  )
        72           Cu  tau(  72) = (   0.7496815   0.9236872   1.7494164  )
        73           Cu  tau(  73) = (   0.0000855   1.6159662   1.7455781  )
        74           Cu  tau(  74) = (   0.2497537   1.3839283   1.7470177  )
        75           Cu  tau(  75) = (   0.5000619   1.6158775   1.7448370  )
        76           Cu  tau(  76) = (   0.7503425   1.3839909   1.7469833  )
        77           Cu  tau(  77) = (   0.0000998   2.0779821   1.7452386  )
        78           Cu  tau(  78) = (   0.2499195   1.8474556   1.7449487  )
        79           Cu  tau(  79) = (   0.5001760   2.0783808   1.7453206  )
        80           Cu  tau(  80) = (   0.7503055   1.8474368   1.7450066  )
        81           Cu  tau(  81) = (   0.0000913  -0.0001846   1.9906150  )
        82           Cu  tau(  82) = (   0.2499008   0.2299686   1.9899715  )
        83           Cu  tau(  83) = (   0.5001755  -0.0003051   1.9924353  )
        84           Cu  tau(  84) = (   0.7503545   0.2299454   1.9900033  )
        85           Cu  tau(  85) = (   0.0000150   0.4609338   1.9884698  )
        86           Cu  tau(  86) = (   0.2526326   0.6910888   1.9945534  )
        87           Cu  tau(  87) = (   0.5002257   0.4585509   1.9920995  )
        88           Cu  tau(  88) = (   0.7476506   0.6911566   1.9938358  )
        89           Cu  tau(  89) = (   0.0000269   0.9212800   1.9947875  )
        90           Cu  tau(  90) = (   0.2501613   1.1549799   1.9964917  )
        91           Cu  tau(  91) = (   0.5001528   0.9243607   2.0003832  )
        92           Cu  tau(  92) = (   0.7499540   1.1549185   1.9962842  )
        93           Cu  tau(  93) = (  -0.0000171   1.3864821   1.9936837  )
        94           Cu  tau(  94) = (   0.2496421   1.6167895   1.9902549  )
        95           Cu  tau(  95) = (   0.5001156   1.3865848   1.9912321  )
        96           Cu  tau(  96) = (   0.7504721   1.6169147   1.9903198  )
        97           Cu  tau(  97) = (   0.0001452   1.8476448   1.9922626  )
        98           Cu  tau(  98) = (   0.2502472   2.0782997   1.9914950  )
        99           Cu  tau(  99) = (   0.5000204   1.8469043   1.9903178  )
       100           Cu  tau( 100) = (   0.7499866   2.0781930   1.9916427  )
       101           C   tau( 101) = (  -0.0000031   0.0971043   2.3879420  )
       102           C   tau( 102) = (  -0.0000524   0.2892846   2.3845655  )
       103           C   tau( 103) = (   0.1666660   0.0010496   2.3880821  )
       104           C   tau( 104) = (   0.1662983   0.3853857   2.3800619  )
       105           C   tau( 105) = (   0.3331661   0.0971851   2.3854343  )
       106           C   tau( 106) = (   0.3330371   0.2894063   2.3808165  )
       107           C   tau( 107) = (   0.5000001   0.0008852   2.3858518  )
       108           C   tau( 108) = (   0.4998997   0.3862011   2.3779419  )
       109           C   tau( 109) = (   0.6668162   0.0971870   2.3857123  )
       110           C   tau( 110) = (   0.6668276   0.2894144   2.3811848  )
       111           C   tau( 111) = (   0.8333307   0.0010413   2.3884541  )
       112           C   tau( 112) = (   0.8335336   0.3853915   2.3804495  )
       113           C   tau( 113) = (  -0.0001756   0.6740120   2.3734364  )
       114           C   tau( 114) = (  -0.0002095   0.8665229   2.3686346  )
       115           C   tau( 115) = (   0.1660471   0.5775765   2.3741779  )
       116           C   tau( 116) = (   0.1667453   0.9625008   2.3748476  )
       117           C   tau( 117) = (   0.3324872   0.6745332   2.3738281  )
       118           C   tau( 118) = (   0.3307487   0.8654330   2.3798499  )
       119           C   tau( 119) = (   0.4998391   0.5778621   2.3760650  )
       120           C   tau( 120) = (   0.4996895   0.9621637   2.4356682  )
       121           O   tau( 121) = (   0.4987041   0.9573919   2.6273532  )
       122           C   tau( 122) = (   0.6671796   0.6745385   2.3743426  )
       123           C   tau( 123) = (   0.6688087   0.8654535   2.3800444  )
       124           C   tau( 124) = (   0.8336398   0.5775636   2.3746523  )
       125           C   tau( 125) = (   0.8328414   0.9625091   2.3750327  )
       126           C   tau( 126) = (  -0.0001226   1.2514969   2.3780858  )
       127           C   tau( 127) = (  -0.0000580   1.4446335   2.3767340  )
       128           C   tau( 128) = (   0.1665618   1.1557680   2.3784869  )
       129           C   tau( 129) = (   0.1667114   1.5410833   2.3789669  )
       130           C   tau( 130) = (   0.3338787   1.2526757   2.3819609  )
       131           C   tau( 131) = (   0.3334272   1.4452607   2.3812252  )
       132           C_h tau( 132) = (   0.4998303   1.1589812   2.3878147  )
       133           C   tau( 133) = (   0.4999354   1.5412396   2.3843628  )
       134           C   tau( 134) = (   0.6658220   1.2526489   2.3820371  )
       135           C   tau( 135) = (   0.6664446   1.4452600   2.3811871  )
       136           C   tau( 136) = (   0.8331461   1.1557891   2.3786206  )
       137           C   tau( 137) = (   0.8331791   1.5411000   2.3788400  )
       138           C   tau( 138) = (   0.0000179   1.8297592   2.3820829  )
       139           C   tau( 139) = (   0.0000276   2.0220587   2.3867410  )
       140           C   tau( 140) = (   0.1668445   1.7334918   2.3820555  )
       141           C   tau( 141) = (   0.1666563   2.1181397   2.3871975  )
       142           C   tau( 142) = (   0.3333905   1.8295594   2.3863147  )
       143           C   tau( 143) = (   0.3334142   2.0218884   2.3874303  )
       144           C   tau( 144) = (   0.4999921   1.7335804   2.3866084  )
       145           C   tau( 145) = (   0.5000164   2.1179819   2.3890180  )
       146           C   tau( 146) = (   0.6666062   1.8295781   2.3867473  )
       147           C   tau( 147) = (   0.6665755   2.0218860   2.3882889  )
       148           C   tau( 148) = (   0.8331746   1.7335137   2.3821733  )
       149           C   tau( 149) = (   0.8333866   2.1181027   2.3878917  )

     number of k points=     6  gaussian smearing, width (Ry)=  0.1000
                       cart. coord. in units 2pi/alat
        k(    1) = (   0.0000000   0.0000000   0.0000000), wk =   0.1250000
        k(    2) = (   0.0000000  -0.2165064   0.0000000), wk =   0.1250000
        k(    3) = (   0.2500000   0.0000000   0.0000000), wk =   0.2500000
        k(    4) = (   0.2500000  -0.2165064   0.0000000), wk =   0.2500000
        k(    5) = (  -0.5000000   0.0000000   0.0000000), wk =   0.1250000
        k(    6) = (  -0.5000000  -0.2165064   0.0000000), wk =   0.1250000

     Dense  grid:  2050409 G-vectors     FFT dimensions: (  80, 192, 270)

     Largest allocated arrays     est. size (Mb)     dimensions
        Kohn-Sham Wavefunctions        54.73 Mb     (    4604,  779)
        NL pseudopotentials           130.39 Mb     (    4604, 1856)
        Each V/rho on FFT grid          2.34 Mb     (   76800,   2)
        Each G-vector array             0.28 Mb     (   36616)
        G-vector shells                 0.14 Mb     (   17932)
     Largest temporary arrays     est. size (Mb)     dimensions
        Auxiliary wavefunctions       218.90 Mb     (    4604, 3116)
        Each subspace H/S matrix        5.92 Mb     (     623,  623)
        Each <psi_i|beta_j> matrix     22.06 Mb     (    1856,  779)
        Arrays for rho mixing           9.38 Mb     (   76800,    8)

     Initial potential from superposition of free atoms
     Check: negative starting charge=(component1):   -0.000885
     Check: negative starting charge=(component2):   -0.000926

     starting charge 1272.81751, renormalised to 1298.00000

     negative rho (up, down):  9.020E-04 9.445E-04
     Starting wfc are 1288 randomized atomic wfcs

     total cpu time spent up to now is      210.0 secs

     Self-consistent Calculation

     iteration #  1     ecut=    80.00 Ry     beta=0.70
     Davidson diagonalization with overlap
     c_bands:  3 eigenvalues not converged
     c_bands:  1 eigenvalues not converged
     c_bands:  2 eigenvalues not converged
     c_bands:  2 eigenvalues not converged
     c_bands:  1 eigenvalues not converged
     c_bands:  1 eigenvalues not converged
     ethr =  1.00E-04,  avg # of iterations = 27.0

     negative rho (up, down):  1.202E+01 1.345E+01

     total cpu time spent up to now is     3833.8 secs

     total energy              =   -9861.79371247 Ry
     Harris-Foulkes estimate   =  -17266.63603563 Ry
     estimated scf accuracy    <  176597.21228454 Ry

     total magnetization       =     2.99 Bohr mag/cell
     absolute magnetization    =     3.79 Bohr mag/cell

     iteration #  2     ecut=    80.00 Ry     beta=0.70
     Davidson diagonalization with overlap
     ethr =  1.00E-02,  avg # of iterations = 11.3

     negative rho (up, down):  1.466E+01 1.491E+01

     total cpu time spent up to now is     5599.2 secs

     total energy              =  -12318.62322226 Ry
     Harris-Foulkes estimate   =  -13640.81585763 Ry
     estimated scf accuracy    <   22038.71193722 Ry

     total magnetization       =     0.17 Bohr mag/cell
     absolute magnetization    =     1.06 Bohr mag/cell

     iteration #  3     ecut=    80.00 Ry     beta=0.70
     Davidson diagonalization with overlap
     ethr =  1.00E-02,  avg # of iterations =  7.0

     negative rho (up, down):  1.507E+01 1.500E+01

     total cpu time spent up to now is     6646.8 secs

     total energy              =  -12456.79629277 Ry
     Harris-Foulkes estimate   =  -13377.99076579 Ry
     estimated scf accuracy    <    5990.53481322 Ry

     total magnetization       =     0.03 Bohr mag/cell
     absolute magnetization    =     0.32 Bohr mag/cell

     iteration #  4     ecut=    80.00 Ry     beta=0.70
     Davidson diagonalization with overlap
     ethr =  1.00E-02,  avg # of iterations =  5.5

     negative rho (up, down):  1.110E+01 1.106E+01

     total cpu time spent up to now is     7777.0 secs

     total energy              =  -12844.86667852 Ry
     Harris-Foulkes estimate   =  -13087.51343461 Ry
     estimated scf accuracy    <    2065.32302426 Ry

     total magnetization       =    -0.01 Bohr mag/cell
     absolute magnetization    =     0.13 Bohr mag/cell

     iteration #  5     ecut=    80.00 Ry     beta=0.70
     Davidson diagonalization with overlap
     ethr =  1.00E-02,  avg # of iterations =  3.6

     negative rho (up, down):  8.449E+00 8.435E+00

     total cpu time spent up to now is     8340.3 secs

     total energy              =  -12854.83006348 Ry
     Harris-Foulkes estimate   =  -12976.06106974 Ry
     estimated scf accuracy    <    1200.43880499 Ry

     total magnetization       =    -0.09 Bohr mag/cell
     absolute magnetization    =     0.15 Bohr mag/cell

     iteration #  6     ecut=    80.00 Ry     beta=0.70
     Davidson diagonalization with overlap
     ethr =  1.00E-02,  avg # of iterations =  3.0

     negative rho (up, down):  5.869E+00 5.876E+00

     total cpu time spent up to now is     8752.2 secs

     total energy              =  -12845.54101774 Ry
     Harris-Foulkes estimate   =  -12919.00031775 Ry
     estimated scf accuracy    <     590.26527006 Ry

     total magnetization       =    -0.05 Bohr mag/cell
     absolute magnetization    =     0.11 Bohr mag/cell

     iteration #  7     ecut=    80.00 Ry     beta=0.70
     Davidson diagonalization with overlap
     ethr =  1.00E-02,  avg # of iterations =  2.0

     negative rho (up, down):  4.174E+00 4.183E+00

     total cpu time spent up to now is     9119.6 secs

     total energy              =  -12824.88798618 Ry
     Harris-Foulkes estimate   =  -12867.46387867 Ry
     estimated scf accuracy    <     403.58411542 Ry

     total magnetization       =    -0.02 Bohr mag/cell
     absolute magnetization    =     0.06 Bohr mag/cell

     iteration #  8     ecut=    80.00 Ry     beta=0.70
     Davidson diagonalization with overlap
     ethr =  1.00E-02,  avg # of iterations =  2.0

     negative rho (up, down):  3.337E+00 3.337E+00

     total cpu time spent up to now is     9475.1 secs

     total energy              =  -12808.71331747 Ry
     Harris-Foulkes estimate   =  -12840.58973238 Ry
     estimated scf accuracy    <     505.71303021 Ry

     total magnetization       =     0.00 Bohr mag/cell
     absolute magnetization    =     0.06 Bohr mag/cell

     iteration #  9     ecut=    80.00 Ry     beta=0.70
     Davidson diagonalization with overlap
     ethr =  1.00E-02,  avg # of iterations =  1.0

     negative rho (up, down):  2.342E+00 2.342E+00

     total cpu time spent up to now is     9803.9 secs

     total energy              =  -12798.81065625 Ry
     Harris-Foulkes estimate   =  -12819.89044120 Ry
     estimated scf accuracy    <     192.15873410 Ry

     total magnetization       =     0.05 Bohr mag/cell
     absolute magnetization    =     0.10 Bohr mag/cell

     iteration # 10     ecut=    80.00 Ry     beta=0.70
     Davidson diagonalization with overlap
     ethr =  1.00E-02,  avg # of iterations =  1.2

     negative rho (up, down):  7.280E-01 7.280E-01

     total cpu time spent up to now is    10137.5 secs

     total energy              =  -12770.93581571 Ry
     Harris-Foulkes estimate   =  -12801.58736175 Ry
     estimated scf accuracy    <     127.96187283 Ry

     total magnetization       =     0.01 Bohr mag/cell
     absolute magnetization    =     0.07 Bohr mag/cell

     iteration # 11     ecut=    80.00 Ry     beta=0.70
     Davidson diagonalization with overlap
     ethr =  9.86E-03,  avg # of iterations =  1.8

     negative rho (up, down):  4.519E-01 4.519E-01

     total cpu time spent up to now is    10485.0 secs

     total energy              =  -12767.70043030 Ry
     Harris-Foulkes estimate   =  -12778.71679169 Ry
     estimated scf accuracy    <     230.86073316 Ry

     total magnetization       =     0.05 Bohr mag/cell
     absolute magnetization    =     0.10 Bohr mag/cell

     iteration # 12     ecut=    80.00 Ry     beta=0.70
     Davidson diagonalization with overlap
     ethr =  9.86E-03,  avg # of iterations =  1.2

     negative rho (up, down):  1.614E-01 1.622E-01

     total cpu time spent up to now is    10819.4 secs

     total energy              =  -12759.47116748 Ry
     Harris-Foulkes estimate   =  -12772.91880810 Ry
     estimated scf accuracy    <     144.92955847 Ry

     total magnetization       =     0.07 Bohr mag/cell
     absolute magnetization    =     0.11 Bohr mag/cell

     iteration # 13     ecut=    80.00 Ry     beta=0.70
     Davidson diagonalization with overlap
     ethr =  9.86E-03,  avg # of iterations =  1.3

     negative rho (up, down):  8.482E-01 8.500E-01

     total cpu time spent up to now is    11155.7 secs

     total energy              =  -12747.53665215 Ry
     Harris-Foulkes estimate   =  -12768.45740059 Ry
     estimated scf accuracy    <     213.45159960 Ry

     total magnetization       =     0.10 Bohr mag/cell
     absolute magnetization    =     0.13 Bohr mag/cell

     iteration # 14     ecut=    80.00 Ry     beta=0.70
     Davidson diagonalization with overlap
     ethr =  9.86E-03,  avg # of iterations =  2.2

     negative rho (up, down):  2.420E+00 2.421E+00

     total cpu time spent up to now is    11513.9 secs

     total energy              =  -12749.62846794 Ry
     Harris-Foulkes estimate   =  -12757.39076817 Ry
     estimated scf accuracy    <      52.50488281 Ry

     total magnetization       =     0.13 Bohr mag/cell
     absolute magnetization    =     0.15 Bohr mag/cell

     iteration # 15     ecut=    80.00 Ry     beta=0.70
     Davidson diagonalization with overlap
     ethr =  4.05E-03,  avg # of iterations =  4.0

     negative rho (up, down):  2.100E+00 2.102E+00

     total cpu time spent up to now is    11914.8 secs

     total energy              =  -12747.29203072 Ry
     Harris-Foulkes estimate   =  -12751.28748971 Ry
     estimated scf accuracy    <      28.73382009 Ry

     total magnetization       =     0.15 Bohr mag/cell
     absolute magnetization    =     0.18 Bohr mag/cell

     iteration # 16     ecut=    80.00 Ry     beta=0.70
     Davidson diagonalization with overlap
     ethr =  2.21E-03,  avg # of iterations =  4.6

     negative rho (up, down):  2.494E+00 2.495E+00

     total cpu time spent up to now is    12328.9 secs

     total energy              =  -12745.54403082 Ry
     Harris-Foulkes estimate   =  -12748.37831375 Ry
     estimated scf accuracy    <      16.93121943 Ry

     total magnetization       =     0.16 Bohr mag/cell
     absolute magnetization    =     0.19 Bohr mag/cell

     iteration # 17     ecut=    80.00 Ry     beta=0.70
     Davidson diagonalization with overlap
     ethr =  1.30E-03,  avg # of iterations =  5.8

     negative rho (up, down):  2.291E+00 2.291E+00

     total cpu time spent up to now is    12775.5 secs

     total energy              =  -12744.92832306 Ry
     Harris-Foulkes estimate   =  -12746.02937129 Ry
     estimated scf accuracy    <       9.86423448 Ry

     total magnetization       =     0.17 Bohr mag/cell
     absolute magnetization    =     0.20 Bohr mag/cell

     iteration # 18     ecut=    80.00 Ry     beta=0.70
     Davidson diagonalization with overlap
     ethr =  7.60E-04,  avg # of iterations =  7.3

     negative rho (up, down):  1.981E+00 1.981E+00

     total cpu time spent up to now is    13255.9 secs

     total energy              =  -12744.41928805 Ry
     Harris-Foulkes estimate   =  -12745.10394358 Ry
     estimated scf accuracy    <      10.46836131 Ry

     total magnetization       =     0.10 Bohr mag/cell
     absolute magnetization    =     0.14 Bohr mag/cell

     iteration # 19     ecut=    80.00 Ry     beta=0.70
     Davidson diagonalization with overlap
     ethr =  7.60E-04,  avg # of iterations =  1.6

     negative rho (up, down):  1.130E+00 1.130E+00

     total cpu time spent up to now is    13598.4 secs

     total energy              =  -12742.92519317 Ry
     Harris-Foulkes estimate   =  -12744.54973375 Ry
     estimated scf accuracy    <       8.43445506 Ry

     total magnetization       =     0.14 Bohr mag/cell
     absolute magnetization    =     0.16 Bohr mag/cell

     iteration # 20     ecut=    80.00 Ry     beta=0.70
     Davidson diagonalization with overlap
     ethr =  6.50E-04,  avg # of iterations =  1.2

     negative rho (up, down):  6.584E-01 6.584E-01

     total cpu time spent up to now is    13931.6 secs

     total energy              =  -12741.24558561 Ry
     Harris-Foulkes estimate   =  -12743.10457024 Ry
     estimated scf accuracy    <       6.39169725 Ry

     total magnetization       =     0.09 Bohr mag/cell
     absolute magnetization    =     0.11 Bohr mag/cell

     iteration # 21     ecut=    80.00 Ry     beta=0.70
     Davidson diagonalization with overlap
     ethr =  4.92E-04,  avg # of iterations =  5.8

     negative rho (up, down):  3.880E-01 3.879E-01

     total cpu time spent up to now is    14375.3 secs

     total energy              =  -12740.35502279 Ry
     Harris-Foulkes estimate   =  -12741.37380895 Ry
     estimated scf accuracy    <       4.49913511 Ry

     total magnetization       =     0.02 Bohr mag/cell
     absolute magnetization    =     0.04 Bohr mag/cell

     iteration # 22     ecut=    80.00 Ry     beta=0.70
     Davidson diagonalization with overlap
     ethr =  3.47E-04,  avg # of iterations =  3.1

     negative rho (up, down):  1.594E-01 1.593E-01

     total cpu time spent up to now is    14752.6 secs

     total energy              =  -12739.55337767 Ry
     Harris-Foulkes estimate   =  -12740.51762248 Ry
     estimated scf accuracy    <       4.79623269 Ry

     total magnetization       =    -0.01 Bohr mag/cell
     absolute magnetization    =     0.02 Bohr mag/cell

     iteration # 23     ecut=    80.00 Ry     beta=0.70
     Davidson diagonalization with overlap
     ethr =  3.47E-04,  avg # of iterations =  4.6

     negative rho (up, down):  2.972E-01 2.972E-01

     total cpu time spent up to now is    15165.8 secs

     total energy              =  -12739.38330274 Ry
     Harris-Foulkes estimate   =  -12739.80403031 Ry
     estimated scf accuracy    <       2.60168141 Ry

     total magnetization       =    -0.04 Bohr mag/cell
     absolute magnetization    =     0.05 Bohr mag/cell

     iteration # 24     ecut=    80.00 Ry     beta=0.70
     Davidson diagonalization with overlap
     ethr =  2.00E-04,  avg # of iterations =  3.8

     negative rho (up, down):  3.424E-01 3.424E-01

     total cpu time spent up to now is    15562.4 secs

     total energy              =  -12739.26295371 Ry
     Harris-Foulkes estimate   =  -12739.47547775 Ry
     estimated scf accuracy    <       1.61389237 Ry

     total magnetization       =    -0.06 Bohr mag/cell
     absolute magnetization    =     0.07 Bohr mag/cell

     iteration # 25     ecut=    80.00 Ry     beta=0.70
     Davidson diagonalization with overlap
     c_bands:  1 eigenvalues not converged
     ethr =  1.24E-04,  avg # of iterations =  6.2

     negative rho (up, down):  4.556E-01 4.556E-01

     total cpu time spent up to now is    16014.5 secs

     total energy              =  -12739.10878927 Ry
     Harris-Foulkes estimate   =  -12739.29605501 Ry
     estimated scf accuracy    <       1.44215542 Ry

     total magnetization       =    -0.06 Bohr mag/cell
     absolute magnetization    =     0.07 Bohr mag/cell

     iteration # 26     ecut=    80.00 Ry     beta=0.70
     Davidson diagonalization with overlap
     ethr =  1.11E-04,  avg # of iterations =  8.5

     negative rho (up, down):  1.405E-01 1.405E-01

     total cpu time spent up to now is    16528.3 secs

     total energy              =  -12738.84444019 Ry
     Harris-Foulkes estimate   =  -12739.13145746 Ry
     estimated scf accuracy    <       0.92561741 Ry

     total magnetization       =    -0.05 Bohr mag/cell
     absolute magnetization    =     0.07 Bohr mag/cell

     iteration # 27     ecut=    80.00 Ry     beta=0.70
     Davidson diagonalization with overlap
     ethr =  7.13E-05,  avg # of iterations =  8.1

     negative rho (up, down):  5.635E-02 5.635E-02

     total cpu time spent up to now is    17077.1 secs

     total energy              =  -12738.85502901 Ry
     Harris-Foulkes estimate   =  -12738.91003613 Ry
     estimated scf accuracy    <       0.31864848 Ry

     total magnetization       =    -0.02 Bohr mag/cell
     absolute magnetization    =     0.03 Bohr mag/cell

     iteration # 28     ecut=    80.00 Ry     beta=0.70
     Davidson diagonalization with overlap
     ethr =  2.45E-05,  avg # of iterations =  7.5

     negative rho (up, down):  4.491E-02 4.491E-02

     total cpu time spent up to now is    17564.7 secs

     total energy              =  -12738.87149513 Ry
     Harris-Foulkes estimate   =  -12738.88432473 Ry
     estimated scf accuracy    <       0.15254222 Ry

     total magnetization       =    -0.02 Bohr mag/cell
     absolute magnetization    =     0.02 Bohr mag/cell

     iteration # 29     ecut=    80.00 Ry     beta=0.70
     Davidson diagonalization with overlap
     ethr =  1.18E-05,  avg # of iterations =  8.9

     negative rho (up, down):  2.273E-02 2.274E-02

     total cpu time spent up to now is    18095.1 secs

     total energy              =  -12738.87445604 Ry
     Harris-Foulkes estimate   =  -12738.87811263 Ry
     estimated scf accuracy    <       0.03170654 Ry

     total magnetization       =    -0.01 Bohr mag/cell
     absolute magnetization    =     0.02 Bohr mag/cell

     iteration # 30     ecut=    80.00 Ry     beta=0.70
     Davidson diagonalization with overlap
     ethr =  2.44E-06,  avg # of iterations =  9.8

     negative rho (up, down):  2.026E-02 2.026E-02

     total cpu time spent up to now is    18698.6 secs

     total energy              =  -12738.87568445 Ry
     Harris-Foulkes estimate   =  -12738.87887555 Ry
     estimated scf accuracy    <       0.02189080 Ry

     total magnetization       =    -0.01 Bohr mag/cell
     absolute magnetization    =     0.01 Bohr mag/cell

     iteration # 31     ecut=    80.00 Ry     beta=0.70
     Davidson diagonalization with overlap
     ethr =  1.69E-06,  avg # of iterations =  8.1

     negative rho (up, down):  2.219E-02 2.219E-02

     total cpu time spent up to now is    19218.3 secs

     total energy              =  -12738.87798920 Ry
     Harris-Foulkes estimate   =  -12738.87798774 Ry
     estimated scf accuracy    <       0.00540994 Ry

     total magnetization       =    -0.01 Bohr mag/cell
     absolute magnetization    =     0.01 Bohr mag/cell

     iteration # 32     ecut=    80.00 Ry     beta=0.70
     Davidson diagonalization with overlap
     ethr =  4.17E-07,  avg # of iterations =  5.7

     negative rho (up, down):  1.589E-02 1.589E-02

     total cpu time spent up to now is    19672.3 secs

     total energy              =  -12738.87827146 Ry
     Harris-Foulkes estimate   =  -12738.87842596 Ry
     estimated scf accuracy    <       0.00087398 Ry

     total magnetization       =    -0.00 Bohr mag/cell
     absolute magnetization    =     0.01 Bohr mag/cell

     iteration # 33     ecut=    80.00 Ry     beta=0.70
     Davidson diagonalization with overlap
     ethr =  6.73E-08,  avg # of iterations =  7.0

     negative rho (up, down):  1.488E-02 1.488E-02

     total cpu time spent up to now is    20177.2 secs

     total energy              =  -12738.87827941 Ry
     Harris-Foulkes estimate   =  -12738.87834096 Ry
     estimated scf accuracy    <       0.00052053 Ry

     total magnetization       =    -0.00 Bohr mag/cell
     absolute magnetization    =     0.00 Bohr mag/cell

     iteration # 34     ecut=    80.00 Ry     beta=0.70
     Davidson diagonalization with overlap
     c_bands:  1 eigenvalues not converged
     c_bands:  1 eigenvalues not converged
     ethr =  4.01E-08,  avg # of iterations =  9.4

     negative rho (up, down):  1.210E-02 1.210E-02

     total cpu time spent up to now is    20720.4 secs

     total energy              =  -12738.87811622 Ry
     Harris-Foulkes estimate   =  -12738.87832021 Ry
     estimated scf accuracy    <       0.00023531 Ry

     total magnetization       =    -0.00 Bohr mag/cell
     absolute magnetization    =     0.00 Bohr mag/cell

     iteration # 35     ecut=    80.00 Ry     beta=0.70
     Davidson diagonalization with overlap
     ethr =  1.81E-08,  avg # of iterations =  8.2

     negative rho (up, down):  6.238E-03 6.238E-03

     total cpu time spent up to now is    21239.3 secs

     total energy              =  -12738.87790199 Ry
     Harris-Foulkes estimate   =  -12738.87813105 Ry
     estimated scf accuracy    <       0.00010281 Ry

     total magnetization       =    -0.00 Bohr mag/cell
     absolute magnetization    =     0.00 Bohr mag/cell

     iteration # 36     ecut=    80.00 Ry     beta=0.70
     Davidson diagonalization with overlap
     ethr =  7.92E-09,  avg # of iterations =  4.7

     negative rho (up, down):  3.314E-03 3.314E-03

     total cpu time spent up to now is    21675.9 secs

     total energy              =  -12738.87781145 Ry
     Harris-Foulkes estimate   =  -12738.87791160 Ry
     estimated scf accuracy    <       0.00006080 Ry

     total magnetization       =    -0.00 Bohr mag/cell
     absolute magnetization    =     0.00 Bohr mag/cell

     iteration # 37     ecut=    80.00 Ry     beta=0.70
     Davidson diagonalization with overlap
     c_bands:  1 eigenvalues not converged
     c_bands:  1 eigenvalues not converged
     ethr =  4.68E-09,  avg # of iterations =  7.8

     negative rho (up, down):  1.821E-03 1.821E-03

     total cpu time spent up to now is    22181.4 secs

     total energy              =  -12738.87777995 Ry
     Harris-Foulkes estimate   =  -12738.87781759 Ry
     estimated scf accuracy    <       0.00002516 Ry

     total magnetization       =    -0.00 Bohr mag/cell
     absolute magnetization    =     0.00 Bohr mag/cell

     iteration # 38     ecut=    80.00 Ry     beta=0.70
     Davidson diagonalization with overlap
     ethr =  1.94E-09,  avg # of iterations =  6.7

     negative rho (up, down):  1.269E-03 1.269E-03

     total cpu time spent up to now is    22650.9 secs

     total energy              =  -12738.87777574 Ry
     Harris-Foulkes estimate   =  -12738.87778191 Ry
     estimated scf accuracy    <       0.00000193 Ry

     total magnetization       =    -0.00 Bohr mag/cell
     absolute magnetization    =     0.00 Bohr mag/cell

     iteration # 39     ecut=    80.00 Ry     beta=0.70
     Davidson diagonalization with overlap
     ethr =  1.48E-10,  avg # of iterations =  3.8

     negative rho (up, down):  1.128E-03 1.128E-03

     total cpu time spent up to now is    23103.4 secs

     total energy              =  -12738.87777547 Ry
     Harris-Foulkes estimate   =  -12738.87777600 Ry
     estimated scf accuracy    <       0.00000067 Ry

     total magnetization       =    -0.00 Bohr mag/cell
     absolute magnetization    =     0.00 Bohr mag/cell

     iteration # 40     ecut=    80.00 Ry     beta=0.70
     Davidson diagonalization with overlap
     ethr =  5.13E-11,  avg # of iterations =  2.0

     negative rho (up, down):  1.039E-03 1.039E-03

     total cpu time spent up to now is    23476.5 secs

     total energy              =  -12738.87777475 Ry
     Harris-Foulkes estimate   =  -12738.87777557 Ry
     estimated scf accuracy    <       0.00000044 Ry

     total magnetization       =    -0.00 Bohr mag/cell
     absolute magnetization    =     0.00 Bohr mag/cell

     iteration # 41     ecut=    80.00 Ry     beta=0.70
     Davidson diagonalization with overlap
     ethr =  3.37E-11,  avg # of iterations =  2.7

     negative rho (up, down):  1.041E-03 1.041E-03

     total cpu time spent up to now is    23856.2 secs

     total energy              =  -12738.87777476 Ry
     Harris-Foulkes estimate   =  -12738.87777479 Ry
     estimated scf accuracy    <       0.00000007 Ry

     total magnetization       =    -0.00 Bohr mag/cell
     absolute magnetization    =     0.00 Bohr mag/cell

     iteration # 42     ecut=    80.00 Ry     beta=0.70
     Davidson diagonalization with overlap
     ethr =  5.62E-12,  avg # of iterations =  2.4

     negative rho (up, down):  1.034E-03 1.034E-03

     total cpu time spent up to now is    24257.2 secs

     total energy              =  -12738.87777452 Ry
     Harris-Foulkes estimate   =  -12738.87777477 Ry
     estimated scf accuracy    <       0.00000003 Ry

     total magnetization       =    -0.00 Bohr mag/cell
     absolute magnetization    =     0.00 Bohr mag/cell

     iteration # 43     ecut=    80.00 Ry     beta=0.70
     Davidson diagonalization with overlap
     ethr =  2.56E-12,  avg # of iterations =  3.0

     negative rho (up, down):  1.041E-03 1.041E-03
 
     Magnetic moment per site:
     atom:    1    charge:    9.5915    magn:   -0.0000    constr:    0.0000
     atom:    2    charge:    9.5920    magn:    0.0000    constr:    0.0000
     atom:    3    charge:    9.5915    magn:    0.0000    constr:    0.0000
     atom:    4    charge:    9.5920    magn:    0.0000    constr:    0.0000
     atom:    5    charge:    9.5926    magn:    0.0000    constr:    0.0000
     atom:    6    charge:    9.5925    magn:    0.0000    constr:    0.0000
     atom:    7    charge:    9.5926    magn:    0.0000    constr:    0.0000
     atom:    8    charge:    9.5925    magn:    0.0000    constr:    0.0000
     atom:    9    charge:    9.5924    magn:   -0.0000    constr:    0.0000
     atom:   10    charge:    9.5926    magn:    0.0000    constr:    0.0000
     atom:   11    charge:    9.5925    magn:    0.0000    constr:    0.0000
     atom:   12    charge:    9.5927    magn:    0.0000    constr:    0.0000
     atom:   13    charge:    9.5927    magn:    0.0000    constr:    0.0000
     atom:   14    charge:    9.5923    magn:   -0.0000    constr:    0.0000
     atom:   15    charge:    9.5928    magn:   -0.0000    constr:    0.0000
     atom:   16    charge:    9.5925    magn:   -0.0000    constr:    0.0000
     atom:   17    charge:    9.5917    magn:   -0.0000    constr:    0.0000
     atom:   18    charge:    9.5911    magn:    0.0000    constr:    0.0000
     atom:   19    charge:    9.5919    magn:    0.0000    constr:    0.0000
     atom:   20    charge:    9.5912    magn:    0.0000    constr:    0.0000
     atom:   21    charge:    9.6679    magn:    0.0000    constr:    0.0000
     atom:   22    charge:    9.6683    magn:    0.0000    constr:    0.0000
     atom:   23    charge:    9.6680    magn:   -0.0000    constr:    0.0000
     atom:   24    charge:    9.6684    magn:    0.0000    constr:    0.0000
     atom:   25    charge:    9.6682    magn:    0.0000    constr:    0.0000
     atom:   26    charge:    9.6680    magn:   -0.0000    constr:    0.0000
     atom:   27    charge:    9.6684    magn:   -0.0000    constr:    0.0000
     atom:   28    charge:    9.6680    magn:   -0.0000    constr:    0.0000
     atom:   29    charge:    9.6687    magn:   -0.0000    constr:    0.0000
     atom:   30    charge:    9.6688    magn:    0.0000    constr:    0.0000
     atom:   31    charge:    9.6687    magn:    0.0000    constr:    0.0000
     atom:   32    charge:    9.6688    magn:   -0.0000    constr:    0.0000
     atom:   33    charge:    9.6678    magn:   -0.0000    constr:    0.0000
     atom:   34    charge:    9.6682    magn:    0.0000    constr:    0.0000
     atom:   35    charge:    9.6677    magn:   -0.0000    constr:    0.0000
     atom:   36    charge:    9.6683    magn:   -0.0000    constr:    0.0000
     atom:   37    charge:    9.6683    magn:    0.0000    constr:    0.0000
     atom:   38    charge:    9.6681    magn:   -0.0000    constr:    0.0000
     atom:   39    charge:    9.6683    magn:   -0.0000    constr:    0.0000
     atom:   40    charge:    9.6681    magn:   -0.0000    constr:    0.0000
     atom:   41    charge:    9.6705    magn:   -0.0000    constr:    0.0000
     atom:   42    charge:    9.6699    magn:   -0.0000    constr:    0.0000
     atom:   43    charge:    9.6707    magn:   -0.0000    constr:    0.0000
     atom:   44    charge:    9.6699    magn:   -0.0000    constr:    0.0000
     atom:   45    charge:    9.6697    magn:    0.0000    constr:    0.0000
     atom:   46    charge:    9.6694    magn:   -0.0000    constr:    0.0000
     atom:   47    charge:    9.6694    magn:    0.0000    constr:    0.0000
     atom:   48    charge:    9.6695    magn:    0.0000    constr:    0.0000
     atom:   49    charge:    9.6696    magn:    0.0000    constr:    0.0000
     atom:   50    charge:    9.6696    magn:   -0.0000    constr:    0.0000
     atom:   51    charge:    9.6699    magn:    0.0000    constr:    0.0000
     atom:   52    charge:    9.6697    magn:    0.0000    constr:    0.0000
     atom:   53    charge:    9.6692    magn:   -0.0000    constr:    0.0000
     atom:   54    charge:    9.6693    magn:    0.0000    constr:    0.0000
     atom:   55    charge:    9.6691    magn:    0.0000    constr:    0.0000
     atom:   56    charge:    9.6693    magn:    0.0000    constr:    0.0000
     atom:   57    charge:    9.6704    magn:    0.0000    constr:    0.0000
     atom:   58    charge:    9.6708    magn:   -0.0000    constr:    0.0000
     atom:   59    charge:    9.6702    magn:    0.0000    constr:    0.0000
     atom:   60    charge:    9.6707    magn:    0.0000    constr:    0.0000
     atom:   61    charge:    9.6745    magn:    0.0000    constr:    0.0000
     atom:   62    charge:    9.6735    magn:    0.0000    constr:    0.0000
     atom:   63    charge:    9.6738    magn:   -0.0000    constr:    0.0000
     atom:   64    charge:    9.6734    magn:    0.0000    constr:    0.0000
     atom:   65    charge:    9.6724    magn:    0.0000    constr:    0.0000
     atom:   66    charge:    9.6729    magn:   -0.0000    constr:    0.0000
     atom:   67    charge:    9.6707    magn:   -0.0000    constr:    0.0000
     atom:   68    charge:    9.6731    magn:    0.0000    constr:    0.0000
     atom:   69    charge:    9.6705    magn:    0.0000    constr:    0.0000
     atom:   70    charge:    9.6702    magn:   -0.0000    constr:    0.0000
     atom:   71    charge:    9.6703    magn:    0.0000    constr:    0.0000
     atom:   72    charge:    9.6705    magn:   -0.0000    constr:    0.0000
     atom:   73    charge:    9.6728    magn:    0.0000    constr:    0.0000
     atom:   74    charge:    9.6721    magn:   -0.0000    constr:    0.0000
     atom:   75    charge:    9.6739    magn:   -0.0000    constr:    0.0000
     atom:   76    charge:    9.6721    magn:   -0.0000    constr:    0.0000
     atom:   77    charge:    9.6730    magn:   -0.0000    constr:    0.0000
     atom:   78    charge:    9.6732    magn:    0.0000    constr:    0.0000
     atom:   79    charge:    9.6729    magn:   -0.0000    constr:    0.0000
     atom:   80    charge:    9.6732    magn:   -0.0000    constr:    0.0000
     atom:   81    charge:    9.6085    magn:    0.0000    constr:    0.0000
     atom:   82    charge:    9.6106    magn:    0.0000    constr:    0.0000
     atom:   83    charge:    9.6057    magn:    0.0000    constr:    0.0000
     atom:   84    charge:    9.6108    magn:    0.0000    constr:    0.0000
     atom:   85    charge:    9.6115    magn:    0.0000    constr:    0.0000
     atom:   86    charge:    9.6054    magn:   -0.0000    constr:    0.0000
     atom:   87    charge:    9.6111    magn:   -0.0000    constr:    0.0000
     atom:   88    charge:    9.6065    magn:   -0.0000    constr:    0.0000
     atom:   89    charge:    9.6062    magn:   -0.0000    constr:    0.0000
     atom:   90    charge:    9.6043    magn:   -0.0000    constr:    0.0000
     atom:   91    charge:    9.6013    magn:    0.0000    constr:    0.0000
     atom:   92    charge:    9.6047    magn:   -0.0000    constr:    0.0000
     atom:   93    charge:    9.6084    magn:   -0.0000    constr:    0.0000
     atom:   94    charge:    9.6114    magn:   -0.0000    constr:    0.0000
     atom:   95    charge:    9.6118    magn:   -0.0000    constr:    0.0000
     atom:   96    charge:    9.6113    magn:   -0.0000    constr:    0.0000
     atom:   97    charge:    9.6070    magn:    0.0000    constr:    0.0000
     atom:   98    charge:    9.6069    magn:    0.0000    constr:    0.0000
     atom:   99    charge:    9.6085    magn:    0.0000    constr:    0.0000
     atom:  100    charge:    9.6067    magn:    0.0000    constr:    0.0000
     atom:  101    charge:    1.6832    magn:    0.0000    constr:    0.0000
     atom:  102    charge:    1.6854    magn:   -0.0000    constr:    0.0000
     atom:  103    charge:    1.6813    magn:   -0.0000    constr:    0.0000
     atom:  104    charge:    1.6816    magn:    0.0000    constr:    0.0000
     atom:  105    charge:    1.6803    magn:    0.0000    constr:    0.0000
     atom:  106    charge:    1.6794    magn:   -0.0000    constr:    0.0000
     atom:  107    charge:    1.6821    magn:   -0.0000    constr:    0.0000
     atom:  108    charge:    1.6790    magn:    0.0000    constr:    0.0000
     atom:  109    charge:    1.6803    magn:   -0.0000    constr:    0.0000
     atom:  110    charge:    1.6795    magn:   -0.0000    constr:    0.0000
     atom:  111    charge:    1.6810    magn:   -0.0000    constr:    0.0000
     atom:  112    charge:    1.6817    magn:    0.0000    constr:    0.0000
     atom:  113    charge:    1.6840    magn:    0.0000    constr:    0.0000
     atom:  114    charge:    1.6804    magn:   -0.0000    constr:    0.0000
     atom:  115    charge:    1.6812    magn:   -0.0000    constr:    0.0000
     atom:  116    charge:    1.6801    magn:    0.0000    constr:    0.0000
     atom:  117    charge:    1.6797    magn:    0.0000    constr:    0.0000
     atom:  118    charge:    1.6674    magn:   -0.0000    constr:    0.0000
     atom:  119    charge:    1.6792    magn:   -0.0000    constr:    0.0000
     atom:  120    charge:    1.6014    magn:    0.0000    constr:    0.0000
     atom:  121    charge:    3.7018    magn:   -0.0000    constr:    0.0000
     atom:  122    charge:    1.6796    magn:    0.0000    constr:    0.0000
     atom:  123    charge:    1.6673    magn:   -0.0000    constr:    0.0000
     atom:  124    charge:    1.6811    magn:   -0.0000    constr:    0.0000
     atom:  125    charge:    1.6798    magn:    0.0000    constr:    0.0000
     atom:  126    charge:    1.6764    magn:    0.0000    constr:    0.0000
     atom:  127    charge:    1.6782    magn:   -0.0000    constr:    0.0000
     atom:  128    charge:    1.6762    magn:   -0.0000    constr:    0.0000
     atom:  129    charge:    1.6778    magn:    0.0000    constr:    0.0000
     atom:  130    charge:    1.6484    magn:    0.0000    constr:    0.0000
     atom:  131    charge:    1.6824    magn:   -0.0000    constr:    0.0000
     atom:  132    charge:    2.5928    magn:   -0.0000    constr:    0.0000
     atom:  133    charge:    1.6827    magn:    0.0000    constr:    0.0000
     atom:  134    charge:    1.6484    magn:    0.0000    constr:    0.0000
     atom:  135    charge:    1.6822    magn:   -0.0000    constr:    0.0000
     atom:  136    charge:    1.6760    magn:   -0.0000    constr:    0.0000
     atom:  137    charge:    1.6776    magn:    0.0000    constr:    0.0000
     atom:  138    charge:    1.6812    magn:    0.0000    constr:    0.0000
     atom:  139    charge:    1.6828    magn:   -0.0000    constr:    0.0000
     atom:  140    charge:    1.6799    magn:   -0.0000    constr:    0.0000
     atom:  141    charge:    1.6805    magn:    0.0000    constr:    0.0000
     atom:  142    charge:    1.6815    magn:    0.0000    constr:    0.0000
     atom:  143    charge:    1.6809    magn:   -0.0000    constr:    0.0000
     atom:  144    charge:    1.6841    magn:   -0.0000    constr:    0.0000
     atom:  145    charge:    1.6823    magn:    0.0000    constr:    0.0000
     atom:  146    charge:    1.6813    magn:    0.0000    constr:    0.0000
     atom:  147    charge:    1.6806    magn:   -0.0000    constr:    0.0000
     atom:  148    charge:    1.6798    magn:   -0.0000    constr:    0.0000
     atom:  149    charge:    1.6801    magn:    0.0000    constr:    0.0000

     total cpu time spent up to now is    24641.8 secs

     End of self-consistent calculation

 ------ SPIN UP ------------


          k = 0.0000 0.0000 0.0000 (256287 PWs)   bands (ev):

   -17.5221 -16.4077 -16.2645 -15.8048 -15.3686 -14.9038 -14.6391 -14.6069
   -14.3475 -14.2684 -14.1805 -14.0450 -13.4533 -13.2094 -13.2064 -13.1696
   -13.1213 -12.7565 -11.6522 -11.5273 -11.4327 -11.3432 -11.1135 -10.3158
    -9.7631  -9.7527  -9.5476  -9.5118  -8.9362  -8.8509  -8.6612  -8.6434
    -7.9299  -7.9281  -7.7986  -7.6712  -7.6145  -7.5856  -7.5845  -7.5442
    -6.3681  -6.3283  -6.1664  -6.1480  -6.0277  -5.9638  -5.9503  -5.9086
    -5.8666  -5.6340  -5.6287  -5.2614  -4.9075  -4.8808  -4.8454  -4.7332
    -4.7030  -4.6133  -4.4772  -4.3160  -4.2171  -4.1353  -4.1334  -3.9792
    -3.9561  -3.6456  -3.6205  -3.5817  -3.5590  -3.5475  -3.5089  -3.4656
    -3.4563  -3.3615  -3.3129  -3.2276  -3.1623  -3.1570  -3.1535  -3.1528
    -3.1028  -3.1019  -2.9619  -2.9283  -2.9066  -2.8962  -2.8654  -2.8622
    -2.8047  -2.7800  -2.7688  -2.6440  -2.5389  -2.5202  -2.5092  -2.4736
    -2.4554  -2.3387  -2.3385  -2.3099  -2.2982  -2.2978  -2.2974  -2.2970
    -2.2634  -2.2415  -2.2082  -2.2074  -2.1690  -2.1688  -2.1645  -2.1644
    -2.0990  -1.9952  -1.9855  -1.9229  -1.9007  -1.8864  -1.8842  -1.8825
    -1.8564  -1.8359  -1.8181  -1.8052  -1.8024  -1.7920  -1.7531  -1.7379
    -1.7259  -1.7088  -1.7076  -1.6988  -1.6904  -1.6764  -1.6667  -1.6613
    -1.6593  -1.6579  -1.6073  -1.5800  -1.5675  -1.5614  -1.5331  -1.5212
    -1.5172  -1.4982  -1.4982  -1.4445  -1.4102  -1.4080  -1.3985  -1.3947
    -1.3575  -1.3561  -1.3466  -1.3378  -1.3342  -1.3123  -1.3087  -1.2703
    -1.2637  -1.2543  -1.2487  -1.1959  -1.1932  -1.1857  -1.1766  -1.1736
    -1.1679  -1.1670  -1.1654  -1.1647  -1.1624  -1.1607  -1.1460  -1.1443
    -1.1308  -1.0985  -1.0875  -1.0853  -1.0828  -1.0743  -1.0651  -1.0649
    -1.0623  -1.0431  -1.0055  -1.0054  -1.0023  -1.0012  -1.0011  -0.9996
    -0.9994  -0.9956  -0.9952  -0.9938  -0.9933  -0.9931  -0.9896  -0.9875
    -0.9870  -0.9822  -0.9710  -0.9660  -0.9313  -0.9309  -0.8788  -0.8358
    -0.8354  -0.8288  -0.8288  -0.8066  -0.8061  -0.7878  -0.7875  -0.7667
    -0.7657  -0.7551  -0.7540  -0.7453  -0.7444  -0.7336  -0.7130  -0.7103
    -0.7052  -0.7049  -0.6997  -0.6992  -0.6933  -0.6881  -0.6870  -0.6386
    -0.6383  -0.5845  -0.5845  -0.5745  -0.5740  -0.5711  -0.5708  -0.5688
    -0.5548  -0.5531  -0.5502  -0.5490  -0.5487  -0.5472  -0.5462  -0.5459
    -0.5303  -0.5303  -0.5223  -0.5174  -0.5140  -0.4972  -0.4970  -0.4474
    -0.4444  -0.4422  -0.4364  -0.4363  -0.4332  -0.4108  -0.4107  -0.4073
    -0.4070  -0.3937  -0.3924  -0.3877  -0.3875  -0.3809  -0.3664  -0.3655
    -0.3623  -0.3614  -0.3585  -0.3583  -0.3571  -0.3564  -0.3545  -0.3524
    -0.3362  -0.3357  -0.3320  -0.3317  -0.3150  -0.3055  -0.2657  -0.2638
    -0.2632  -0.2612  -0.2598  -0.2172  -0.2157  -0.2148  -0.2143  -0.2090
    -0.2074  -0.2068  -0.2064  -0.2057  -0.1947  -0.1736  -0.1596  -0.1554
    -0.1547  -0.1496  -0.1463  -0.1454  -0.1452  -0.1258  -0.1257  -0.1203
    -0.1182  -0.1151  -0.1115  -0.1010  -0.0991  -0.0981  -0.0979  -0.0960
    -0.0917  -0.0816  -0.0813  -0.0807  -0.0806  -0.0709  -0.0694  -0.0644
    -0.0607  -0.0419  -0.0403  -0.0097  -0.0089   0.0192   0.0226   0.0261
     0.0441   0.0523   0.0540   0.0866   0.0877   0.0899   0.0978   0.0996
     0.1018   0.1245   0.1264   0.1273   0.1282   0.1287   0.1356   0.1374
     0.1386   0.1826   0.1970   0.1972   0.2007   0.2023   0.2047   0.2074
     0.2309   0.2343   0.2379   0.2381   0.2410   0.2445   0.2595   0.2744
     0.2753   0.2807   0.2846   0.2945   0.2967   0.2969   0.3035   0.3350
     0.3398   0.3488   0.3495   0.3519   0.3553   0.3559   0.3627   0.3776
     0.3801   0.3848   0.3893   0.3894   0.3903   0.3919   0.3951   0.3954
     0.3989   0.4037   0.4098   0.4111   0.4145   0.4146   0.4203   0.4223
     0.4508   0.4613   0.4620   0.4648   0.4757   0.4871   0.5025   0.5032
     0.5035   0.5082   0.5095   0.5104   0.5114   0.5143   0.5170   0.5174
     0.5307   0.5335   0.5358   0.5369   0.5382   0.5433   0.5434   0.5552
     0.5569   0.5731   0.5766   0.5768   0.5797   0.5858   0.5910   0.5953
     0.5983   0.6041   0.6052   0.6052   0.6078   0.6098   0.6121   0.6156
     0.6241   0.6402   0.6566   0.6613   0.6621   0.6746   0.6777   0.6782
     0.6789   0.6802   0.6804   0.7108   0.7118   0.7273   0.7282   0.7320
     0.7322   0.7456   0.7461   0.7548   0.7564   0.7577   0.7585   0.7636
     0.7745   0.7887   0.7923   0.7947   0.7967   0.7985   0.7988   0.8076
     0.8161   0.8291   0.8320   0.8374   0.8415   0.8429   0.8530   0.8672
     0.8681   0.8683   0.8686   0.8698   0.8719   0.8747   0.8774   0.8811
     0.8828   0.8838   0.8845   0.8851   0.9011   0.9015   0.9105   0.9179
     0.9192   0.9247   0.9259   0.9313   0.9558   0.9592   0.9603   0.9656
     0.9671   0.9694   0.9699   0.9732   0.9755   0.9765   0.9781   0.9783
     0.9786   0.9808   0.9909   0.9925   0.9987   1.0338   1.0375   1.0441
     1.0537   1.0553   1.0580   1.0596   1.0605   1.0618   1.0653   1.0691
     1.0837   1.0931   1.0946   1.0954   1.0961   1.0969   1.0995   1.1007
     1.1017   1.1074   1.1104   1.1284   1.1291   1.1300   1.1304   1.1321
     1.1336   1.1339   1.1361   1.1452   1.1491   1.1503   1.1505   1.1567
     1.1663   1.1664   1.1674   1.1680   1.1716   1.1755   1.1823   1.1868
     1.2001   1.2030   1.2088   1.2101   1.2116   1.2157   1.2181   1.2267
     1.2362   1.2376   1.2440   1.2445   1.2475   1.2587   1.2701   1.2704
     1.2707   1.2795   1.2800   1.2828   1.2852   1.2909   1.2911   1.2912
     1.2927   1.2939   1.2951   1.2955   1.3065   1.3073   1.3083   1.3213
     1.3228   1.3232   1.3247   1.3251   1.3357   1.3398   1.3433   1.3649
     1.3683   1.3774   1.3829   1.4124   1.4136   1.4194   1.4229   1.4355
     1.4388   1.4411   1.4418   1.4456   1.4616   1.4847   1.4896   1.4909
     1.4916   1.4930   1.4986   1.5002   1.5009   1.7366   1.7508   1.8125
     1.8815   1.9776   1.9853   2.0075   2.0258   2.0418   2.0637   2.0642
     2.0645   2.0694   2.0851   2.0931   2.1051   2.1072   2.2646   2.2747
     2.3211   2.3338   2.3366   2.3455   2.3479   2.3562   2.5720   2.5827
     2.5907   2.6012   2.7976   2.9213   3.0690   3.0752   3.3973   3.3991
     3.5650   3.6799   3.6888   3.7134   3.7192   3.7256   3.7380   3.7736
     3.8230   3.8609   3.8649   3.8663   3.8698   3.8786   3.8935   3.8947
     3.9003   4.1251   4.1253   4.1352   4.1424   4.3264   4.4391   4.6226
     4.6525   4.8251   4.8858   5.1589   5.2730   5.3127   5.3357   5.4162
     5.5928   5.6043   5.6164   5.6344   5.7908   5.7943   6.2163   6.2457
     6.2505   6.2694   6.3188   6.3595   6.3602   6.3722   6.4197   6.4902
     6.5405   6.5720   6.6265   6.6623   6.7064   6.7083   6.7195   6.8839
     6.9183   6.9393   6.9609   6.9918   6.9993   7.2172   7.2225   7.4545
     7.4684   7.4947   7.5657   7.5702   7.5771   7.6039   7.7249   7.9970
     8.0822   8.1103   8.1927   8.1940   8.2197   8.2253   8.2254   8.2528
     8.2744   8.2821   8.2885   8.2893   8.4114   8.4322   8.4564   8.4794
     8.5040   8.5467   8.5518   8.5597   8.5683   8.7040   8.7061   8.7247
     8.7306   8.7970   8.8133   8.9598   9.0032   9.0098   9.0121   9.0154
     9.0218   9.1198   9.2057   9.2105   9.2727   9.3433   9.4396   9.4409
     9.6843   9.7117   9.7340   9.7586   9.7778   9.8435   9.8992   9.9002
    10.0043  10.0400  10.0476

          k = 0.0000-0.2165 0.0000 (256176 PWs)   bands (ev):

   -17.5219 -16.4559 -16.1506 -15.8886 -15.3970 -14.9144 -14.6076 -14.4333
   -14.4219 -14.2764 -14.0375 -13.8935 -13.8186 -13.7438 -13.4687 -12.5842
   -12.4422 -12.3367 -12.2609 -12.1415 -11.8926 -10.6464 -10.5532 -10.4480
   -10.3583  -9.3717  -9.3248  -9.2899  -9.1477  -9.0371  -8.9715  -8.4356
    -8.3429  -8.2052  -8.1926  -7.3560  -7.3337  -7.0633  -6.9990  -6.9567
    -6.9532  -6.8751  -6.8436  -6.1897  -6.1185  -6.0317  -6.0292  -5.5169
    -5.4194  -5.2933  -5.1841  -5.1613  -5.1030  -4.9893  -4.9838  -4.9114
    -4.7901  -4.7030  -4.6538  -4.6520  -4.5673  -4.2450  -4.1353  -3.8342
    -3.8066  -3.6730  -3.5744  -3.4528  -3.4504  -3.4502  -3.4498  -3.3294
    -3.2973  -3.2214  -3.2003  -3.1777  -3.1769  -3.1573  -3.1231  -3.0183
    -2.9951  -2.9759  -2.9238  -2.9083  -2.8560  -2.8355  -2.8330  -2.7410
    -2.7390  -2.7278  -2.7253  -2.7240  -2.7223  -2.7209  -2.6355  -2.5830
    -2.4878  -2.4584  -2.4021  -2.3837  -2.3800  -2.3725  -2.3408  -2.2928
    -2.2918  -2.2914  -2.2882  -2.1874  -2.1742  -2.1324  -2.1323  -2.1063
    -2.1063  -2.0202  -2.0068  -1.9908  -1.9424  -1.9407  -1.9225  -1.9126
    -1.9103  -1.8962  -1.8954  -1.8868  -1.8867  -1.8705  -1.8656  -1.7934
    -1.7878  -1.7731  -1.7425  -1.7247  -1.7045  -1.6131  -1.6103  -1.6048
    -1.6041  -1.5835  -1.5312  -1.5264  -1.5171  -1.5155  -1.4630  -1.4611
    -1.4269  -1.4248  -1.4212  -1.4207  -1.4196  -1.4146  -1.4081  -1.4024
    -1.3920  -1.3793  -1.3714  -1.3708  -1.3684  -1.3592  -1.3554  -1.3219
    -1.3037  -1.2874  -1.2790  -1.2778  -1.2537  -1.2339  -1.2337  -1.1960
    -1.1959  -1.1928  -1.1926  -1.1561  -1.1520  -1.1336  -1.1318  -1.1299
    -1.1258  -1.1246  -1.1234  -1.1022  -1.0742  -1.0726  -1.0650  -1.0643
    -1.0560  -1.0557  -1.0422  -1.0412  -1.0394  -1.0376  -0.9800  -0.9760
    -0.9711  -0.9649  -0.9645  -0.9559  -0.9517  -0.9439  -0.9426  -0.9401
    -0.9257  -0.9236  -0.9009  -0.9006  -0.8943  -0.8892  -0.8041  -0.8040
    -0.7955  -0.7954  -0.7783  -0.7782  -0.7570  -0.7529  -0.7500  -0.7497
    -0.7461  -0.7461  -0.7365  -0.7232  -0.7194  -0.6892  -0.6877  -0.6874
    -0.6864  -0.6860  -0.6850  -0.6805  -0.6795  -0.6503  -0.6495  -0.6299
    -0.6285  -0.6285  -0.6278  -0.6215  -0.5942  -0.5936  -0.5915  -0.5896
    -0.5835  -0.5826  -0.5776  -0.5775  -0.5682  -0.5105  -0.5076  -0.5064
    -0.4974  -0.4971  -0.4723  -0.4700  -0.4523  -0.4476  -0.4455  -0.4426
    -0.4419  -0.4388  -0.4353  -0.4172  -0.4154  -0.4110  -0.4102  -0.4010
    -0.3972  -0.3961  -0.3921  -0.3910  -0.3894  -0.3890  -0.3888  -0.3843
    -0.3842  -0.3806  -0.3769  -0.3523  -0.3522  -0.3482  -0.3478  -0.3076
    -0.2890  -0.2854  -0.2840  -0.2832  -0.2803  -0.2775  -0.2751  -0.2705
    -0.2692  -0.2560  -0.2535  -0.2441  -0.2377  -0.2337  -0.2323  -0.2276
    -0.2235  -0.2230  -0.2211  -0.2196  -0.2194  -0.2167  -0.2076  -0.1734
    -0.1625  -0.1620  -0.1617  -0.1573  -0.1464  -0.1384  -0.1383  -0.1367
    -0.1336  -0.1301  -0.1271  -0.1189  -0.1178  -0.1108  -0.1081  -0.1014
    -0.0857  -0.0853  -0.0840  -0.0695  -0.0692  -0.0677  -0.0672  -0.0507
    -0.0475  -0.0339  -0.0338  -0.0245  -0.0230  -0.0122  -0.0103  -0.0090
    -0.0087   0.0304   0.0305   0.0412   0.0422   0.0490   0.0558   0.0565
     0.0566   0.0829   0.0839   0.1124   0.1201   0.1219   0.1231   0.1481
     0.1632   0.1673   0.1891   0.2183   0.2372   0.2375   0.2453   0.2453
     0.2651   0.2662   0.2667   0.2671   0.2767   0.3034   0.3050   0.3053
     0.3084   0.3099   0.3117   0.3121   0.3138   0.3145   0.3176   0.3291
     0.3316   0.3327   0.3337   0.3371   0.3398   0.3422   0.3442   0.3698
     0.3715   0.3749   0.3825   0.3831   0.3835   0.3839   0.3925   0.3926
     0.4096   0.4109   0.4135   0.4145   0.4149   0.4163   0.4168   0.4191
     0.4325   0.4344   0.4351   0.4352   0.4386   0.4393   0.4404   0.4439
     0.4449   0.4535   0.4624   0.5006   0.5017   0.5124   0.5127   0.5171
     0.5220   0.5238   0.5244   0.5275   0.5294   0.5300   0.5362   0.5386
     0.5388   0.5397   0.5422   0.5719   0.5799   0.5805   0.5809   0.5839
     0.5966   0.5976   0.5980   0.5991   0.6004   0.6176   0.6204   0.6290
     0.6297   0.6309   0.6372   0.6389   0.6400   0.6886   0.6903   0.7305
     0.7414   0.7424   0.7455   0.7473   0.7490   0.7531   0.7597   0.7644
     0.7658   0.7663   0.7723   0.7726   0.7740   0.7795   0.7798   0.7802
     0.7890   0.7953   0.7975   0.7981   0.7986   0.8016   0.8085   0.8122
     0.8218   0.8230   0.8232   0.8233   0.8237   0.8260   0.8286   0.8312
     0.8402   0.8459   0.8460   0.8466   0.8501   0.8508   0.8516   0.8637
     0.8674   0.8705   0.8784   0.8803   0.8822   0.8856   0.8863   0.8935
     0.8940   0.8944   0.8946   0.8953   0.8976   0.9305   0.9354   0.9485
     0.9829   0.9832   0.9864   0.9919   0.9973   1.0050   1.0059   1.0082
     1.0120   1.0250   1.0263   1.0322   1.0363   1.0431   1.0456   1.0482
     1.0499   1.0529   1.0559   1.0570   1.0575   1.0577   1.0577   1.0586
     1.0610   1.0656   1.0660   1.0705   1.0774   1.0860   1.0885   1.0891
     1.0912   1.0953   1.0966   1.1058   1.1240   1.1242   1.1256   1.1312
     1.1327   1.1332   1.1355   1.1425   1.1541   1.1552   1.1556   1.1574
     1.1669   1.1675   1.1694   1.1695   1.1723   1.1849   1.1861   1.1881
     1.1895   1.1932   1.2051   1.2053   1.2077   1.2229   1.2304   1.2344
     1.2350   1.2363   1.2367   1.2369   1.2483   1.2502   1.2510   1.2552
     1.2671   1.2675   1.2808   1.2818   1.2824   1.2827   1.3010   1.3022
     1.3028   1.3043   1.3064   1.3068   1.3082   1.3083   1.3343   1.3356
     1.3439   1.3443   1.3479   1.3554   1.3670   1.3746   1.3750   1.3758
     1.3782   1.3798   1.3890   1.3895   1.3925   1.4005   1.4404   1.4460
     1.4476   1.4480   1.5168   1.5545   1.5585   1.5814   1.5841   1.5899
     1.5904   1.6143   1.6310   1.6407   1.6479   1.6544   1.6667   1.6698
     1.6724   1.6803   1.6973   1.7074   1.7118   1.8564   2.0243   2.0999
     2.2187   2.2778   2.2843   2.2865   2.3125   2.3510   2.3553   2.4196
     2.4285   2.4329   2.4351   2.4444   2.4660   2.5597   2.5666   2.6210
     2.6338   2.6389   2.6496   2.7349   2.7794   2.7831   3.0267   3.0268
     3.0444   3.0666   3.2979   3.3223   3.5282   3.5395   3.6612   3.8600
     3.9123   3.9522   3.9901   3.9946   4.0353   4.1917   4.2033   4.2040
     4.2056   4.3691   4.3762   4.5328   4.5818   4.6136   4.6640   4.7054
     4.8895   4.9591   4.9654   5.0141   5.2062   5.2170   5.2213   5.2224
     5.2464   5.3066   5.4732   5.5547   5.6173   5.7198   5.7487   6.2375
     6.3014   6.3072   6.3228   6.3389   6.3420   6.3667   6.4298   6.5017
     6.5257   6.5280   6.7022   6.7098   6.8893   6.8981   6.9391   6.9400
     6.9446   6.9648   6.9840   7.0000   7.0076   7.0261   7.2010   7.2232
     7.2582   7.2907   7.3215   7.3794   7.6133   7.6529   7.7364   7.7537
     8.0076   8.0103   8.0444   8.0868   8.2171   8.2206   8.2951   8.3413
     8.3417   8.3760   8.3808   8.3950   8.4354   8.5703   8.5750   8.5796
     8.5891   8.6203   8.6231   8.6278   8.8160   8.8324   8.8630   8.8871
     8.9563   8.9990   9.0337   9.0502   9.0619   9.1489   9.1535   9.2351
     9.2366   9.2534   9.2572   9.3447   9.3851   9.3886   9.4070   9.4098
     9.4291   9.4465   9.5045   9.5485   9.5620   9.6440   9.6453   9.7450
     9.7456   9.9942  10.0967

          k = 0.2500 0.0000 0.0000 (256240 PWs)   bands (ev):

   -17.4944 -16.3065 -16.1545 -15.7761 -15.5328 -15.2217 -15.0196 -14.9655
   -14.6091 -14.1418 -13.8196 -13.6891 -13.3061 -13.1617 -13.1002 -12.8798
   -12.3657 -12.2137 -12.1578 -11.9555 -11.2137 -10.9420 -10.8524 -10.7545
   -10.2793 -10.2048  -9.9378  -9.8546  -9.5036  -9.3096  -9.1531  -8.7008
    -7.8846  -7.7763  -7.7198  -7.5826  -7.5687  -7.5026  -7.1092  -6.9457
    -6.3399  -6.2659  -6.0608  -5.9992  -5.9853  -5.9492  -5.4687  -5.4562
    -5.4303  -5.3408  -5.0992  -4.9539  -4.7151  -4.6480  -4.6142  -4.5825
    -4.5704  -4.5512  -4.5079  -4.4071  -4.2495  -4.1864  -4.1473  -4.1444
    -4.0752  -3.9930  -3.9866  -3.9528  -3.9199  -3.8057  -3.6995  -3.6553
    -3.6372  -3.5912  -3.5305  -3.4986  -3.4759  -3.3920  -3.3669  -3.2965
    -3.2880  -3.2128  -3.1644  -3.0680  -3.0010  -2.9448  -2.9446  -2.9009
    -2.8407  -2.7636  -2.7511  -2.7096  -2.5928  -2.5460  -2.4924  -2.4792
    -2.4143  -2.2481  -2.2452  -2.2392  -2.2283  -2.2233  -2.1749  -2.1376
    -2.1150  -2.0845  -2.0410  -2.0322  -1.9804  -1.9477  -1.9475  -1.9401
    -1.9393  -1.9349  -1.9195  -1.9033  -1.8901  -1.8740  -1.8555  -1.8538
    -1.8115  -1.7959  -1.7909  -1.7674  -1.7493  -1.7306  -1.7296  -1.7269
    -1.7252  -1.7245  -1.7244  -1.6809  -1.6685  -1.6499  -1.6474  -1.6407
    -1.6359  -1.6226  -1.5190  -1.4964  -1.4754  -1.4701  -1.4582  -1.4197
    -1.4137  -1.3903  -1.3889  -1.3859  -1.3834  -1.3755  -1.3660  -1.3542
    -1.3426  -1.3311  -1.3276  -1.3244  -1.3233  -1.2960  -1.2869  -1.2819
    -1.2784  -1.2780  -1.2713  -1.2584  -1.2563  -1.2463  -1.2381  -1.2178
    -1.2143  -1.1958  -1.1948  -1.1940  -1.1905  -1.1672  -1.1597  -1.1586
    -1.1527  -1.1501  -1.1466  -1.1379  -1.1341  -1.1265  -1.1262  -1.1250
    -1.1233  -1.1207  -1.1205  -1.1107  -1.1022  -1.0921  -1.0858  -1.0766
    -1.0571  -1.0504  -1.0475  -1.0418  -1.0167  -0.9999  -0.9973  -0.9614
    -0.9609  -0.9426  -0.9400  -0.9329  -0.9168  -0.9163  -0.9021  -0.9017
    -0.8989  -0.8940  -0.8895  -0.8861  -0.8691  -0.7618  -0.7499  -0.7477
    -0.7463  -0.7285  -0.7144  -0.7136  -0.7104  -0.6961  -0.6956  -0.6948
    -0.6943  -0.6798  -0.6749  -0.6728  -0.6726  -0.6668  -0.6547  -0.6313
    -0.6311  -0.6298  -0.6291  -0.6281  -0.6244  -0.6057  -0.6056  -0.6043
    -0.5738  -0.5474  -0.5447  -0.5444  -0.5423  -0.5379  -0.5337  -0.5259
    -0.5217  -0.5053  -0.5027  -0.5017  -0.4794  -0.4781  -0.4761  -0.4724
    -0.4542  -0.4394  -0.4394  -0.4363  -0.4339  -0.4266  -0.4258  -0.4149
    -0.4103  -0.4066  -0.3990  -0.3964  -0.3809  -0.3756  -0.3690  -0.3454
    -0.3445  -0.3429  -0.3415  -0.3369  -0.3272  -0.3266  -0.3252  -0.3216
    -0.3065  -0.2983  -0.2965  -0.2960  -0.2847  -0.2806  -0.2619  -0.2587
    -0.2566  -0.2553  -0.2325  -0.2117  -0.2083  -0.2070  -0.2021  -0.1994
    -0.1881  -0.1668  -0.1647  -0.1636  -0.1580  -0.1546  -0.1526  -0.1509
    -0.1455  -0.1410  -0.1398  -0.1382  -0.1377  -0.1353  -0.1318  -0.1131
    -0.1128  -0.1103  -0.1095  -0.1048  -0.1028  -0.0862  -0.0853  -0.0716
    -0.0671  -0.0521  -0.0374  -0.0323  -0.0314  -0.0287  -0.0282  -0.0261
    -0.0128  -0.0079  -0.0044  -0.0038  -0.0015  -0.0005   0.0094   0.0348
     0.0360   0.0682   0.1014   0.1079   0.1086   0.1107   0.1234   0.1254
     0.1263   0.1275   0.1291   0.1338   0.1354   0.1400   0.1419   0.1444
     0.1449   0.1531   0.1613   0.1625   0.1632   0.1672   0.1749   0.1765
     0.1811   0.1862   0.1906   0.1921   0.1940   0.2096   0.2192   0.2222
     0.2483   0.2585   0.2608   0.2665   0.2772   0.2782   0.2976   0.2981
     0.2986   0.3027   0.3104   0.3192   0.3325   0.3355   0.3378   0.3395
     0.3398   0.3470   0.3473   0.3500   0.3514   0.3685   0.3720   0.3783
     0.3885   0.3918   0.3971   0.3992   0.4016   0.4040   0.4069   0.4105
     0.4119   0.4304   0.4334   0.4354   0.4404   0.4465   0.4476   0.4510
     0.4525   0.4567   0.4653   0.4663   0.4718   0.4730   0.4736   0.4916
     0.4937   0.5116   0.5145   0.5185   0.5215   0.5251   0.5266   0.5322
     0.5447   0.5584   0.5610   0.5788   0.5826   0.5949   0.5956   0.5992
     0.6005   0.6047   0.6125   0.6209   0.6257   0.6280   0.6315   0.6350
     0.6365   0.6476   0.6535   0.6597   0.6654   0.6699   0.6759   0.6783
     0.6788   0.6957   0.7108   0.7119   0.7131   0.7145   0.7339   0.7358
     0.7426   0.7458   0.7477   0.7497   0.7504   0.7549   0.7571   0.7605
     0.7631   0.7715   0.7997   0.8033   0.8075   0.8104   0.8111   0.8130
     0.8243   0.8268   0.8448   0.8473   0.8476   0.8487   0.8539   0.8546
     0.8575   0.8684   0.8728   0.8736   0.8752   0.8757   0.8760   0.8776
     0.8782   0.8790   0.8863   0.8875   0.8883   0.8952   0.8971   0.8993
     0.9102   0.9157   0.9203   0.9216   0.9256   0.9260   0.9304   0.9318
     0.9457   0.9467   0.9525   0.9581   0.9624   0.9630   0.9665   0.9671
     0.9788   0.9820   0.9916   0.9943   0.9975   1.0022   1.0064   1.0107
     1.0132   1.0222   1.0238   1.0328   1.0407   1.0451   1.0485   1.0500
     1.0832   1.0921   1.0944   1.0986   1.1005   1.1044   1.1066   1.1086
     1.1094   1.1101   1.1171   1.1179   1.1250   1.1290   1.1340   1.1350
     1.1384   1.1456   1.1554   1.1557   1.1563   1.1599   1.1615   1.1663
     1.1687   1.1695   1.1732   1.1746   1.1769   1.1774   1.1861   1.1901
     1.1953   1.2034   1.2039   1.2075   1.2143   1.2145   1.2150   1.2160
     1.2227   1.2354   1.2357   1.2368   1.2372   1.2562   1.2568   1.2647
     1.2662   1.2723   1.2775   1.2781   1.2794   1.2827   1.2833   1.2844
     1.2883   1.2895   1.2903   1.2980   1.2994   1.3156   1.3208   1.3218
     1.3225   1.3239   1.3249   1.3258   1.3384   1.3392   1.3426   1.3476
     1.3515   1.3632   1.3635   1.3661   1.3699   1.3739   1.3756   1.3939
     1.4023   1.4086   1.4374   1.4383   1.4722   1.4790   1.4816   1.4864
     1.5287   1.5320   1.5980   1.6050   1.6195   1.6217   1.6332   1.6403
     1.6608   1.6926   1.6932   1.8488   1.8857   1.8967   1.9374   1.9465
     1.9519   1.9647   2.0381   2.1068   2.1316   2.1675   2.4081   2.4201
     2.4258   2.4327   2.6197   2.8307   2.8312   2.8875   3.0478   3.0489
     3.0738   3.0739   3.1423   3.1639   3.3267   3.3688   3.4518   3.4626
     3.4862   3.4961   3.5500   3.5688   3.5739   3.5844   3.6039   3.7336
     3.7407   3.8038   3.8448   3.8625   4.0460   4.0815   4.0981   4.1324
     4.2704   4.3596   4.4521   4.6280   4.6786   4.6945   4.7688   5.0559
     5.0788   5.0821   5.0894   5.1560   5.2348   5.3293   5.3447   5.3592
     5.3887   5.4485   5.4837   5.5231   5.5749   5.6022   5.6095   5.6205
     5.6316   5.7252   5.7285   5.8629   5.8676   5.8948   5.9168   6.0946
     6.4028   6.5645   6.5680   6.5879   6.6090   6.6573   6.6819   6.7762
     6.8024   6.8796   6.8971   6.9135   6.9174   6.9319   7.0951   7.1414
     7.1654   7.2184   7.3027   7.4164   7.4216   7.4381   7.4507   7.6608
     7.6826   7.6916   7.8034   7.8731   7.8868   7.8891   7.9178   7.9686
     8.0429   8.1422   8.1775   8.1798   8.1871   8.2691   8.2859   8.3251
     8.3870   8.4449   8.5061   8.5108   8.6359   8.8082   8.8192   8.8872
     8.9677   8.9875   8.9989   9.0453   9.0568   9.0778   9.1317   9.1434
     9.1522   9.2004   9.2122   9.2993   9.3153   9.3184   9.3355   9.4358
     9.5806   9.5868   9.6783   9.7086   9.8056   9.8590   9.8715   9.8812
     9.9225   9.9277   9.9383

          k = 0.2500-0.2165 0.0000 (256316 PWs)   bands (ev):

   -17.4942 -16.3424 -16.0784 -15.8165 -15.4763 -15.3417 -15.1449 -14.7613
   -14.4701 -14.2573 -13.9283 -13.6072 -13.3570 -13.2581 -13.0277 -12.8273
   -12.6084 -12.0965 -11.9088 -11.5227 -11.4270 -11.2271 -11.0995 -10.8435
   -10.7141  -9.8817  -9.6919  -9.3416  -9.2687  -9.1450  -9.1067  -8.6607
    -8.6517  -8.5164  -8.4368  -7.2239  -6.9630  -6.8062  -6.6850  -6.6414
    -6.5434  -6.4880  -6.3712  -6.1165  -6.0766  -5.8537  -5.8513  -5.4529
    -5.2970  -5.0968  -5.0130  -4.9684  -4.9301  -4.8232  -4.8201  -4.6090
    -4.5023  -4.4950  -4.4949  -4.4555  -4.4166  -4.2523  -4.2285  -4.1809
    -4.0977  -3.9954  -3.8720  -3.8351  -3.7587  -3.6935  -3.6679  -3.6073
    -3.6044  -3.5955  -3.5375  -3.4197  -3.3709  -3.3447  -3.2723  -3.2372
    -3.1522  -3.0859  -3.0625  -3.0583  -3.0555  -3.0533  -3.0287  -2.9639
    -2.9235  -2.7585  -2.7347  -2.6769  -2.5885  -2.4624  -2.4609  -2.4318
    -2.4059  -2.3260  -2.3161  -2.3143  -2.3141  -2.2163  -2.1766  -2.1560
    -2.1556  -2.1148  -2.1095  -2.0847  -2.0586  -1.9727  -1.9679  -1.9589
    -1.9584  -1.9478  -1.9022  -1.8953  -1.8857  -1.8732  -1.8695  -1.8575
    -1.8536  -1.8410  -1.8312  -1.8229  -1.8225  -1.8223  -1.8217  -1.8135
    -1.8128  -1.7307  -1.7243  -1.6967  -1.6159  -1.6135  -1.5458  -1.5107
    -1.5065  -1.4901  -1.4760  -1.4750  -1.4233  -1.4225  -1.4137  -1.4087
    -1.4085  -1.3961  -1.3950  -1.3866  -1.3855  -1.3707  -1.3688  -1.3617
    -1.3597  -1.3553  -1.3496  -1.3475  -1.3406  -1.3374  -1.3286  -1.3227
    -1.2984  -1.2787  -1.2753  -1.2732  -1.2676  -1.2597  -1.2591  -1.2548
    -1.2414  -1.2246  -1.2234  -1.1864  -1.1852  -1.1829  -1.1783  -1.1724
    -1.1668  -1.1418  -1.1417  -1.1334  -1.1241  -1.1199  -1.1075  -1.1062
    -1.1030  -1.1017  -1.0972  -1.0907  -1.0711  -1.0696  -1.0604  -1.0498
    -1.0347  -1.0179  -1.0100  -1.0091  -1.0073  -1.0008  -0.9307  -0.9268
    -0.9233  -0.9217  -0.9169  -0.9160  -0.9141  -0.8707  -0.8674  -0.8590
    -0.8586  -0.8527  -0.8513  -0.8433  -0.8401  -0.8316  -0.8016  -0.8010
    -0.7933  -0.7634  -0.7597  -0.7435  -0.7145  -0.7141  -0.7105  -0.7093
    -0.7058  -0.6808  -0.6781  -0.6747  -0.6666  -0.6628  -0.6476  -0.6465
    -0.6346  -0.6326  -0.6147  -0.6026  -0.5999  -0.5926  -0.5854  -0.5762
    -0.5671  -0.5546  -0.5538  -0.5513  -0.5408  -0.5394  -0.5290  -0.5244
    -0.5141  -0.5128  -0.5090  -0.5079  -0.5069  -0.5038  -0.5027  -0.4972
    -0.4950  -0.4820  -0.4771  -0.4637  -0.4627  -0.4594  -0.4366  -0.4277
    -0.4186  -0.4127  -0.4015  -0.3961  -0.3853  -0.3853  -0.3761  -0.3675
    -0.3638  -0.3627  -0.3600  -0.3545  -0.3275  -0.3192  -0.2993  -0.2992
    -0.2622  -0.2609  -0.2534  -0.2530  -0.2511  -0.2499  -0.2372  -0.2326
    -0.2323  -0.2147  -0.2142  -0.2122  -0.2018  -0.1968  -0.1918  -0.1904
    -0.1879  -0.1851  -0.1837  -0.1796  -0.1618  -0.1580  -0.1539  -0.1489
    -0.1486  -0.1464  -0.1462  -0.1439  -0.1430  -0.1389  -0.1357  -0.1352
    -0.1143  -0.1141  -0.1137  -0.1129  -0.0815  -0.0801  -0.0753  -0.0715
    -0.0708  -0.0635  -0.0485  -0.0458  -0.0343  -0.0305  -0.0178  -0.0132
    -0.0128  -0.0045  -0.0013   0.0072   0.0077   0.0095   0.0142   0.0216
     0.0257   0.0322   0.0333   0.0572   0.0618   0.1164   0.1218   0.1274
     0.1326   0.1344   0.1362   0.1371   0.1398   0.1415   0.1459   0.1484
     0.1496   0.1567   0.1662   0.1729   0.1758   0.1768   0.1793   0.1849
     0.1870   0.1915   0.1943   0.2047   0.2204   0.2261   0.2347   0.2353
     0.2421   0.2480   0.2578   0.2623   0.2930   0.2991   0.3019   0.3047
     0.3108   0.3123   0.3127   0.3238   0.3247   0.3294   0.3316   0.3341
     0.3351   0.3375   0.3388   0.3479   0.3665   0.3670   0.3745   0.3753
[...]
     1.0835   1.0884   1.0970   1.1000   1.1001   1.1067   1.1246   1.1263
     1.1330   1.1339   1.1479   1.1509   1.1536   1.1559   1.1645   1.1657
     1.1720   1.1787   1.1831   1.1843   1.1861   1.1885   1.1897   1.1898
     1.2008   1.2028   1.2035   1.2066   1.2133   1.2155   1.2231   1.2309
     1.2364   1.2371   1.2381   1.2385   1.2402   1.2422   1.2481   1.2493
     1.2577   1.2585   1.2602   1.2652   1.2710   1.2780   1.2805   1.2819
     1.2908   1.2930   1.2936   1.2942   1.2982   1.2984   1.2992   1.3018
     1.3089   1.3091   1.3120   1.3338   1.3340   1.3352   1.3402   1.3441
     1.3552   1.3584   1.3767   1.3792   1.3833   1.3838   1.4023   1.4062
     1.4112   1.4132   1.4142   1.4399   1.4413   1.5007   1.5045   1.5268
     1.5278   1.5725   1.6086   1.6119   1.6272   1.6390   1.6448   1.6469
     1.6501   1.6574   1.6817   1.7102   1.7199   1.9041   1.9781   1.9812
     2.0094   2.0186   2.0863   2.1464   2.1836   2.3476   2.4389   2.4521
     2.6431   2.6468   2.6509   2.6605   2.6627   2.6922   2.7078   2.7253
     2.8379   2.8443   2.9490   2.9582   3.3915   3.4033   3.4779   3.4890
     3.5571   3.5803   3.6924   3.6989   3.7046   3.7072   3.8500   3.8600
     3.9066   3.9218   4.0149   4.0200   4.2090   4.2305   4.2542   4.2845
     4.4187   4.4256   4.4510   4.5250   4.5432   4.6262   4.7259   4.8135
     4.8198   4.9008   4.9188   4.9816   4.9859   5.1493   5.1673   5.2530
     5.2931   5.3141   5.3189   5.3239   5.3276   5.4451   5.6128   5.6223
     5.7634   5.7757   5.7973   5.8283   5.9008   6.2492   6.4268   6.4662
     6.5247   6.5354   6.6192   6.6271   6.7427   6.7563   6.8650   6.9388
     6.9598   6.9609   6.9675   6.9867   7.0222   7.0714   7.0798   7.1291
     7.1841   7.1930   7.2085   7.2424   7.2901   7.3034   7.3078   7.5367
     7.5479   7.6367   7.6699   7.8246   7.8871   7.9184   7.9517   8.0518
     8.0686   8.1225   8.1379   8.1945   8.2230   8.4560   8.4612   8.5195
     8.5209   8.5662   8.5768   8.5833   8.6050   8.7087   8.8099   8.8234
     8.8254   8.8708   8.9965   9.0117   9.0355   9.0528   9.0578   9.0833
     9.0932   9.1248   9.1337   9.1722   9.1915   9.2195   9.2253   9.2335
     9.3074   9.3395   9.5079   9.5421   9.5918   9.6119   9.6894   9.8141
     9.8183   9.8641   9.9252

          k =-0.5000 0.0000 0.0000 (256496 PWs)   bands (ev):

   -17.4645 -16.0547 -16.0386 -15.8276 -15.6759 -15.6401 -15.3185 -14.8289
   -14.5810 -14.5452 -14.1433 -13.1694 -12.8192 -12.7642 -12.6523 -12.3783
   -12.2147 -11.9829 -11.9780 -11.8377 -11.8110 -11.3211 -11.2550 -10.8199
   -10.6862 -10.3309 -10.2274  -9.9861  -9.8220  -9.1920  -9.1014  -9.0042
    -8.9440  -7.7105  -7.6190  -7.5851  -7.4667  -7.4280  -7.4069  -6.1988
    -6.1586  -5.8451  -5.4571  -5.4562  -5.3196  -5.1569  -5.0586  -4.9556
    -4.9520  -4.9512  -4.9469  -4.9309  -4.8336  -4.8295  -4.7863  -4.7605
    -4.7396  -4.6578  -4.6445  -4.5807  -4.5264  -4.4623  -4.4307  -4.3002
    -4.1604  -4.1412  -4.1024  -4.0895  -4.0817  -3.7954  -3.7528  -3.6834
    -3.6831  -3.6591  -3.6131  -3.5665  -3.5655  -3.5654  -3.5616  -3.4557
    -3.4537  -3.4384  -3.4324  -3.0516  -3.0323  -2.9787  -2.9156  -2.9053
    -2.8961  -2.8527  -2.8400  -2.7560  -2.7376  -2.6661  -2.5623  -2.5562
    -2.5363  -2.4471  -2.4382  -2.4373  -2.4308  -2.0259  -2.0254  -2.0245
    -2.0243  -2.0228  -2.0219  -1.9602  -1.9503  -1.9299  -1.8926  -1.8811
    -1.8581  -1.8013  -1.7970  -1.7969  -1.7963  -1.7678  -1.7485  -1.7478
    -1.7474  -1.7455  -1.6631  -1.6448  -1.6331  -1.6329  -1.5929  -1.5739
    -1.5726  -1.5716  -1.5707  -1.5637  -1.5529  -1.5517  -1.5300  -1.5166
    -1.5048  -1.5045  -1.4986  -1.4978  -1.4889  -1.4873  -1.4839  -1.4815
    -1.4764  -1.4482  -1.4374  -1.4369  -1.4349  -1.4228  -1.4146  -1.4138
    -1.4135  -1.4062  -1.3499  -1.3498  -1.3309  -1.3289  -1.3271  -1.3268
    -1.3174  -1.3001  -1.2992  -1.2989  -1.2943  -1.2934  -1.2922  -1.2581
    -1.2541  -1.2520  -1.2515  -1.2486  -1.2318  -1.2312  -1.2016  -1.2013
    -1.1973  -1.1559  -1.1554  -1.1279  -1.1274  -1.1244  -1.1241  -1.1038
    -1.0966  -1.0960  -1.0959  -1.0941  -1.0929  -1.0913  -1.0818  -1.0783
    -1.0776  -1.0744  -1.0735  -1.0630  -1.0499  -1.0495  -0.9885  -0.9879
    -0.9857  -0.9844  -0.9477  -0.9410  -0.9406  -0.8575  -0.8572  -0.8561
    -0.8554  -0.8303  -0.8200  -0.8194  -0.8183  -0.8179  -0.8160  -0.8145
    -0.8068  -0.7886  -0.7781  -0.7775  -0.7771  -0.7737  -0.7682  -0.7644
    -0.7495  -0.7445  -0.7435  -0.7271  -0.7016  -0.6518  -0.6475  -0.6254
    -0.6239  -0.6229  -0.6118  -0.6026  -0.6024  -0.5871  -0.5699  -0.5553
    -0.5524  -0.5519  -0.5515  -0.5495  -0.5486  -0.5379  -0.5232  -0.5139
    -0.5132  -0.5122  -0.5114  -0.4917  -0.4760  -0.4752  -0.4745  -0.4742
    -0.4412  -0.4410  -0.4408  -0.4403  -0.4299  -0.4295  -0.4174  -0.3967
    -0.3966  -0.3943  -0.3938  -0.3807  -0.3768  -0.3682  -0.3541  -0.3489
    -0.3425  -0.3010  -0.2820  -0.2803  -0.2801  -0.2795  -0.2749  -0.2741
    -0.2725  -0.2709  -0.2358  -0.2350  -0.2308  -0.2304  -0.1985  -0.1982
    -0.1706  -0.1696  -0.1680  -0.1679  -0.1678  -0.1671  -0.1670  -0.1650
    -0.1649  -0.1647  -0.1642  -0.1624  -0.1485  -0.0908  -0.0904  -0.0828
    -0.0813  -0.0803  -0.0791  -0.0774  -0.0750  -0.0742  -0.0724  -0.0700
    -0.0684  -0.0657  -0.0644  -0.0607  -0.0591  -0.0587  -0.0574  -0.0487
    -0.0430  -0.0429  -0.0275  -0.0273  -0.0260  -0.0257  -0.0254  -0.0254
    -0.0180  -0.0174  -0.0172  -0.0168  -0.0040  -0.0036   0.0058   0.0085
     0.0087   0.0094   0.0100   0.0252   0.0373   0.0392   0.0814   0.1219
     0.1384   0.1388   0.1416   0.1423   0.1429   0.1728   0.1736   0.1749
     0.1750   0.1857   0.1884   0.1919   0.1934   0.1980   0.1981   0.1996
     0.2002   0.2036   0.2042   0.2060   0.2076   0.2100   0.2140   0.2246
     0.2264   0.2270   0.2332   0.2387   0.2425   0.2426   0.2494   0.2527
     0.2530   0.2593   0.2616   0.2911   0.3061   0.3076   0.3418   0.3440
     0.3471   0.3477   0.3611   0.3616   0.3751   0.3798   0.3808   0.3815
     0.3830   0.3839   0.3863   0.3884   0.3891   0.3902   0.3910   0.3930
     0.3936   0.3942   0.3994   0.4010   0.4022   0.4050   0.4220   0.4258
     0.4390   0.4391   0.4542   0.4568   0.4712   0.4726   0.4741   0.4755
     0.4799   0.4845   0.4852   0.4853   0.4886   0.4892   0.4912   0.5009
     0.5053   0.5083   0.5085   0.5205   0.5219   0.5250   0.5255   0.5430
     0.5575   0.5592   0.5604   0.5611   0.5646   0.5676   0.5817   0.5823
     0.6028   0.6149   0.6180   0.6199   0.6203   0.6215   0.6232   0.6245
     0.6654   0.6889   0.6924   0.6933   0.6966   0.6967   0.6973   0.7012
     0.7040   0.7050   0.7059   0.7072   0.7095   0.7108   0.7207   0.7209
     0.7382   0.7395   0.7424   0.7434   0.7591   0.7595   0.7604   0.7609
     0.7629   0.7630   0.7663   0.7867   0.8029   0.8040   0.8051   0.8078
     0.8568   0.8659   0.8679   0.8691   0.8696   0.8776   0.8997   0.9003
     0.9012   0.9025   0.9123   0.9194   0.9195   0.9295   0.9318   0.9343
     0.9477   0.9482   0.9585   0.9660   0.9665   0.9679   0.9724   0.9726
     0.9745   0.9759   0.9780   0.9798   0.9827   0.9876   0.9891   0.9907
     0.9911   0.9916   0.9920   0.9959   0.9959   1.0036   1.0317   1.0319
     1.0341   1.0355   1.0422   1.0575   1.0661   1.0688   1.0693   1.0713
     1.0729   1.0737   1.0852   1.0877   1.0963   1.0967   1.0973   1.0974
     1.1075   1.1078   1.1088   1.1118   1.1128   1.1198   1.1301   1.1333
     1.1440   1.1540   1.1551   1.1643   1.1702   1.1706   1.1709   1.1715
     1.1719   1.1721   1.1735   1.1797   1.1844   1.1848   1.1852   1.1858
     1.1865   1.1874   1.1889   1.1957   1.1968   1.1969   1.1978   1.1988
     1.2009   1.2039   1.2042   1.2114   1.2186   1.2200   1.2432   1.2438
     1.2457   1.2466   1.2478   1.2490   1.2520   1.2522   1.2650   1.2666
     1.2698   1.2703   1.2836   1.2838   1.2916   1.2917   1.3049   1.3051
     1.3053   1.3060   1.3221   1.3246   1.3297   1.3308   1.3321   1.3325
     1.3334   1.3334   1.3348   1.3408   1.3536   1.3552   1.3568   1.3651
     1.3685   1.3687   1.3694   1.3696   1.3770   1.3828   1.3940   1.4269
     1.4345   1.4372   1.4615   1.4619   1.4652   1.4674   1.5163   1.7937
     1.8854   1.8940   1.8975   1.9145   2.0430   2.0833   2.1110   2.1210
     2.1343   2.1386   2.1414   2.1469   2.1699   2.3455   2.4856   2.4953
     2.5063   2.5130   2.6872   2.6895   2.6947   2.7204   3.0383   3.0392
     3.0401   3.0444   3.3226   3.3340   3.6192   3.6346   3.6360   3.6380
     3.7807   3.7811   3.7892   3.7970   3.9107   3.9260   3.9304   3.9345
     4.0626   4.0871   4.1783   4.3047   4.4562   4.5603   4.6272   4.6424
     4.6514   4.6554   4.6813   4.6818   4.7330   4.7551   4.8718   4.8721
     4.8910   4.9060   4.9094   4.9152   4.9361   4.9366   4.9551   4.9707
     5.0052   5.0419   5.1323   5.2763   5.4009   5.4081   5.4513   5.5065
     5.5911   5.6091   5.7815   5.8191   5.8508   5.8537   5.8718   5.8959
     5.9226   5.9261   5.9433   6.0077   6.1736   6.3405   6.3494   6.3705
     6.3837   6.3900   6.3920   6.9385   6.9703   6.9714   6.9882   6.9959
     7.0014   7.3414   7.4607   7.4619   7.4646   7.4648   7.4695   7.4767
     7.5250   7.6425   7.6735   7.7010   7.7546   7.7563   7.7631   7.8096
     7.9255   7.9297   7.9400   7.9880   8.0373   8.0405   8.0584   8.2630
     8.3668   8.4017   8.6899   8.6986   8.7048   8.7054   8.8512   8.8781
     8.9193   8.9449   8.9500   8.9549   8.9585   8.9605   9.0119   9.0797
     9.1176   9.1316   9.2627   9.3289   9.3525   9.3928   9.4000   9.4060
     9.4137   9.4161   9.4231   9.4740   9.4759   9.4852   9.5197   9.8779
     9.8964   9.9204   9.9296

          k =-0.5000-0.2165 0.0000 (256328 PWs)   bands (ev):

   -17.4644 -16.0825 -15.9793 -15.9008 -15.7383 -15.4333 -15.2161 -15.1838
   -14.7766 -14.0476 -13.7761 -13.7340 -13.4320 -12.5380 -12.3837 -12.0919
   -12.0803 -11.8245 -11.7311 -11.6577 -11.6478 -11.5948 -11.4955 -11.4576
   -11.2753 -10.0340  -9.8744  -9.8065  -9.7556  -9.0758  -8.8810  -8.8484
    -8.8308  -8.2920  -8.2220  -8.0785  -8.0262  -6.3556  -6.2407  -6.1440
    -6.0112  -5.8707  -5.6016  -5.4096  -5.3942  -5.3539  -5.3288  -5.3287
    -5.3265  -5.3183  -5.2293  -5.1064  -5.0990  -4.6400  -4.5706  -4.5365
    -4.4694  -4.4562  -4.4030  -4.3474  -4.3472  -4.3450  -4.3408  -4.2773
    -4.2695  -4.1956  -4.0304  -4.0124  -3.9894  -3.9645  -3.8878  -3.8417
    -3.8048  -3.7522  -3.7403  -3.6926  -3.6852  -3.6605  -3.6051  -3.5523
    -3.5341  -3.2786  -3.1854  -3.1674  -3.1398  -2.7284  -2.7265  -2.7252
    -2.7250  -2.6998  -2.6843  -2.6659  -2.6611  -2.6423  -2.6384  -2.4541
    -2.4207  -2.3142  -2.2643  -2.2509  -2.2436  -2.2300  -2.2168  -2.1945
    -2.1541  -2.1508  -2.1471  -2.1246  -2.0897  -2.0081  -1.9512  -1.9501
    -1.9469  -1.9450  -1.9086  -1.8687  -1.8507  -1.7220  -1.7004  -1.6396
    -1.6393  -1.6389  -1.6388  -1.6353  -1.6228  -1.6003  -1.5994  -1.5952
    -1.5900  -1.5784  -1.5774  -1.5768  -1.5765  -1.5327  -1.5315  -1.5313
    -1.5303  -1.5298  -1.5296  -1.5236  -1.5222  -1.5037  -1.5036  -1.5034
    -1.5032  -1.4566  -1.4564  -1.4527  -1.4526  -1.3959  -1.3843  -1.3739
    -1.3729  -1.3473  -1.3365  -1.3363  -1.3357  -1.3355  -1.3253  -1.3195
    -1.3190  -1.3179  -1.2931  -1.2664  -1.2661  -1.2656  -1.2638  -1.2612
    -1.2610  -1.2609  -1.2586  -1.2312  -1.2297  -1.2260  -1.2067  -1.2063
    -1.1990  -1.1981  -1.1892  -1.1890  -1.1839  -1.1830  -1.1822  -1.1819
    -1.1816  -1.1813  -1.1643  -1.1112  -1.1044  -1.0601  -1.0310  -1.0302
    -1.0283  -1.0275  -0.9986  -0.9981  -0.9979  -0.9977  -0.9245  -0.9176
    -0.9171  -0.9158  -0.9140  -0.9091  -0.9086  -0.9081  -0.9072  -0.9056
    -0.9040  -0.8750  -0.8468  -0.8456  -0.8448  -0.8421  -0.8364  -0.8356
    -0.8351  -0.8328  -0.8163  -0.8150  -0.8109  -0.8083  -0.7259  -0.7253
    -0.7207  -0.7195  -0.7166  -0.7147  -0.7122  -0.7100  -0.6454  -0.6451
    -0.6440  -0.6424  -0.5948  -0.5947  -0.5939  -0.5929  -0.5744  -0.5741
    -0.5735  -0.5734  -0.5570  -0.5517  -0.5466  -0.5442  -0.5357  -0.5353
    -0.5338  -0.5330  -0.5164  -0.4987  -0.4977  -0.4962  -0.4216  -0.4213
    -0.4169  -0.4167  -0.4029  -0.4025  -0.4020  -0.4017  -0.3888  -0.3865
    -0.3854  -0.3854  -0.3181  -0.3023  -0.3013  -0.3006  -0.2994  -0.2987
    -0.2978  -0.2974  -0.2968  -0.2951  -0.2948  -0.2928  -0.2576  -0.2568
    -0.2567  -0.2565  -0.2484  -0.2454  -0.2454  -0.2452  -0.2441  -0.2403
    -0.2400  -0.2386  -0.2114  -0.1728  -0.1717  -0.1705  -0.1672  -0.1643
    -0.1469  -0.1451  -0.1428  -0.1368  -0.1017  -0.0954  -0.0923  -0.0865
    -0.0755  -0.0689  -0.0667  -0.0647  -0.0639  -0.0615  -0.0603  -0.0577
    -0.0561  -0.0555  -0.0537  -0.0526  -0.0515  -0.0502  -0.0458  -0.0448
    -0.0443  -0.0428  -0.0380  -0.0380  -0.0355  -0.0354  -0.0219  -0.0216
    -0.0214  -0.0208   0.0059   0.0059   0.0067   0.0068   0.0151   0.0154
     0.0165   0.0168   0.0455   0.0654   0.0658   0.0662   0.0676   0.0955
     0.0982   0.0990   0.0997   0.1261   0.1684   0.1761   0.1768   0.1801
     0.1820   0.1835   0.1939   0.1954   0.1959   0.1982   0.1997   0.2018
     0.2091   0.2116   0.2117   0.2127   0.2200   0.2208   0.2215   0.2241
     0.2249   0.2256   0.2283   0.2321   0.2353   0.2433   0.2503   0.2622
     0.2629   0.3041   0.3054   0.3067   0.3098   0.3100   0.3113   0.3144
     0.3165   0.3254   0.3260   0.3261   0.3265   0.3545   0.3604   0.3616
     0.3639   0.3647   0.3658   0.3704   0.3713   0.3715   0.4071   0.4077
     0.4093   0.4104   0.4210   0.4218   0.4221   0.4238   0.4243   0.4259
     0.4268   0.4300   0.4301   0.4305   0.4337   0.4437   0.4447   0.4459
     0.4481   0.4482   0.4603   0.4645   0.4652   0.4999   0.5219   0.5310
     0.5328   0.5360   0.5368   0.5374   0.5388   0.5399   0.5428   0.5465
     0.5481   0.5489   0.5622   0.5633   0.5731   0.5832   0.5841   0.5846
     0.5855   0.5858   0.5865   0.5868   0.5896   0.6217   0.6379   0.6382
     0.6396   0.6474   0.6658   0.6662   0.6683   0.6688   0.6869   0.6899
     0.6977   0.7019   0.7030   0.7036   0.7050   0.7282   0.7288   0.7314
     0.7331   0.7789   0.7801   0.7804   0.7814   0.8097   0.8123   0.8127
     0.8137   0.8183   0.8544   0.8619   0.8651   0.8679   0.8696   0.8812
     0.8834   0.8866   0.8928   0.8944   0.8962   0.8965   0.8992   0.8997
     0.8998   0.9004   0.9031   0.9032   0.9053   0.9065   0.9114   0.9271
     0.9310   0.9326   0.9344   0.9358   0.9373   0.9379   0.9392   0.9424
     0.9453   0.9475   0.9546   0.9552   0.9567   0.9751   0.9778   0.9801
     0.9816   0.9837   0.9881   0.9907   0.9942   0.9972   1.0014   1.0023
     1.0038   1.0303   1.0456   1.0458   1.0461   1.0501   1.0512   1.0526
     1.0580   1.0756   1.0767   1.0774   1.0776   1.0828   1.0944   1.0953
     1.1024   1.1059   1.1120   1.1188   1.1203   1.1232   1.1253   1.1256
     1.1262   1.1339   1.1340   1.1349   1.1364   1.1403   1.1427   1.1429
     1.1435   1.1604   1.2064   1.2069   1.2073   1.2076   1.2088   1.2091
     1.2100   1.2101   1.2158   1.2202   1.2210   1.2239   1.2285   1.2296
     1.2305   1.2339   1.2381   1.2382   1.2395   1.2405   1.2443   1.2458
     1.2470   1.2496   1.2498   1.2515   1.2521   1.2523   1.2629   1.2643
     1.2689   1.2703   1.2715   1.2722   1.2734   1.3046   1.3052   1.3052
     1.3054   1.3184   1.3201   1.3205   1.3230   1.3265   1.3354   1.3363
     1.3377   1.3482   1.3571   1.3572   1.3587   1.3784   1.4135   1.4138
     1.4226   1.4277   1.4281   1.4286   1.4290   1.4548   1.4586   1.4587
     1.4613   1.4688   1.4691   1.4701   1.4716   1.4732   1.4738   1.4757
     1.4783   1.6847   1.6854   1.6920   1.6928   1.8561   2.0715   2.1667
     2.2091   2.2134   2.2435   2.2496   2.4141   2.4149   2.4186   2.4246
     2.6582   2.6606   2.6646   2.6886   2.9586   2.9691   2.9759   2.9764
     3.3072   3.3080   3.3091   3.3124   3.4863   3.4988   3.5014   3.5079
     3.7823   3.7827   3.7845   3.7851   4.0791   4.0819   4.0856   4.0867
     4.1951   4.2214   4.2261   4.2475   4.4012   4.4290   4.4295   4.4355
     4.4399   4.4626   4.4813   4.4856   4.6804   4.7248   4.7735   4.8262
     4.8916   4.8968   4.9767   5.0168   5.0369   5.0396   5.0431   5.0666
     5.1167   5.1647   5.2062   5.2326   5.2487   5.2493   5.2684   5.3087
     5.5623   5.6055   5.6072   5.6079   5.6112   5.6420   5.7002   5.7642
     5.7878   5.7900   5.8368   6.6015   6.6226   6.6510   6.6574   6.6675
     6.9757   6.9876   6.9903   6.9984   7.0258   7.0278   7.0297   7.0714
     7.1784   7.1871   7.1967   7.2076   7.2291   7.2305   7.2345   7.2607
     7.5132   7.5152   7.5310   7.5731   7.6132   7.8258   7.8656   7.8709
     7.8751   7.9025   7.9357   8.0844   8.0955   8.0979   8.1285   8.4086
     8.4227   8.6401   8.7308   8.7522   8.7586   8.7595   8.7600   8.7909
     8.7928   8.7986   8.8086   8.8275   8.8298   8.8332   8.8346   9.0341
     9.0790   9.0795   9.1142   9.1285   9.4110   9.4117   9.4342   9.4585
     9.4694   9.4733   9.4836   9.5160   9.5294   9.5923   9.5983   9.8594
     9.9509   9.9955   9.9982

     the Fermi energy is     3.1771 ev

!    total energy              =  -12738.87777455 Ry
     Harris-Foulkes estimate   =  -12738.87777452 Ry
     estimated scf accuracy    <          6.8E-09 Ry

     The total energy is the sum of the following terms:

     one-electron contribution = -109348.82191833 Ry
     hartree contribution      =   56033.27189592 Ry
     xc contribution           =   -4454.70898422 Ry
     ewald contribution        =   45037.77659769 Ry
     Dispersion Correction     =      -3.00718000 Ry
     smearing contrib. (-TS)   =      -3.38818561 Ry

     total magnetization       =    -0.00 Bohr mag/cell
     absolute magnetization    =     0.00 Bohr mag/cell

     convergence has been achieved in  43 iterations

     Writing output data file gc.save
 
     init_run     :    195.35s CPU    209.81s WALL (       1 calls)
     electrons    :  22874.50s CPU  24432.21s WALL (       1 calls)

     Called by init_run:
     wfcinit      :    191.84s CPU    205.28s WALL (       1 calls)
     potinit      :      0.53s CPU      0.57s WALL (       1 calls)

     Called by electrons:
     c_bands      :  21096.42s CPU  22495.56s WALL (      43 calls)
     sum_band     :   1605.80s CPU   1736.54s WALL (      43 calls)
     v_of_rho     :      6.14s CPU      7.48s WALL (      44 calls)
     newd         :     13.84s CPU     19.86s WALL (      44 calls)
     mix_rho      :    152.13s CPU    172.58s WALL (      43 calls)

     Called by c_bands:
     init_us_2    :     71.42s CPU     72.37s WALL (    1044 calls)
     cegterg      :  20780.59s CPU  22168.06s WALL (     525 calls)

     Called by sum_band:
     sum_band:bec :     10.15s CPU     11.54s WALL (     516 calls)
     addusdens    :     17.54s CPU     23.24s WALL (      43 calls)

     Called by *egterg:
     h_psi        :   7813.68s CPU   8443.17s WALL (    3326 calls)
     s_psi        :   1820.73s CPU   1842.70s WALL (    3326 calls)
     g_psi        :     19.45s CPU     19.45s WALL (    2789 calls)
     cdiaghg      :   5789.78s CPU   6007.14s WALL (    3305 calls)

     Called by h_psi:
     add_vuspsi   :   1828.77s CPU   1852.66s WALL (    3326 calls)

     General routines
     calbec       :   2648.86s CPU   2668.08s WALL (    3842 calls)
     fft          :      6.65s CPU      7.63s WALL (    1096 calls)
     ffts         :     87.96s CPU    100.09s WALL (   22978 calls)
     fftw         :   4616.31s CPU   5139.93s WALL ( 2502464 calls)
     davcio       :      0.46s CPU     10.78s WALL (      12 calls)
 
     Parallel routines
     fft_scatter  :   2971.60s CPU   3229.34s WALL ( 2526538 calls)
 
     PWSCF        :     6h24m CPU        6h51m WALL

 
   This run was terminated on:  17:31:48   9Apr2017            

=------------------------------------------------------------------------------=
   JOB DONE.
=------------------------------------------------------------------------------=
