
     Program PWSCF v.5.4.0 starts on 25Nov2016 at 10:22:50 

     This program is part of the open-source Quantum ESPRESSO suite
     for quantum simulation of materials; please cite
         "P. Giannozzi et al., J. Phys.:Condens. Matter 21 395502 (2009);
          URL http://www.quantum-espresso.org", 
     in publications or presentations arising from this work. More details at
     http://www.quantum-espresso.org/quote

     Parallel version (MPI & OpenMP), running on      64 processor cores
     Number of MPI processes:                64
     Threads/MPI process:                     1
     R & G space division:  proc/nbgrp/npool/nimage =      64
     Waiting for input...
     Reading input from standard input

     Current dimensions of program PWSCF are:
     Max number of different atomic species (ntypx) = 10
     Max number of k-points (npk) =  40000
     Max angular momentum in pseudopotentials (lmaxx) =  3

     -------------------------------------
     Parameters for Dispersion Correction:
     -------------------------------------
       atom      VdW radius       C_6     

        Cu         2.952        374.666
        C          2.744         60.710

     Subspace diagonalization in iterative solution of the eigenvalue problem:
     one sub-group per band group will be used
     scalapack distributed-memory algorithm (size of sub-group:  5*  5 procs)

 
     Parallelization info
     --------------------
     sticks:   dense  smooth     PW     G-vecs:    dense   smooth      PW
     Min         178     178     47                32032    32032    4341
     Max         179     179     48                32043    32043    4347
     Sum       11433   11433   3039              2050409  2050409  278033
 


     bravais-lattice index     =            0
     lattice parameter (alat)  =      13.9425  a.u.
     unit-cell volume          =   21209.0878 (a.u.)^3
     number of atoms/cell      =          148
     number of atomic types    =            2
     number of electrons       =      1292.00
     number of Kohn-Sham states=          775
     kinetic-energy cutoff     =      80.0000  Ry
     charge density cutoff     =     320.0000  Ry
     convergence threshold     =      1.0E-08
     mixing beta               =       0.7000
     number of iterations used =            8  local-TF  mixing
     Exchange-correlation      =  SLA  PW   PBX  PBC ( 1  4  3  4 0 0)
     nstep                     =           50


     celldm(1)=  13.942539  celldm(2)=   0.000000  celldm(3)=   0.000000
     celldm(4)=   0.000000  celldm(5)=   0.000000  celldm(6)=   0.000000

     crystal axes: (cart. coord. in units of alat)
               a(1) = (   1.000000   0.000000   0.000000 )  
               a(2) = (   0.000000   2.309401   0.000000 )  
               a(3) = (   0.000000   0.000000   3.388418 )  

     reciprocal axes: (cart. coord. in units 2 pi/alat)
               b(1) = (  1.000000  0.000000  0.000000 )  
               b(2) = (  0.000000  0.433013  0.000000 )  
               b(3) = (  0.000000  0.000000  0.295123 )  


     PseudoPot. # 1 for Cu read from file:
     /home/549/hxw549/Short/pseudopotentials/Cu.pbe-n-van_ak.UPF
     MD5 check sum: 601f7c30f7467666bec936e0661ce3e1
     Pseudo is Ultrasoft + core correction, Zval = 11.0
     Generated by new atomic code, or converted to UPF format
     Using radial grid of  867 points,  6 beta functions with: 
                l(1) =   0
                l(2) =   0
                l(3) =   1
                l(4) =   1
                l(5) =   2
                l(6) =   2
     Q(r) pseudized with  8 coefficients,  rinner =    1.400   1.400   1.400
                                                       1.400   1.400

     PseudoPot. # 2 for C  read from file:
     /home/549/hxw549/Short/pseudopotentials/C.pbe-mt_gipaw.UPF
     MD5 check sum: 5ac2f21f2c440b14befe521540822c15
     Pseudo is Norm-conserving, Zval =  4.0
     Generated by new atomic code, or converted to UPF format
     Using radial grid of 1073 points,  1 beta functions with: 
                l(1) =   0

     atomic species   valence    mass     pseudopotential
        Cu            11.00    63.54600     Cu( 1.00)
        C              4.00    12.01070     C ( 1.00)

      2 Sym. Ops. (no inversion) found



   Cartesian axes

     site n.     atom                  positions (alat units)
         1           Cu  tau(   1) = (   0.0000000   0.0000000   0.9933657  )
         2           Cu  tau(   2) = (   0.2499971   0.2309471   0.9933663  )
         3           Cu  tau(   3) = (   0.5000000   0.0000000   0.9933633  )
         4           Cu  tau(   4) = (   0.7500029   0.2309471   0.9933663  )
         5           Cu  tau(   5) = (   0.0000000   0.4618892   0.9933717  )
         6           Cu  tau(   6) = (   0.2499940   0.6928207   0.9933639  )
         7           Cu  tau(   7) = (   0.5000000   0.4618881   0.9933675  )
         8           Cu  tau(   8) = (   0.7500060   0.6928207   0.9933639  )
         9           Cu  tau(   9) = (   0.0000000   0.9237570   0.9933597  )
        10           Cu  tau(  10) = (   0.2499910   1.1547005   0.9933533  )
        11           Cu  tau(  11) = (   0.5000000   0.9237573   0.9933556  )
        12           Cu  tau(  12) = (   0.7500090   1.1547005   0.9933533  )
        13           Cu  tau(  13) = (   0.0000000   1.3856441   0.9933597  )
        14           Cu  tau(  14) = (   0.2499940   1.6165804   0.9933639  )
        15           Cu  tau(  15) = (   0.5000000   1.3856437   0.9933556  )
        16           Cu  tau(  16) = (   0.7500060   1.6165804   0.9933639  )
        17           Cu  tau(  17) = (   0.0000000   1.8475119   0.9933717  )
        18           Cu  tau(  18) = (   0.2499971   2.0784540   0.9933663  )
        19           Cu  tau(  19) = (   0.5000000   1.8475130   0.9933675  )
        20           Cu  tau(  20) = (   0.7500029   2.0784540   0.9933663  )
        21           Cu  tau(  21) = (   0.0000000   0.2309453   1.2416120  )
        22           Cu  tau(  22) = (   0.2499978   0.0000000   1.2416117  )
        23           Cu  tau(  23) = (   0.5000000   0.2309452   1.2416106  )
        24           Cu  tau(  24) = (   0.7500022   0.0000000   1.2416117  )
        25           Cu  tau(  25) = (   0.0000000   0.6928180   1.2416064  )
        26           Cu  tau(  26) = (   0.2499952   0.4618844   1.2416082  )
        27           Cu  tau(  27) = (   0.5000000   0.6928179   1.2416045  )
        28           Cu  tau(  28) = (   0.7500048   0.4618844   1.2416082  )
        29           Cu  tau(  29) = (   0.0000000   1.1547005   1.2416005  )
        30           Cu  tau(  30) = (   0.2499909   0.9237558   1.2416000  )
        31           Cu  tau(  31) = (   0.5000000   1.1547005   1.2415985  )
        32           Cu  tau(  32) = (   0.7500091   0.9237558   1.2416000  )
        33           Cu  tau(  33) = (   0.0000000   1.6165831   1.2416064  )
        34           Cu  tau(  34) = (   0.2499909   1.3856453   1.2416000  )
        35           Cu  tau(  35) = (   0.5000000   1.6165832   1.2416045  )
        36           Cu  tau(  36) = (   0.7500091   1.3856453   1.2416000  )
        37           Cu  tau(  37) = (   0.0000000   2.0784558   1.2416120  )
        38           Cu  tau(  38) = (   0.2499952   1.8475166   1.2416082  )
        39           Cu  tau(  39) = (   0.5000000   2.0784559   1.2416106  )
        40           Cu  tau(  40) = (   0.7500048   1.8475166   1.2416082  )
        41           Cu  tau(  41) = (   0.0000000   0.0000000   1.4909040  )
        42           Cu  tau(  42) = (   0.2499968   0.2309463   1.4909040  )
        43           Cu  tau(  43) = (   0.5000000   0.0000000   1.4909040  )
        44           Cu  tau(  44) = (   0.7500032   0.2309463   1.4909040  )
        45           Cu  tau(  45) = (   0.0000000   0.4618838   1.4909040  )
        46           Cu  tau(  46) = (   0.2499930   0.6928153   1.4909040  )
        47           Cu  tau(  47) = (   0.5000000   0.4618832   1.4909040  )
        48           Cu  tau(  48) = (   0.7500070   0.6928153   1.4909040  )
        49           Cu  tau(  49) = (   0.0000000   0.9237541   1.4909040  )
        50           Cu  tau(  50) = (   0.2499898   1.1547005   1.4909040  )
        51           Cu  tau(  51) = (   0.5000000   0.9237537   1.4909040  )
        52           Cu  tau(  52) = (   0.7500102   1.1547005   1.4909040  )
        53           Cu  tau(  53) = (   0.0000000   1.3856470   1.4909040  )
        54           Cu  tau(  54) = (   0.2499930   1.6165858   1.4909040  )
        55           Cu  tau(  55) = (   0.5000000   1.3856474   1.4909040  )
        56           Cu  tau(  56) = (   0.7500070   1.6165858   1.4909040  )
        57           Cu  tau(  57) = (   0.0000000   1.8475173   1.4909040  )
        58           Cu  tau(  58) = (   0.2499968   2.0784548   1.4909040  )
        59           Cu  tau(  59) = (   0.5000000   1.8475179   1.4909040  )
        60           Cu  tau(  60) = (   0.7500032   2.0784548   1.4909040  )
        61           Cu  tau(  61) = (   0.0000000   0.2309453   1.7401962  )
        62           Cu  tau(  62) = (   0.2499978   0.0000000   1.7401965  )
        63           Cu  tau(  63) = (   0.5000000   0.2309452   1.7401976  )
        64           Cu  tau(  64) = (   0.7500022   0.0000000   1.7401965  )
        65           Cu  tau(  65) = (   0.0000000   0.6928180   1.7402017  )
        66           Cu  tau(  66) = (   0.2499952   0.4618844   1.7402000  )
        67           Cu  tau(  67) = (   0.5000000   0.6928179   1.7402037  )
        68           Cu  tau(  68) = (   0.7500048   0.4618844   1.7402000  )
        69           Cu  tau(  69) = (   0.0000000   1.1547005   1.7402077  )
        70           Cu  tau(  70) = (   0.2499909   0.9237558   1.7402081  )
        71           Cu  tau(  71) = (   0.5000000   1.1547005   1.7402096  )
        72           Cu  tau(  72) = (   0.7500091   0.9237558   1.7402081  )
        73           Cu  tau(  73) = (   0.0000000   1.6165831   1.7402017  )
        74           Cu  tau(  74) = (   0.2499909   1.3856453   1.7402081  )
        75           Cu  tau(  75) = (   0.5000000   1.6165832   1.7402037  )
        76           Cu  tau(  76) = (   0.7500091   1.3856453   1.7402081  )
        77           Cu  tau(  77) = (   0.0000000   2.0784558   1.7401962  )
        78           Cu  tau(  78) = (   0.2499952   1.8475166   1.7402000  )
        79           Cu  tau(  79) = (   0.5000000   2.0784559   1.7401976  )
        80           Cu  tau(  80) = (   0.7500048   1.8475166   1.7402000  )
        81           Cu  tau(  81) = (   0.0000000   0.0000000   1.9884443  )
        82           Cu  tau(  82) = (   0.2499971   0.2309471   1.9884437  )
        83           Cu  tau(  83) = (   0.5000000   0.0000000   1.9884466  )
        84           Cu  tau(  84) = (   0.7500029   0.2309471   1.9884437  )
        85           Cu  tau(  85) = (   0.0000000   0.4618892   1.9884383  )
        86           Cu  tau(  86) = (   0.2499940   0.6928207   1.9884461  )
        87           Cu  tau(  87) = (   0.5000000   0.4618881   1.9884425  )
        88           Cu  tau(  88) = (   0.7500060   0.6928207   1.9884461  )
        89           Cu  tau(  89) = (   0.0000000   0.9237570   1.9884502  )
        90           Cu  tau(  90) = (   0.2499910   1.1547005   1.9884567  )
        91           Cu  tau(  91) = (   0.5000000   0.9237573   1.9884544  )
        92           Cu  tau(  92) = (   0.7500090   1.1547005   1.9884567  )
        93           Cu  tau(  93) = (   0.0000000   1.3856441   1.9884502  )
        94           Cu  tau(  94) = (   0.2499940   1.6165804   1.9884461  )
        95           Cu  tau(  95) = (   0.5000000   1.3856437   1.9884544  )
        96           Cu  tau(  96) = (   0.7500060   1.6165804   1.9884461  )
        97           Cu  tau(  97) = (   0.0000000   1.8475119   1.9884383  )
        98           Cu  tau(  98) = (   0.2499971   2.0784540   1.9884437  )
        99           Cu  tau(  99) = (   0.5000000   1.8475130   1.9884425  )
       100           Cu  tau( 100) = (   0.7500029   2.0784540   1.9884437  )
       101           C   tau( 101) = (   0.0000000   0.0961908   2.3950539  )
       102           C   tau( 102) = (   0.0000000   0.2887094   2.3950539  )
       103           C   tau( 103) = (   0.1666667   0.0000342   2.3950539  )
       104           C   tau( 104) = (   0.1666667   0.3848660   2.3950539  )
       105           C   tau( 105) = (   0.3333334   0.0961908   2.3950539  )
       106           C   tau( 106) = (   0.3333333   0.2887094   2.3950539  )
       107           C   tau( 107) = (   0.5000000   0.0000342   2.3950539  )
       108           C   tau( 108) = (   0.5000000   0.3848660   2.3950539  )
       109           C   tau( 109) = (   0.6666666   0.0961908   2.3950539  )
       110           C   tau( 110) = (   0.6666667   0.2887094   2.3950539  )
       111           C   tau( 111) = (   0.8333333   0.0000342   2.3950539  )
       112           C   tau( 112) = (   0.8333333   0.3848660   2.3950539  )
       113           C   tau( 113) = (   0.0000000   0.6735411   2.3950539  )
       114           C   tau( 114) = (   0.0000000   0.8660596   2.3950539  )
       115           C   tau( 115) = (   0.1666667   0.5773845   2.3950539  )
       116           C   tau( 116) = (   0.1666666   0.9622162   2.3950539  )
       117           C   tau( 117) = (   0.3333333   0.6735411   2.3950539  )
       118           C   tau( 118) = (   0.3333333   0.8660596   2.3950539  )
       119           C   tau( 119) = (   0.5000000   0.5773845   2.3950539  )
       120           C   tau( 120) = (   0.5000000   0.9622162   2.3950539  )
       121           C   tau( 121) = (   0.6666667   0.6735411   2.3950539  )
       122           C   tau( 122) = (   0.6666667   0.8660596   2.3950539  )
       123           C   tau( 123) = (   0.8333333   0.5773845   2.3950539  )
       124           C   tau( 124) = (   0.8333334   0.9622162   2.3950539  )
       125           C   tau( 125) = (   0.0000000   1.2508913   2.3950539  )
       126           C   tau( 126) = (   0.0000000   1.4434099   2.3950539  )
       127           C   tau( 127) = (   0.1666666   1.1547348   2.3950539  )
       128           C   tau( 128) = (   0.1666667   1.5395665   2.3950539  )
       129           C   tau( 129) = (   0.3333333   1.2508914   2.3950539  )
       130           C   tau( 130) = (   0.3333333   1.4434099   2.3950539  )
       131           C   tau( 131) = (   0.5000000   1.1547348   2.3950539  )
       132           C   tau( 132) = (   0.5000000   1.5395665   2.3950539  )
       133           C   tau( 133) = (   0.6666667   1.2508914   2.3950539  )
       134           C   tau( 134) = (   0.6666667   1.4434099   2.3950539  )
       135           C   tau( 135) = (   0.8333334   1.1547348   2.3950539  )
       136           C   tau( 136) = (   0.8333333   1.5395665   2.3950539  )
       137           C   tau( 137) = (   0.0000000   1.8282416   2.3950539  )
       138           C   tau( 138) = (   0.0000000   2.0207602   2.3950539  )
       139           C   tau( 139) = (   0.1666667   1.7320851   2.3950539  )
       140           C   tau( 140) = (   0.1666667   2.1169167   2.3950539  )
       141           C   tau( 141) = (   0.3333334   1.8282416   2.3950539  )
       142           C   tau( 142) = (   0.3333334   2.0207601   2.3950539  )
       143           C   tau( 143) = (   0.5000000   1.7320851   2.3950539  )
       144           C   tau( 144) = (   0.5000000   2.1169167   2.3950539  )
       145           C   tau( 145) = (   0.6666666   1.8282416   2.3950539  )
       146           C   tau( 146) = (   0.6666666   2.0207601   2.3950539  )
       147           C   tau( 147) = (   0.8333333   1.7320851   2.3950539  )
       148           C   tau( 148) = (   0.8333333   2.1169167   2.3950539  )

     number of k points=     6  gaussian smearing, width (Ry)=  0.1000
                       cart. coord. in units 2pi/alat
        k(    1) = (   0.0000000   0.0000000   0.0000000), wk =   0.2500000
        k(    2) = (   0.0000000  -0.2165064   0.0000000), wk =   0.2500000
        k(    3) = (   0.2500000   0.0000000   0.0000000), wk =   0.5000000
        k(    4) = (   0.2500000  -0.2165064   0.0000000), wk =   0.5000000
        k(    5) = (  -0.5000000   0.0000000   0.0000000), wk =   0.2500000
        k(    6) = (  -0.5000000  -0.2165064   0.0000000), wk =   0.2500000

     Dense  grid:  2050409 G-vectors     FFT dimensions: (  80, 192, 270)

     Largest allocated arrays     est. size (Mb)     dimensions
        Kohn-Sham Wavefunctions        47.35 Mb     (    4004,  775)
        NL pseudopotentials           112.91 Mb     (    4004, 1848)
        Each V/rho on FFT grid          1.17 Mb     (   76800)
        Each G-vector array             0.24 Mb     (   32034)
        G-vector shells                 0.12 Mb     (   15554)
     Largest temporary arrays     est. size (Mb)     dimensions
        Auxiliary wavefunctions       189.40 Mb     (    4004, 3100)
        Each subspace H/S matrix        5.87 Mb     (     620,  620)
        Each <psi_i|beta_j> matrix     21.85 Mb     (    1848,  775)
        Arrays for rho mixing           9.38 Mb     (   76800,    8)

     Initial potential from superposition of free atoms
     Check: negative starting charge=   -0.001832

     starting charge 1266.81751, renormalised to 1292.00000

     negative rho (up, down):  1.869E-03 0.000E+00
     Starting wfc are 1284 randomized atomic wfcs

     total cpu time spent up to now is      149.7 secs

     Self-consistent Calculation

     iteration #  1     ecut=    80.00 Ry     beta=0.70
     Davidson diagonalization with overlap
     ethr =  1.00E-04,  avg # of iterations = 23.2

     negative rho (up, down):  2.964E+01 0.000E+00

     total cpu time spent up to now is     2827.4 secs

     total energy              =   -9116.60037178 Ry
     Harris-Foulkes estimate   =  -17191.39736896 Ry
     estimated scf accuracy    <  183637.92169073 Ry

     iteration #  2     ecut=    80.00 Ry     beta=0.70
     Davidson diagonalization with overlap
     ethr =  1.00E-02,  avg # of iterations = 14.5

     negative rho (up, down):  3.146E+01 0.000E+00

     total cpu time spent up to now is     4189.4 secs

     total energy              =  -12285.18669349 Ry
     Harris-Foulkes estimate   =  -13657.01428556 Ry
     estimated scf accuracy    <   18538.87338096 Ry

     iteration #  3     ecut=    80.00 Ry     beta=0.70
     Davidson diagonalization with overlap
     ethr =  1.00E-02,  avg # of iterations =  7.0

     negative rho (up, down):  3.330E+01 0.000E+00

     total cpu time spent up to now is     5006.4 secs

     total energy              =  -12489.37881445 Ry
     Harris-Foulkes estimate   =  -13365.40910645 Ry
     estimated scf accuracy    <    6286.58941236 Ry

     iteration #  4     ecut=    80.00 Ry     beta=0.70
     Davidson diagonalization with overlap
     ethr =  1.00E-02,  avg # of iterations =  6.0

     negative rho (up, down):  2.961E+01 0.000E+00

     total cpu time spent up to now is     5709.2 secs

     total energy              =  -12833.67948938 Ry
     Harris-Foulkes estimate   =  -13165.44958112 Ry
     estimated scf accuracy    <    6258.14240172 Ry

     iteration #  5     ecut=    80.00 Ry     beta=0.70
     Davidson diagonalization with overlap
     ethr =  1.00E-02,  avg # of iterations =  4.8

     negative rho (up, down):  2.049E+01 0.000E+00

     total cpu time spent up to now is     6222.1 secs

     total energy              =  -12863.89524943 Ry
     Harris-Foulkes estimate   =  -13049.05967331 Ry
     estimated scf accuracy    <    1090.43910737 Ry

     iteration #  6     ecut=    80.00 Ry     beta=0.70
     Davidson diagonalization with overlap
     ethr =  1.00E-02,  avg # of iterations =  3.0

     negative rho (up, down):  1.213E+01 0.000E+00

     total cpu time spent up to now is     6560.5 secs

     total energy              =  -12839.45050667 Ry
     Harris-Foulkes estimate   =  -12920.62256106 Ry
     estimated scf accuracy    <     618.67719877 Ry

     iteration #  7     ecut=    80.00 Ry     beta=0.70
     Davidson diagonalization with overlap
     ethr =  1.00E-02,  avg # of iterations =  2.0

     negative rho (up, down):  9.066E+00 0.000E+00

     total cpu time spent up to now is     6813.1 secs

     total energy              =  -12816.59987016 Ry
     Harris-Foulkes estimate   =  -12855.59565354 Ry
     estimated scf accuracy    <     968.09997259 Ry

     iteration #  8     ecut=    80.00 Ry     beta=0.70
     Davidson diagonalization with overlap
     ethr =  1.00E-02,  avg # of iterations =  1.5

     negative rho (up, down):  6.389E+00 0.000E+00

     total cpu time spent up to now is     7051.2 secs

     total energy              =  -12788.71350481 Ry
     Harris-Foulkes estimate   =  -12823.76403921 Ry
     estimated scf accuracy    <     318.76749528 Ry

     iteration #  9     ecut=    80.00 Ry     beta=0.70
     Davidson diagonalization with overlap
     ethr =  1.00E-02,  avg # of iterations =  2.0

     negative rho (up, down):  2.278E+00 0.000E+00

     total cpu time spent up to now is     7307.3 secs

     total energy              =  -12761.18458485 Ry
     Harris-Foulkes estimate   =  -12811.37485282 Ry
     estimated scf accuracy    <     803.77401348 Ry

     iteration # 10     ecut=    80.00 Ry     beta=0.70
     Davidson diagonalization with overlap
     ethr =  1.00E-02,  avg # of iterations =  1.7

     negative rho (up, down):  1.455E+00 0.000E+00

     total cpu time spent up to now is     7548.7 secs

     total energy              =  -12724.28209339 Ry
     Harris-Foulkes estimate   =  -12771.45698900 Ry
     estimated scf accuracy    <     622.38918771 Ry

     iteration # 11     ecut=    80.00 Ry     beta=0.70
     Davidson diagonalization with overlap
     ethr =  1.00E-02,  avg # of iterations =  3.3

     negative rho (up, down):  6.372E-01 0.000E+00

     total cpu time spent up to now is     7825.3 secs

     total energy              =  -12724.13602732 Ry
     Harris-Foulkes estimate   =  -12742.90399401 Ry
     estimated scf accuracy    <     151.78752728 Ry

     iteration # 12     ecut=    80.00 Ry     beta=0.70
     Davidson diagonalization with overlap
     ethr =  1.00E-02,  avg # of iterations =  1.0

     negative rho (up, down):  9.399E-01 0.000E+00

     total cpu time spent up to now is     8062.9 secs

     total energy              =  -12719.27292362 Ry
     Harris-Foulkes estimate   =  -12732.58996274 Ry
     estimated scf accuracy    <      93.11805572 Ry

     iteration # 13     ecut=    80.00 Ry     beta=0.70
     Davidson diagonalization with overlap
     ethr =  7.21E-03,  avg # of iterations =  1.0

     negative rho (up, down):  6.876E+00 0.000E+00

     total cpu time spent up to now is     8300.6 secs

     total energy              =  -12706.83689213 Ry
     Harris-Foulkes estimate   =  -12725.50212954 Ry
     estimated scf accuracy    <      73.39554590 Ry

     iteration # 14     ecut=    80.00 Ry     beta=0.70
     Davidson diagonalization with overlap
     ethr =  5.68E-03,  avg # of iterations =  2.5

     negative rho (up, down):  5.177E+00 0.000E+00

     total cpu time spent up to now is     8557.4 secs

     total energy              =  -12705.72289072 Ry
     Harris-Foulkes estimate   =  -12712.60191487 Ry
     estimated scf accuracy    <      43.30191881 Ry

     iteration # 15     ecut=    80.00 Ry     beta=0.70
     Davidson diagonalization with overlap
     ethr =  3.35E-03,  avg # of iterations =  3.8

     negative rho (up, down):  5.492E+00 0.000E+00

     total cpu time spent up to now is     8836.5 secs

     total energy              =  -12705.99306333 Ry
     Harris-Foulkes estimate   =  -12709.63288151 Ry
     estimated scf accuracy    <      42.04491566 Ry

     iteration # 16     ecut=    80.00 Ry     beta=0.70
     Davidson diagonalization with overlap
     ethr =  3.25E-03,  avg # of iterations =  2.0

     negative rho (up, down):  5.006E+00 0.000E+00

     total cpu time spent up to now is     9084.9 secs

     total energy              =  -12705.73187304 Ry
     Harris-Foulkes estimate   =  -12707.96480980 Ry
     estimated scf accuracy    <      38.15534895 Ry

     iteration # 17     ecut=    80.00 Ry     beta=0.70
     Davidson diagonalization with overlap
     ethr =  2.95E-03,  avg # of iterations =  1.8

     negative rho (up, down):  5.835E+00 0.000E+00

     total cpu time spent up to now is     9327.5 secs

     total energy              =  -12706.17102503 Ry
     Harris-Foulkes estimate   =  -12706.95413859 Ry
     estimated scf accuracy    <      18.41587336 Ry

     iteration # 18     ecut=    80.00 Ry     beta=0.70
     Davidson diagonalization with overlap
     ethr =  1.43E-03,  avg # of iterations =  9.5

     negative rho (up, down):  3.386E+00 0.000E+00

     total cpu time spent up to now is     9709.4 secs

     total energy              =  -12704.75681697 Ry
     Harris-Foulkes estimate   =  -12706.59555181 Ry
     estimated scf accuracy    <      10.00167077 Ry

     iteration # 19     ecut=    80.00 Ry     beta=0.70
     Davidson diagonalization with overlap
     ethr =  7.74E-04,  avg # of iterations =  3.7

     negative rho (up, down):  2.298E+00 0.000E+00

     total cpu time spent up to now is     9984.5 secs

     total energy              =  -12703.74319513 Ry
     Harris-Foulkes estimate   =  -12705.16057954 Ry
     estimated scf accuracy    <      10.74553653 Ry

     iteration # 20     ecut=    80.00 Ry     beta=0.70
     Davidson diagonalization with overlap
     ethr =  7.74E-04,  avg # of iterations =  1.2

     negative rho (up, down):  3.072E+00 0.000E+00

     total cpu time spent up to now is    10223.4 secs

     total energy              =  -12703.45163763 Ry
     Harris-Foulkes estimate   =  -12703.99615350 Ry
     estimated scf accuracy    <      12.03839340 Ry

     iteration # 21     ecut=    80.00 Ry     beta=0.70
     Davidson diagonalization with overlap
     ethr =  7.74E-04,  avg # of iterations =  2.2

     negative rho (up, down):  1.040E+00 0.000E+00

     total cpu time spent up to now is    10474.6 secs

     total energy              =  -12701.49259201 Ry
     Harris-Foulkes estimate   =  -12703.64687188 Ry
     estimated scf accuracy    <       8.53430294 Ry

     iteration # 22     ecut=    80.00 Ry     beta=0.70
     Davidson diagonalization with overlap
     ethr =  6.61E-04,  avg # of iterations =  5.0

     negative rho (up, down):  7.466E-01 0.000E+00

     total cpu time spent up to now is    10768.6 secs

     total energy              =  -12700.54928494 Ry
     Harris-Foulkes estimate   =  -12701.80332229 Ry
     estimated scf accuracy    <      15.21879024 Ry

     iteration # 23     ecut=    80.00 Ry     beta=0.70
     Davidson diagonalization with overlap
     ethr =  6.61E-04,  avg # of iterations =  1.0

     negative rho (up, down):  1.141E+00 0.000E+00

     total cpu time spent up to now is    11001.7 secs

     total energy              =  -12700.07027516 Ry
     Harris-Foulkes estimate   =  -12700.91144507 Ry
     estimated scf accuracy    <      15.84593136 Ry

     iteration # 24     ecut=    80.00 Ry     beta=0.70
     Davidson diagonalization with overlap
     ethr =  6.61E-04,  avg # of iterations =  2.3

     negative rho (up, down):  1.691E+00 0.000E+00

     total cpu time spent up to now is    11252.8 secs

     total energy              =  -12700.21464583 Ry
     Harris-Foulkes estimate   =  -12700.63104842 Ry
     estimated scf accuracy    <       9.83918154 Ry

     iteration # 25     ecut=    80.00 Ry     beta=0.70
     Davidson diagonalization with overlap
     ethr =  6.61E-04,  avg # of iterations =  2.3

     negative rho (up, down):  1.698E+00 0.000E+00

     total cpu time spent up to now is    11505.1 secs

     total energy              =  -12698.94579152 Ry
     Harris-Foulkes estimate   =  -12700.68475606 Ry
     estimated scf accuracy    <       5.50452684 Ry

     iteration # 26     ecut=    80.00 Ry     beta=0.70
     Davidson diagonalization with overlap
     ethr =  4.26E-04,  avg # of iterations =  7.0

     negative rho (up, down):  1.539E+00 0.000E+00

     total cpu time spent up to now is    11873.3 secs

     total energy              =  -12699.12415043 Ry
     Harris-Foulkes estimate   =  -12699.32923366 Ry
     estimated scf accuracy    <       2.45271632 Ry

     iteration # 27     ecut=    80.00 Ry     beta=0.70
     Davidson diagonalization with overlap
     ethr =  1.90E-04,  avg # of iterations =  3.0

     negative rho (up, down):  1.318E+00 0.000E+00

     total cpu time spent up to now is    12138.1 secs

     total energy              =  -12699.01581598 Ry
     Harris-Foulkes estimate   =  -12699.21537692 Ry
     estimated scf accuracy    <       1.19821956 Ry

     iteration # 28     ecut=    80.00 Ry     beta=0.70
     Davidson diagonalization with overlap
     ethr =  9.27E-05,  avg # of iterations =  5.8

     negative rho (up, down):  8.149E-01 0.000E+00

     total cpu time spent up to now is    12464.0 secs

     total energy              =  -12698.88943652 Ry
     Harris-Foulkes estimate   =  -12699.07401192 Ry
     estimated scf accuracy    <       0.91013681 Ry

     iteration # 29     ecut=    80.00 Ry     beta=0.70
     Davidson diagonalization with overlap
     ethr =  7.04E-05,  avg # of iterations =  7.8

     negative rho (up, down):  5.821E-01 0.000E+00

     total cpu time spent up to now is    12815.6 secs

     total energy              =  -12698.89130213 Ry
     Harris-Foulkes estimate   =  -12698.94569261 Ry
     estimated scf accuracy    <       0.27006435 Ry

     iteration # 30     ecut=    80.00 Ry     beta=0.70
     Davidson diagonalization with overlap
     ethr =  2.09E-05,  avg # of iterations =  8.2

     negative rho (up, down):  4.407E-01 0.000E+00

     total cpu time spent up to now is    13178.1 secs

     total energy              =  -12698.88539932 Ry
     Harris-Foulkes estimate   =  -12698.92683837 Ry
     estimated scf accuracy    <       0.22428851 Ry

     iteration # 31     ecut=    80.00 Ry     beta=0.70
     Davidson diagonalization with overlap
     ethr =  1.74E-05,  avg # of iterations =  6.8

     negative rho (up, down):  2.107E-01 0.000E+00

     total cpu time spent up to now is    13520.6 secs

     total energy              =  -12698.88794182 Ry
     Harris-Foulkes estimate   =  -12698.89936909 Ry
     estimated scf accuracy    <       0.07211127 Ry

     iteration # 32     ecut=    80.00 Ry     beta=0.70
     Davidson diagonalization with overlap
     c_bands:  1 eigenvalues not converged
     c_bands:  4 eigenvalues not converged
     c_bands:  3 eigenvalues not converged
     ethr =  5.58E-06,  avg # of iterations = 15.2

     negative rho (up, down):  3.436E-02 0.000E+00

     total cpu time spent up to now is    14003.6 secs

     total energy              =  -12698.88480488 Ry
     Harris-Foulkes estimate   =  -12698.89038790 Ry
     estimated scf accuracy    <       0.02969947 Ry

     iteration # 33     ecut=    80.00 Ry     beta=0.70
     Davidson diagonalization with overlap
     ethr =  2.30E-06,  avg # of iterations = 15.5

     negative rho (up, down):  2.882E-02 0.000E+00

     total cpu time spent up to now is    14547.3 secs

     total energy              =  -12698.88657418 Ry
     Harris-Foulkes estimate   =  -12698.88890067 Ry
     estimated scf accuracy    <       0.01875201 Ry

     iteration # 34     ecut=    80.00 Ry     beta=0.70
     Davidson diagonalization with overlap
     ethr =  1.45E-06,  avg # of iterations =  3.0

     negative rho (up, down):  7.871E-05 0.000E+00

     total cpu time spent up to now is    14816.6 secs

     total energy              =  -12698.88666070 Ry
     Harris-Foulkes estimate   =  -12698.88772887 Ry
     estimated scf accuracy    <       0.00534147 Ry

     iteration # 35     ecut=    80.00 Ry     beta=0.70
     Davidson diagonalization with overlap
     ethr =  4.13E-07,  avg # of iterations =  5.2

     negative rho (up, down):  3.247E-05 0.000E+00

     total cpu time spent up to now is    15131.6 secs

     total energy              =  -12698.88682004 Ry
     Harris-Foulkes estimate   =  -12698.88707156 Ry
     estimated scf accuracy    <       0.00313925 Ry

     iteration # 36     ecut=    80.00 Ry     beta=0.70
     Davidson diagonalization with overlap
     c_bands:  3 eigenvalues not converged
     ethr =  2.43E-07,  avg # of iterations =  6.5

     negative rho (up, down):  1.865E-03 0.000E+00

     total cpu time spent up to now is    15467.8 secs

     total energy              =  -12698.88696884 Ry
     Harris-Foulkes estimate   =  -12698.88696625 Ry
     estimated scf accuracy    <       0.00114951 Ry

     iteration # 37     ecut=    80.00 Ry     beta=0.70
     Davidson diagonalization with overlap
     ethr =  8.90E-08,  avg # of iterations =  7.5

     negative rho (up, down):  1.168E-03 0.000E+00

     total cpu time spent up to now is    15827.8 secs

     total energy              =  -12698.88702270 Ry
     Harris-Foulkes estimate   =  -12698.88710084 Ry
     estimated scf accuracy    <       0.00054249 Ry

     iteration # 38     ecut=    80.00 Ry     beta=0.70
     Davidson diagonalization with overlap
     ethr =  4.20E-08,  avg # of iterations =  2.2

     negative rho (up, down):  1.298E-03 0.000E+00

     total cpu time spent up to now is    16085.9 secs

     total energy              =  -12698.88710570 Ry
     Harris-Foulkes estimate   =  -12698.88707052 Ry
     estimated scf accuracy    <       0.00006961 Ry

     iteration # 39     ecut=    80.00 Ry     beta=0.70
     Davidson diagonalization with overlap
     ethr =  5.39E-09,  avg # of iterations =  3.7

     negative rho (up, down):  1.224E-03 0.000E+00

     total cpu time spent up to now is    16388.0 secs

     total energy              =  -12698.88715474 Ry
     Harris-Foulkes estimate   =  -12698.88711660 Ry
     estimated scf accuracy    <       0.00004241 Ry

     iteration # 40     ecut=    80.00 Ry     beta=0.70
     Davidson diagonalization with overlap
     ethr =  3.28E-09,  avg # of iterations =  3.5

     negative rho (up, down):  1.327E-03 0.000E+00

     total cpu time spent up to now is    16673.6 secs

     total energy              =  -12698.88716459 Ry
     Harris-Foulkes estimate   =  -12698.88715840 Ry
     estimated scf accuracy    <       0.00000624 Ry

     iteration # 41     ecut=    80.00 Ry     beta=0.70
     Davidson diagonalization with overlap
     ethr =  4.83E-10,  avg # of iterations =  4.8

     negative rho (up, down):  1.605E-03 0.000E+00

     total cpu time spent up to now is    17018.3 secs

     total energy              =  -12698.88716687 Ry
     Harris-Foulkes estimate   =  -12698.88716588 Ry
     estimated scf accuracy    <       0.00000459 Ry

     iteration # 42     ecut=    80.00 Ry     beta=0.70
     Davidson diagonalization with overlap
     ethr =  3.55E-10,  avg # of iterations =  2.7

     negative rho (up, down):  1.777E-03 0.000E+00

     total cpu time spent up to now is    17290.3 secs

     total energy              =  -12698.88716742 Ry
     Harris-Foulkes estimate   =  -12698.88716744 Ry
     estimated scf accuracy    <       0.00000102 Ry

     iteration # 43     ecut=    80.00 Ry     beta=0.70
     Davidson diagonalization with overlap
     ethr =  7.90E-11,  avg # of iterations =  3.2

     negative rho (up, down):  1.841E-03 0.000E+00

     total cpu time spent up to now is    17580.4 secs

     total energy              =  -12698.88716740 Ry
     Harris-Foulkes estimate   =  -12698.88716756 Ry
     estimated scf accuracy    <       0.00000039 Ry

     iteration # 44     ecut=    80.00 Ry     beta=0.70
     Davidson diagonalization with overlap
     ethr =  3.00E-11,  avg # of iterations =  2.7

     negative rho (up, down):  1.857E-03 0.000E+00

     total cpu time spent up to now is    17861.3 secs

     total energy              =  -12698.88716737 Ry
     Harris-Foulkes estimate   =  -12698.88716744 Ry
     estimated scf accuracy    <       0.00000009 Ry

     iteration # 45     ecut=    80.00 Ry     beta=0.70
     Davidson diagonalization with overlap
     ethr =  6.71E-12,  avg # of iterations =  2.7

     negative rho (up, down):  1.870E-03 0.000E+00

     total cpu time spent up to now is    18172.2 secs

     total energy              =  -12698.88716734 Ry
     Harris-Foulkes estimate   =  -12698.88716738 Ry
     estimated scf accuracy    <       0.00000005 Ry

     iteration # 46     ecut=    80.00 Ry     beta=0.70
     Davidson diagonalization with overlap
     ethr =  3.76E-12,  avg # of iterations =  2.0

     negative rho (up, down):  1.905E-03 0.000E+00

     total cpu time spent up to now is    18415.8 secs

     End of self-consistent calculation

          k = 0.0000 0.0000 0.0000 (256287 PWs)   bands (ev):

   -16.0481 -15.6764 -15.6755 -14.5698 -14.5698 -14.0849 -14.0845 -13.7229
   -13.7224 -13.7219 -13.7215 -12.7700 -12.7699 -12.6534 -12.6534 -12.6528
   -12.6528 -10.9593 -10.9592 -10.9589 -10.9589 -10.7528  -9.7524  -9.0753
    -9.0752  -9.0703  -9.0698  -8.1967  -8.1960  -8.1951  -8.1943  -7.2020
    -7.2007  -7.1318  -7.1318  -7.1300  -7.1300  -7.1166  -7.1157  -5.7110
    -5.5750  -5.5749  -5.5732  -5.5731  -5.4109  -5.4108  -5.4096  -5.4096
    -5.1766  -5.1763  -4.7334  -4.2732  -4.2680  -4.2671  -4.2426  -4.2377
    -3.9283  -3.9283  -3.8073  -3.8064  -3.6798  -3.6798  -3.1191  -3.1191
    -3.1190  -3.1190  -3.0991  -3.0990  -2.9762  -2.9528  -2.9524  -2.8901
    -2.8701  -2.8700  -2.7003  -2.7003  -2.7001  -2.7000  -2.6130  -2.6122
    -2.5095  -2.5095  -2.4470  -2.4466  -2.3175  -2.3174  -2.3007  -2.3002
    -2.2996  -2.2995  -2.0297  -2.0297  -2.0294  -2.0294  -1.9953  -1.9953
    -1.8859  -1.8859  -1.8486  -1.8486  -1.8486  -1.8486  -1.7116  -1.7115
    -1.7115  -1.7115  -1.7022  -1.7020  -1.7012  -1.7011  -1.6579  -1.6020
    -1.6020  -1.5351  -1.4683  -1.4242  -1.4242  -1.4242  -1.4242  -1.3903
    -1.3903  -1.3671  -1.3502  -1.3497  -1.2942  -1.2940  -1.2566  -1.2564
    -1.2431  -1.2431  -1.2256  -1.2256  -1.2255  -1.2255  -1.2093  -1.2092
    -1.1358  -1.1358  -1.1040  -1.0458  -1.0311  -1.0311  -1.0311  -1.0310
    -0.9915  -0.9512  -0.9507  -0.9428  -0.9392  -0.9384  -0.9044  -0.9043
    -0.8836  -0.8835  -0.8587  -0.8581  -0.7819  -0.7803  -0.7716  -0.7716
    -0.7703  -0.7699  -0.7348  -0.7339  -0.7162  -0.7161  -0.7161  -0.7161
    -0.7127  -0.7127  -0.7117  -0.7074  -0.7074  -0.6831  -0.6532  -0.6519
    -0.6357  -0.6120  -0.6109  -0.6028  -0.6027  -0.5982  -0.5972  -0.5477
    -0.5477  -0.5471  -0.5470  -0.5469  -0.5469  -0.5459  -0.5419  -0.5419
    -0.5416  -0.5414  -0.5357  -0.5356  -0.5346  -0.5345  -0.5223  -0.5223
    -0.4683  -0.4541  -0.4541  -0.4536  -0.4536  -0.3767  -0.3767  -0.3760
    -0.3760  -0.3459  -0.3425  -0.3273  -0.3273  -0.3054  -0.3054  -0.2899
    -0.2899  -0.2898  -0.2898  -0.2898  -0.2894  -0.2755  -0.2565  -0.2565
    -0.2564  -0.2564  -0.2400  -0.2399  -0.2293  -0.2291  -0.1755  -0.1755
    -0.1262  -0.1262  -0.1114  -0.1114  -0.1111  -0.1111  -0.1017  -0.1017
    -0.0966  -0.0966  -0.0966  -0.0966  -0.0831  -0.0831  -0.0770  -0.0770
    -0.0639  -0.0639  -0.0637  -0.0637  -0.0336  -0.0336   0.0172   0.0174
     0.0176   0.0182   0.0182   0.0422   0.0422   0.0422   0.0423   0.0625
     0.0651   0.0651   0.0652   0.0653   0.0910   0.0910   0.0913   0.0913
     0.0942   0.0942   0.0942   0.0942   0.0992   0.0993   0.1187   0.1187
     0.1189   0.1189   0.1329   0.1469   0.1904   0.1904   0.1918   0.1923
     0.1923   0.2439   0.2439   0.2442   0.2442   0.2464   0.2465   0.2465
     0.2465   0.2519   0.2644   0.2661   0.2999   0.3000   0.3038   0.3039
     0.3093   0.3300   0.3300   0.3301   0.3301   0.3404   0.3405   0.3488
     0.3489   0.3650   0.3652   0.3658   0.3658   0.3700   0.3703   0.3706
     0.3707   0.3936   0.3936   0.3936   0.3936   0.4119   0.4119   0.4149
     0.4297   0.4441   0.4446   0.4726   0.4727   0.4728   0.4729   0.5012
     0.5012   0.5484   0.5484   0.5485   0.5485   0.5499   0.5502   0.5804
     0.5805   0.5853   0.5853   0.5855   0.5855   0.6024   0.6024   0.6342
     0.6468   0.6469   0.6612   0.6613   0.6630   0.6632   0.6925   0.6926
     0.6927   0.6931   0.6932   0.6940   0.7195   0.7368   0.7369   0.7371
     0.7372   0.7506   0.7507   0.7524   0.7524   0.7891   0.7892   0.8067
     0.8085   0.8085   0.8086   0.8086   0.8219   0.8452   0.8470   0.8471
     0.8508   0.8508   0.8512   0.8512   0.8580   0.8580   0.8608   0.8611
     0.8630   0.8632   0.8639   0.8641   0.8692   0.8693   0.9096   0.9108
     0.9108   0.9273   0.9280   0.9564   0.9564   0.9594   0.9594   0.9619
     0.9620   0.9622   0.9624   0.9769   0.9882   0.9883   0.9884   0.9886
     0.9948   0.9948   0.9955   0.9955   0.9996   1.0000   1.0260   1.0300
     1.0301   1.0314   1.0315   1.0405   1.0410   1.0510   1.0510   1.0546
     1.0547   1.0629   1.0636   1.0642   1.0646   1.0759   1.1140   1.1140
     1.1201   1.1207   1.1271   1.1288   1.1292   1.1309   1.1414   1.1433
     1.1438   1.1460   1.1656   1.1657   1.1795   1.1795   1.1841   1.1841
     1.2013   1.2013   1.2047   1.2048   1.2140   1.2142   1.2228   1.2359
     1.2447   1.2453   1.2474   1.2475   1.2550   1.2555   1.2722   1.2768
     1.2903   1.2946   1.2948   1.3039   1.3150   1.3150   1.3202   1.3286
     1.3286   1.3318   1.3318   1.3373   1.3373   1.3413   1.3444   1.3446
     1.3479   1.3482   1.3484   1.3485   1.3494   1.3686   1.3686   1.3813
     1.3817   1.3818   1.3853   1.4138   1.4139   1.4153   1.4154   1.4176
     1.4176   1.4218   1.4221   1.4237   1.4237   1.4253   1.4253   1.4329
     1.4329   1.4415   1.4415   1.4479   1.4743   1.4856   1.4857   1.5088
     1.5089   1.5110   1.5111   1.5131   1.5149   1.5223   1.5343   1.5344
     1.5471   1.5479   1.5484   1.5485   1.5488   1.5491   1.5554   1.5554
     1.5631   1.5644   1.5819   1.5823   1.5831   1.5832   1.5864   1.5864
     1.5866   1.5867   1.6022   1.6070   1.6077   1.6177   1.6182   1.6182
     1.6193   1.6193   1.6267   1.6292   1.6293   1.6349   1.6493   1.6605
     1.6637   1.6639   1.6652   1.6654   1.6705   1.6705   1.6720   1.6800
     1.6949   1.6951   1.6972   1.7031   1.7108   1.7242   1.7242   1.7303
     1.7303   1.7408   1.7408   1.7418   1.7419   1.7420   1.7421   1.7421
     1.7427   1.7457   1.7460   1.7483   1.7483   1.7585   1.7758   1.7759
     1.7759   1.7760   1.7836   1.7836   1.7919   1.8143   1.8144   1.8153
     1.8155   1.8252   1.8643   1.8644   1.8651   1.8651   1.8808   1.8808
     1.8884   1.9053   1.9054   1.9153   1.9374   1.9376   1.9376   1.9378
     1.9380   1.9498   1.9507   1.9507   2.2249   2.2601   2.4021   2.4021
     2.4332   2.4333   2.5120   2.5120   2.5120   2.5120   2.5303   2.5303
     2.5303   2.5304   2.6961   2.6961   2.7602   2.7602   2.7603   2.7603
     2.7824   2.7824   3.0195   3.0195   3.0195   3.0196   3.3920   3.4158
     3.4265   3.4269   3.4385   3.7976   3.7976   4.1101   4.1101   4.1484
     4.1485   4.1487   4.1488   4.2188   4.2193   4.2249   4.2738   4.2893
     4.2893   4.3111   4.3111   4.3111   4.3111   4.5217   4.5217   4.5246
     4.5247   4.6059   4.9472   5.0657   5.3026   5.3045   5.3239   5.3288
     5.6085   5.6223   5.6226   5.7113   5.9511   5.9511   6.0040   6.0049
     6.2322   6.2327   6.5840   6.5841   6.7196   6.7200   6.7385   6.7404
     6.7410   6.7412   6.9350   6.9351   6.9359   6.9360   7.1088   7.1088
     7.1089   7.1091   7.2151   7.2265   7.3407   7.3496   7.3569   7.3569
     7.3585   7.3585   7.3836   7.6658   7.6662   7.7666   7.7667   7.8551
     7.8553   7.9528   7.9800   7.9800   7.9921   7.9923   8.4121   8.4375
     8.4741   8.4782   8.4783   8.5132   8.5133   8.6377   8.6377   8.6535
     8.6571   8.6893   8.6901   8.7912   8.8468   8.9246   8.9249   8.9250
     8.9252   8.9325   8.9347   8.9358   8.9387   9.1195   9.1195   9.1196
     9.1196   9.2857   9.2858   9.3539   9.3539   9.3605   9.3609   9.3618
     9.3621   9.3938   9.4182   9.6423   9.6426   9.8412   9.8434   9.8851
     9.8851  10.0241  10.0241  10.0442  10.0443  10.1343  10.2686

          k = 0.0000-0.2165 0.0000 (256176 PWs)   bands (ev):

   -15.9549 -15.9549 -15.2131 -15.2131 -13.9940 -13.9940 -13.9936 -13.9936
   -13.7520 -13.7519 -13.2735 -13.2732 -13.2730 -13.2728 -11.8812 -11.8809
   -11.8674 -11.8672 -11.6522 -11.6522  -9.9652  -9.9652  -9.9649  -9.9649
    -8.7179  -8.7179  -8.5617  -8.5617  -8.5608  -8.5607  -7.7338  -7.7336
    -7.7320  -7.7318  -6.5551  -6.5551  -6.5547  -6.5547  -6.4019  -6.4001
    -6.3984  -6.3966  -5.5801  -5.5801  -5.5761  -5.5760  -4.7463  -4.7463
    -4.7442  -4.7442  -4.6090  -4.6090  -4.5303  -4.5303  -4.1862  -4.1862
    -4.1796  -4.1795  -4.1519  -4.1519  -3.6511  -3.6511  -3.2465  -3.2465
    -2.9953  -2.9952  -2.9952  -2.9951  -2.8842  -2.8842  -2.7761  -2.7761
    -2.7236  -2.7236  -2.6243  -2.6243  -2.6238  -2.6238  -2.4443  -2.4442
    -2.4379  -2.4378  -2.3355  -2.3355  -2.2736  -2.2735  -2.2735  -2.2735
    -2.2354  -2.2353  -2.2353  -2.2353  -2.1756  -2.1756  -1.9780  -1.9779
    -1.9494  -1.9493  -1.9213  -1.9213  -1.9213  -1.9212  -1.8266  -1.8265
    -1.8264  -1.8264  -1.6772  -1.6772  -1.6684  -1.6684  -1.6591  -1.6591
    -1.5631  -1.5631  -1.4618  -1.4617  -1.4433  -1.4433  -1.4303  -1.4303
    -1.4189  -1.4188  -1.4179  -1.4178  -1.4133  -1.4133  -1.3417  -1.3416
    -1.2112  -1.2111  -1.2072  -1.2071  -1.1590  -1.1590  -1.1590  -1.1590
    -1.0588  -1.0588  -1.0452  -1.0452  -1.0096  -1.0095  -0.9706  -0.9706
    -0.9681  -0.9681  -0.9649  -0.9648  -0.9437  -0.9434  -0.9411  -0.9411
    -0.9214  -0.9213  -0.9077  -0.9077  -0.9060  -0.9060  -0.8352  -0.8352
    -0.8345  -0.8345  -0.8166  -0.8166  -0.7829  -0.7829  -0.7436  -0.7436
    -0.7404  -0.7404  -0.6789  -0.6788  -0.6750  -0.6750  -0.6749  -0.6749
    -0.6630  -0.6630  -0.6118  -0.6118  -0.6112  -0.6112  -0.5984  -0.5984
    -0.5909  -0.5909  -0.5909  -0.5909  -0.5163  -0.5163  -0.5048  -0.5048
    -0.5044  -0.5044  -0.5041  -0.5041  -0.4794  -0.4794  -0.4648  -0.4647
    -0.4456  -0.4456  -0.4393  -0.4393  -0.3476  -0.3476  -0.3476  -0.3476
    -0.3295  -0.3295  -0.2995  -0.2995  -0.2979  -0.2979  -0.2978  -0.2978
    -0.2629  -0.2628  -0.2253  -0.2253  -0.2253  -0.2253  -0.2203  -0.2203
    -0.2000  -0.2000  -0.1901  -0.1901  -0.1828  -0.1828  -0.1576  -0.1570
    -0.1371  -0.1371  -0.1369  -0.1369  -0.1205  -0.1205  -0.1205  -0.1205
    -0.0969  -0.0959  -0.0495  -0.0495  -0.0495  -0.0495  -0.0102  -0.0094
     0.0058   0.0058   0.0119   0.0120   0.0194   0.0194   0.0427   0.0427
     0.0427   0.0427   0.0591   0.0592   0.0640   0.0645   0.0656   0.0658
     0.0658   0.0659   0.0662   0.0664   0.0758   0.0758   0.0869   0.0873
     0.1013   0.1014   0.1015   0.1015   0.1689   0.1689   0.1690   0.1691
     0.1782   0.1782   0.1793   0.1793   0.2097   0.2118   0.2174   0.2175
     0.2190   0.2190   0.2217   0.2229   0.2261   0.2264   0.2326   0.2327
     0.2348   0.2348   0.2362   0.2363   0.2522   0.2526   0.2956   0.2957
     0.2962   0.2963   0.3115   0.3115   0.3123   0.3123   0.3189   0.3190
     0.3457   0.3457   0.3457   0.3458   0.3520   0.3614   0.3649   0.3701
     0.3701   0.3769   0.3833   0.3833   0.3833   0.3839   0.4024   0.4055
     0.4188   0.4188   0.4321   0.4321   0.4445   0.4446   0.4447   0.4449
     0.4924   0.4925   0.4925   0.4925   0.5057   0.5057   0.5108   0.5109
     0.5382   0.5382   0.5698   0.5698   0.5775   0.5775   0.6081   0.6082
     0.6564   0.6567   0.6951   0.6952   0.6957   0.6958   0.7277   0.7278
     0.7281   0.7282   0.7358   0.7358   0.7595   0.7616   0.7646   0.7647
     0.7705   0.7708   0.7716   0.7719   0.7891   0.7892   0.7902   0.7904
     0.7906   0.7906   0.7907   0.7908   0.7979   0.7979   0.8294   0.8294
     0.8390   0.8391   0.8392   0.8392   0.8392   0.8392   0.8651   0.8652
     0.8653   0.8653   0.8674   0.8674   0.8676   0.8696   0.8757   0.8758
     0.8920   0.8920   0.8957   0.8957   0.8970   0.8970   0.8970   0.8971
     0.9127   0.9128   0.9495   0.9495   0.9658   0.9658   0.9801   0.9802
     0.9811   0.9811   0.9813   0.9813   0.9868   0.9868   0.9893   0.9893
     0.9893   0.9894   1.0312   1.0312   1.0312   1.0312   1.0495   1.0495
     1.0540   1.0541   1.0552   1.0553   1.0556   1.0556   1.0882   1.0882
     1.0916   1.0917   1.0918   1.0919   1.1410   1.1410   1.1889   1.1889
     1.2022   1.2025   1.2136   1.2137   1.2185   1.2210   1.2223   1.2224
     1.2261   1.2261   1.2368   1.2368   1.2369   1.2369   1.2536   1.2536
     1.2538   1.2538   1.2600   1.2601   1.2652   1.2652   1.2690   1.2691
     1.2750   1.2750   1.2809   1.2809   1.2817   1.2817   1.2845   1.2845
     1.2924   1.2924   1.2958   1.2958   1.2958   1.2958   1.3187   1.3188
     1.3397   1.3398   1.3399   1.3401   1.3402   1.3404   1.3475   1.3475
     1.3476   1.3476   1.3511   1.3511   1.3968   1.3976   1.4214   1.4237
     1.4348   1.4349   1.4432   1.4432   1.4776   1.4776   1.4776   1.4779
     1.4789   1.4793   1.4977   1.4977   1.5023   1.5023   1.5024   1.5024
     1.5039   1.5040   1.5040   1.5041   1.5108   1.5108   1.5148   1.5151
     1.5200   1.5200   1.5343   1.5343   1.5346   1.5346   1.5364   1.5376
     1.5475   1.5475   1.5731   1.5734   1.5803   1.5803   1.5846   1.5846
     1.5896   1.5896   1.6023   1.6025   1.6030   1.6032   1.6186   1.6186
     1.6205   1.6208   1.6275   1.6275   1.6403   1.6403   1.6404   1.6404
     1.6646   1.6648   1.6692   1.6692   1.6731   1.6731   1.6874   1.6875
     1.6878   1.6879   1.7003   1.7003   1.7034   1.7035   1.7198   1.7198
     1.7344   1.7344   1.7439   1.7439   1.7550   1.7550   1.7572   1.7573
     1.7576   1.7577   1.7578   1.7579   1.7865   1.7866   1.7936   1.7936
     1.8073   1.8073   1.8094   1.8095   1.8262   1.8262   1.8262   1.8262
     1.8341   1.8341   1.8498   1.8498   1.8890   1.8891   1.8891   1.8891
     1.9852   1.9852   2.0030   2.0030   2.0537   2.0538   2.0541   2.0542
     2.0873   2.0873   2.1155   2.1155   2.1197   2.1198   2.1208   2.1209
     2.1584   2.1584   2.4684   2.4684   2.4731   2.4731   2.7111   2.7111
     2.7112   2.7112   2.8011   2.8011   2.8583   2.8583   2.8592   2.8593
     2.8822   2.8822   3.0157   3.0157   3.0377   3.0377   3.0713   3.0714
     3.2287   3.2287   3.4638   3.4638   3.4934   3.4935   3.6342   3.6343
     3.9769   3.9769   4.3238   4.3239   4.3292   4.3292   4.4166   4.4166
     4.4310   4.4310   4.6066   4.6068   4.6073   4.6076   4.7726   4.7726
     4.8951   4.8951   5.0038   5.0038   5.4029   5.4030   5.4277   5.4281
     5.6569   5.6569   5.6569   5.6570   5.7484   5.7484   5.9771   5.9772
     6.1553   6.1665   6.2253   6.2376   6.6074   6.6074   6.6716   6.6720
     6.6722   6.6727   6.8336   6.8344   6.9760   6.9760   7.0608   7.0609
     7.2760   7.2814   7.3402   7.3449   7.3868   7.3869   7.4142   7.4143
     7.4147   7.4147   7.4761   7.4761   7.6109   7.6111   7.6804   7.6818
     7.6840   7.6855   8.0841   8.0842   8.1096   8.1133   8.1137   8.1171
     8.4345   8.4345   8.4843   8.4844   8.6446   8.6446   8.6449   8.6450
     8.6644   8.6644   8.8992   8.8993   8.9149   8.9150   9.0097   9.0099
     9.0134   9.0136   9.0560   9.0560   9.1339   9.1339   9.1349   9.1350
     9.3119   9.3120   9.4121   9.4121   9.5689   9.5691   9.5695   9.5696
     9.6834   9.6834   9.6840   9.6841   9.7205   9.7207   9.7223   9.7225
     9.9018   9.9018   9.9208   9.9209  10.1785  10.1785  10.1786

          k = 0.2500 0.0000 0.0000 (256240 PWs)   bands (ev):

   -15.9239 -15.5528 -15.5518 -14.9369 -14.5705 -14.5696 -14.4481 -14.4481
   -13.4831 -13.4831 -13.0082 -12.6538 -12.6532 -12.6531 -12.6527 -11.7323
   -11.7322 -11.6236 -11.6236 -10.6476 -10.3289 -10.3280 -10.3199  -9.8066
    -9.6475  -9.3547  -9.3546  -8.9465  -8.6979  -8.6979  -8.1423  -7.1314
    -7.1313  -7.1278  -7.1264  -7.0119  -7.0109  -6.5481  -6.2811  -5.7149
    -5.5311  -5.5110  -5.5110  -5.5019  -5.5009  -5.0035  -5.0031  -4.7692
    -4.7679  -4.5676  -4.2613  -4.1580  -4.1133  -4.0848  -4.0845  -3.9486
    -3.9486  -3.9342  -3.9341  -3.6923  -3.6920  -3.6593  -3.6586  -3.5328
    -3.5328  -3.4951  -3.3069  -3.2040  -3.2040  -3.1246  -3.1239  -3.1187
    -3.1178  -3.0140  -3.0140  -2.9214  -2.8989  -2.8983  -2.7431  -2.7430
    -2.7395  -2.7379  -2.5521  -2.5515  -2.4938  -2.4937  -2.3990  -2.3990
    -2.3270  -2.3267  -2.0940  -2.0707  -2.0707  -2.0158  -2.0158  -1.7935
    -1.7935  -1.7767  -1.7765  -1.7068  -1.6817  -1.5954  -1.5944  -1.5934
    -1.5932  -1.5907  -1.5907  -1.5352  -1.4924  -1.4924  -1.4916  -1.4916
    -1.4662  -1.4396  -1.4156  -1.4156  -1.4033  -1.3749  -1.3749  -1.3327
    -1.3326  -1.2978  -1.2742  -1.2737  -1.2682  -1.2682  -1.2617  -1.2617
    -1.2405  -1.2400  -1.2191  -1.2190  -1.1982  -1.1980  -1.1839  -1.1838
    -1.0603  -1.0183  -1.0182  -1.0062  -0.9462  -0.9432  -0.9432  -0.9328
    -0.9324  -0.9305  -0.9214  -0.9214  -0.9008  -0.8962  -0.8956  -0.8789
    -0.8789  -0.8696  -0.8563  -0.8277  -0.8275  -0.8234  -0.8233  -0.8048
    -0.8047  -0.8026  -0.8019  -0.7710  -0.7698  -0.7396  -0.7394  -0.7314
    -0.7313  -0.7183  -0.7173  -0.7120  -0.7040  -0.7039  -0.6822  -0.6822
    -0.6788  -0.6773  -0.6773  -0.6766  -0.6755  -0.6634  -0.6633  -0.6514
    -0.6356  -0.6356  -0.6312  -0.5998  -0.5997  -0.5944  -0.5770  -0.5767
    -0.5643  -0.5637  -0.5487  -0.5468  -0.5380  -0.5379  -0.5092  -0.5092
    -0.4887  -0.4887  -0.4723  -0.4611  -0.4607  -0.4508  -0.4410  -0.4405
    -0.4366  -0.4276  -0.4273  -0.4070  -0.2887  -0.2885  -0.2807  -0.2767
    -0.2569  -0.2526  -0.2526  -0.2435  -0.2435  -0.2372  -0.2313  -0.2145
    -0.2145  -0.2120  -0.2120  -0.1914  -0.1914  -0.1741  -0.1737  -0.1722
    -0.1720  -0.1687  -0.1685  -0.1548  -0.1548  -0.1425  -0.0914  -0.0914
    -0.0849  -0.0816  -0.0815  -0.0805  -0.0698  -0.0647  -0.0621  -0.0620
    -0.0426  -0.0425  -0.0249  -0.0220  -0.0220  -0.0113   0.0122   0.0123
     0.0146   0.0146   0.0278   0.0278   0.0376   0.0489   0.0489   0.0560
     0.0560   0.0773   0.0791   0.0795   0.1090   0.1114   0.1120   0.1146
     0.1146   0.1293   0.1307   0.1311   0.1313   0.1555   0.1555   0.1610
     0.1708   0.1708   0.1718   0.1724   0.1995   0.1997   0.2021   0.2356
     0.2357   0.2423   0.2423   0.2446   0.2600   0.2636   0.2693   0.2895
     0.2895   0.2965   0.2965   0.3017   0.3123   0.3124   0.3134   0.3134
     0.3150   0.3151   0.3176   0.3182   0.3218   0.3391   0.3392   0.3440
     0.3442   0.3495   0.3495   0.3681   0.3681   0.3832   0.3833   0.4008
     0.4240   0.4241   0.4247   0.4254   0.4254   0.4453   0.4454   0.4489
     0.4489   0.4505   0.4509   0.4560   0.4561   0.4823   0.4823   0.5374
     0.5381   0.5643   0.5643   0.5671   0.5804   0.5828   0.5870   0.5871
     0.5906   0.5907   0.5937   0.5939   0.5968   0.5980   0.6027   0.6091
     0.6095   0.6164   0.6164   0.6198   0.6198   0.6324   0.6324   0.6351
     0.6352   0.6392   0.6403   0.6712   0.6713   0.6768   0.7087   0.7087
     0.7157   0.7320   0.7414   0.7426   0.7532   0.7534   0.7542   0.7560
     0.7585   0.7696   0.7718   0.7868   0.7872   0.7879   0.7974   0.7976
     0.7996   0.7997   0.8087   0.8087   0.8294   0.8294   0.8298   0.8579
     0.8583   0.8592   0.8612   0.8613   0.8653   0.8656   0.8732   0.8732
     0.8798   0.8926   0.8926   0.9040   0.9050   0.9058   0.9063   0.9065
     0.9208   0.9208   0.9250   0.9303   0.9303   0.9498   0.9501   0.9657
     0.9658   0.9684   0.9687   0.9732   0.9766   0.9767   0.9995   1.0077
     1.0117   1.0332   1.0380   1.0494   1.0494   1.0566   1.0574   1.0577
     1.0692   1.0771   1.0828   1.0829   1.0864   1.0866   1.0940   1.0948
     1.1110   1.1114   1.1269   1.1299   1.1380   1.1380   1.1520   1.1532
     1.1540   1.1631   1.1637   1.1638   1.1688   1.1879   1.1906   1.1976
     1.2037   1.2038   1.2059   1.2072   1.2088   1.2140   1.2143   1.2259
     1.2495   1.2508   1.2528   1.2644   1.2645   1.2781   1.2781   1.2781
     1.2809   1.2953   1.2956   1.2974   1.3041   1.3126   1.3141   1.3142
     1.3214   1.3236   1.3237   1.3272   1.3350   1.3351   1.3392   1.3423
     1.3424   1.3429   1.3446   1.3458   1.3566   1.3603   1.3630   1.3631
     1.3730   1.3730   1.3754   1.3866   1.3868   1.3929   1.3948   1.3995
     1.4004   1.4156   1.4158   1.4200   1.4207   1.4217   1.4279   1.4366
     1.4406   1.4412   1.4556   1.4559   1.4620   1.4623   1.4690   1.4691
     1.4786   1.4905   1.4925   1.4970   1.4989   1.4989   1.5081   1.5251
     1.5252   1.5452   1.5463   1.5546   1.5571   1.5626   1.5627   1.5637
     1.5640   1.5700   1.5800   1.5800   1.5807   1.5856   1.5856   1.5973
     1.6008   1.6016   1.6087   1.6089   1.6143   1.6183   1.6202   1.6202
     1.6249   1.6250   1.6277   1.6280   1.6370   1.6400   1.6400   1.6406
     1.6514   1.6576   1.6594   1.6598   1.6598   1.6663   1.6701   1.6852
     1.6853   1.6910   1.6991   1.6999   1.7168   1.7170   1.7278   1.7280
     1.7297   1.7297   1.7303   1.7342   1.7348   1.7349   1.7412   1.7439
     1.7441   1.7457   1.7464   1.7529   1.7680   1.7681   1.7700   1.7703
     1.7703   1.7795   1.7796   1.7896   1.7897   1.7999   1.8022   1.8113
     1.8113   1.8158   1.8158   1.8243   1.8286   1.8342   1.8534   1.8590
     1.8814   1.8862   1.8895   1.9315   1.9336   1.9364   1.9402   1.9739
     1.9779   2.0477   2.0495   2.0682   2.0682   2.0931   2.1044   2.1415
     2.1754   2.3171   2.3382   2.3599   2.3599   2.3788   2.3788   2.4649
     2.4913   2.5287   2.5288   2.8659   2.8661   2.8668   2.8711   3.2805
     3.2805   3.2880   3.5021   3.5021   3.5205   3.5205   3.5463   3.5505
     3.6950   3.7549   3.8539   3.8539   3.9315   3.9315   4.0007   4.0007
     4.0096   4.0099   4.0602   4.1612   4.1612   4.2470   4.2470   4.3748
     4.4204   4.4207   4.5245   4.5864   4.7066   4.7847   4.7899   4.9708
     4.9802   5.1333   5.1361   5.3888   5.5132   5.5132   5.5349   5.6370
     5.6759   5.6759   5.7490   5.7494   5.8102   5.8191   5.8306   5.8707
     5.8973   5.8983   6.0143   6.0147   6.0649   6.0650   6.2139   6.2205
     6.3118   6.3122   6.3606   6.3627   6.9733   6.9746   6.9757   7.0291
     7.0577   7.0809   7.1353   7.1354   7.1635   7.2851   7.3081   7.3288
     7.3297   7.3332   7.3632   7.4989   7.4989   7.5182   7.5503   7.5504
     7.7129   7.7211   7.8463   7.8587   7.9722   7.9722   7.9820   8.0230
     8.0285   8.0370   8.1278   8.2867   8.2947   8.3619   8.3619   8.4815
     8.5029   8.6007   8.6009   8.6206   8.6228   8.6529   8.6533   8.6762
     8.6774   8.7462   8.8608   8.9381   8.9382   8.9560   9.2090   9.2164
     9.3985   9.4065   9.4476   9.4493   9.4495   9.4541   9.4613   9.4614
     9.4844   9.5019   9.5040   9.5041   9.5242   9.5248   9.5389   9.6680
     9.6682   9.7813   9.7813  10.0139  10.0139  10.0474  10.0479

          k = 0.2500-0.2165 0.0000 (256316 PWs)   bands (ev):

   -15.8308 -15.8308 -15.0903 -15.0902 -14.8450 -14.8450 -14.1144 -14.1144
   -13.6322 -13.6322 -12.9190 -12.9190 -12.6841 -12.6841 -12.2169 -12.2169
   -11.5404 -11.5404 -10.9181 -10.9181 -10.6614 -10.6614 -10.2762 -10.2762
    -9.2310  -9.2310  -8.7093  -8.7093  -8.6237  -8.6237  -8.0621  -8.0621
    -7.9769  -7.9769  -6.2500  -6.2500  -6.2225  -6.2225  -6.1089  -6.1089
    -5.8768  -5.8768  -5.5397  -5.5397  -5.3979  -5.3978  -4.7478  -4.7478
    -4.4454  -4.4454  -4.4216  -4.4216  -4.3669  -4.3669  -4.0391  -4.0391
    -3.9987  -3.9987  -3.7800  -3.7800  -3.7347  -3.7347  -3.5051  -3.5051
    -3.4016  -3.4016  -3.2021  -3.2021  -3.1580  -3.1580  -3.1517  -3.1516
    -3.1106  -3.1106  -2.8261  -2.8261  -2.7987  -2.7986  -2.6739  -2.6738
    -2.6323  -2.6323  -2.6024  -2.6024  -2.4649  -2.4648  -2.4534  -2.4534
    -2.1799  -2.1799  -2.1220  -2.1220  -2.0082  -2.0081  -1.9040  -1.9040
    -1.8817  -1.8817  -1.8653  -1.8653  -1.6999  -1.6999  -1.6714  -1.6714
    -1.5806  -1.5806  -1.5317  -1.5317  -1.5146  -1.5146  -1.5092  -1.5092
    -1.4503  -1.4503  -1.4095  -1.4095  -1.4018  -1.4017  -1.3731  -1.3731
    -1.3713  -1.3713  -1.3673  -1.3673  -1.3615  -1.3615  -1.3518  -1.3516
    -1.2772  -1.2771  -1.1574  -1.1574  -1.0598  -1.0598  -1.0183  -1.0182
    -1.0156  -1.0156  -0.9706  -0.9706  -0.9556  -0.9556  -0.9381  -0.9381
    -0.9299  -0.9299  -0.9261  -0.9261  -0.9196  -0.9196  -0.9057  -0.9056
    -0.8931  -0.8931  -0.8796  -0.8795  -0.8744  -0.8744  -0.8220  -0.8220
    -0.8183  -0.8182  -0.8048  -0.8048  -0.7873  -0.7873  -0.7760  -0.7760
    -0.7505  -0.7505  -0.7298  -0.7297  -0.7125  -0.7125  -0.7124  -0.7123
    -0.6895  -0.6895  -0.6515  -0.6515  -0.6495  -0.6495  -0.6419  -0.6419
    -0.6397  -0.6397  -0.6093  -0.6093  -0.5958  -0.5958  -0.5601  -0.5600
    -0.5554  -0.5554  -0.4667  -0.4667  -0.4651  -0.4651  -0.4563  -0.4560
    -0.4387  -0.4384  -0.4047  -0.4047  -0.4043  -0.4042  -0.3988  -0.3988
    -0.3985  -0.3985  -0.3789  -0.3789  -0.3353  -0.3352  -0.3160  -0.3160
    -0.3023  -0.3022  -0.2587  -0.2586  -0.2537  -0.2537  -0.2279  -0.2279
    -0.2210  -0.2210  -0.2054  -0.2054  -0.1889  -0.1889  -0.1817  -0.1817
    -0.1430  -0.1430  -0.1316  -0.1315  -0.1148  -0.1146  -0.0951  -0.0951
    -0.0808  -0.0807  -0.0684  -0.0680  -0.0618  -0.0616  -0.0558  -0.0558
    -0.0481  -0.0480  -0.0403  -0.0403  -0.0389  -0.0389  -0.0229  -0.0229
    -0.0199  -0.0199  -0.0095  -0.0095   0.0225   0.0225   0.0352   0.0352
     0.0549   0.0549   0.0688   0.0688   0.0803   0.0803   0.0911   0.0911
     0.0961   0.0961   0.1356   0.1356   0.1535   0.1536   0.1878   0.1878
     0.1989   0.1989   0.2066   0.2066   0.2220   0.2220   0.2401   0.2401
     0.2459   0.2459   0.2572   0.2572   0.2654   0.2654   0.2664   0.2665
     0.2713   0.2714   0.3006   0.3006   0.3022   0.3022   0.3059   0.3059
     0.3067   0.3067   0.3119   0.3122   0.3157   0.3159   0.3406   0.3406
     0.3408   0.3408   0.3745   0.3745   0.3830   0.3830   0.3876   0.3877
     0.4107   0.4108   0.4396   0.4396   0.4401   0.4404   0.4487   0.4488
     0.4581   0.4581   0.4643   0.4643   0.4753   0.4756   0.4782   0.4783
     0.4874   0.4877   0.5166   0.5166   0.5814   0.5814   0.5914   0.5914
     0.5925   0.5925   0.5968   0.5969   0.5999   0.5999   0.6039   0.6040
     0.6236   0.6237   0.6269   0.6270   0.6408   0.6411   0.6416   0.6416
     0.6443   0.6443   0.6758   0.6758   0.6935   0.6935   0.7089   0.7089
     0.7118   0.7118   0.7578   0.7578   0.7598   0.7599   0.7699   0.7699
     0.7703   0.7705   0.7805   0.7805   0.7907   0.7908   0.7929   0.7930
     0.7951   0.7952   0.8228   0.8228   0.8337   0.8338   0.8400   0.8400
     0.8809   0.8809   0.8852   0.8852   0.9107   0.9107   0.9114   0.9114
     0.9176   0.9177   0.9273   0.9273   0.9389   0.9390   0.9458   0.9459
     0.9508   0.9520   0.9526   0.9526   0.9571   0.9571   0.9719   0.9722
     0.9745   0.9745   0.9803   0.9803   0.9812   0.9812   0.9980   0.9981
     0.9988   0.9988   1.0105   1.0106   1.0184   1.0184   1.0240   1.0241
     1.0301   1.0301   1.0393   1.0394   1.0653   1.0654   1.0708   1.0708
     1.1136   1.1136   1.1151   1.1193   1.1331   1.1331   1.1345   1.1345
     1.1426   1.1426   1.1567   1.1568   1.1641   1.1641   1.1644   1.1644
     1.1723   1.1723   1.1920   1.1929   1.2026   1.2027   1.2086   1.2087
     1.2179   1.2180   1.2344   1.2344   1.2560   1.2560   1.2615   1.2634
     1.2720   1.2721   1.2737   1.2739   1.2801   1.2802   1.2919   1.2919
     1.3124   1.3125   1.3277   1.3277   1.3458   1.3460   1.3523   1.3523
     1.3830   1.3830   1.3862   1.3863   1.3928   1.3928   1.3941   1.3941
     1.3961   1.3961   1.3961   1.3961   1.4031   1.4031   1.4127   1.4127
     1.4216   1.4216   1.4302   1.4303   1.4471   1.4471   1.4752   1.4753
     1.4779   1.4779   1.4809   1.4815   1.4835   1.4835   1.4949   1.4950
     1.5005   1.5007   1.5008   1.5008   1.5041   1.5042   1.5087   1.5088
     1.5183   1.5183   1.5199   1.5200   1.5307   1.5307   1.5331   1.5331
     1.5418   1.5418   1.5546   1.5546   1.5767   1.5767   1.5843   1.5843
     1.5974   1.5974   1.6054   1.6054   1.6179   1.6179   1.6221   1.6221
     1.6228   1.6229   1.6366   1.6367   1.6442   1.6442   1.6543   1.6543
     1.6565   1.6566   1.6682   1.6682   1.6808   1.6808   1.6860   1.6861
     1.6889   1.6889   1.6984   1.6984   1.7045   1.7045   1.7165   1.7165
     1.7188   1.7194   1.7259   1.7272   1.7355   1.7355   1.7424   1.7424
     1.7437   1.7437   1.7506   1.7507   1.7518   1.7523   1.7546   1.7546
     1.7612   1.7612   1.7849   1.7849   1.7952   1.7952   1.8070   1.8070
     1.8272   1.8275   1.8349   1.8349   1.8574   1.8574   1.8635   1.8635
     1.8876   1.8876   1.9266   1.9266   1.9590   1.9590   1.9698   1.9698
     2.0536   2.0536   2.0598   2.0598   2.0804   2.0804   2.0870   2.0870
     2.1205   2.1205   2.1240   2.1240   2.4321   2.4321   2.4620   2.4620
     2.5873   2.5873   2.8886   2.8886   3.0754   3.0754   3.0908   3.0909
     3.0968   3.0969   3.1065   3.1065   3.2879   3.2879   3.3520   3.3520
     3.8255   3.8256   3.8769   3.8770   3.8964   3.8964   4.1426   4.1426
     4.1434   4.1434   4.2868   4.2868   4.3696   4.3696   4.4641   4.4641
     4.6762   4.6763   4.7176   4.7176   4.8187   4.8188   4.9657   4.9657
     5.0616   5.0616   5.1341   5.1341   5.1601   5.1601   5.2270   5.2271
     5.4870   5.4871   5.5052   5.5052   5.7125   5.7126   5.7560   5.7560
     5.7870   5.7870   6.0608   6.0612   6.1403   6.1403   6.2549   6.2550
     6.3716   6.3716   6.8330   6.8330   6.8923   6.8944   7.0159   7.0174
     7.1011   7.1012   7.2492   7.2493   7.3467   7.3496   7.3613   7.3613
     7.4951   7.4972   7.5082   7.5082   7.6032   7.6033   7.6365   7.6365
     7.6442   7.6442   7.7169   7.7169   7.7261   7.7262   7.9404   7.9405
     8.0637   8.0638   8.2182   8.2183   8.2591   8.2592   8.4840   8.4840
     8.5217   8.5218   8.6518   8.6518   8.8157   8.8158   8.8677   8.8677
     8.9010   8.9010   8.9810   8.9810   8.9838   8.9838   9.0795   9.0795
     9.1438   9.1441   9.2237   9.2237   9.3082   9.3082   9.3963   9.3963
     9.4637   9.4638   9.4985   9.4985   9.5574   9.5575   9.6260   9.6261
     9.6537   9.6538   9.6546   9.6551   9.7356   9.7360  10.0607

          k =-0.5000 0.0000 0.0000 (256496 PWs)   bands (ev):

   -15.5524 -15.5524 -15.1828 -15.1828 -15.1820 -15.1819 -14.0848 -14.0847
   -14.0844 -14.0843 -12.3049 -12.3049 -12.3048 -12.3048 -11.7320 -11.7320
   -11.4015 -11.4013 -11.4004 -11.4002 -10.7500 -10.7500 -10.3316 -10.3316
    -9.7589  -9.7589  -9.3478  -9.3478  -8.5142  -8.5142  -8.5140  -8.5140
    -7.0168  -7.0168  -6.9435  -6.9435  -6.9421  -6.9421  -5.4955  -5.4955
    -5.0015  -5.0013  -4.7732  -4.7732  -4.4951  -4.4949  -4.4949  -4.4946
    -4.3551  -4.3551  -4.3544  -4.3543  -4.2609  -4.2609  -4.2608  -4.2608
    -4.0818  -4.0817  -3.9697  -3.9696  -3.9688  -3.9687  -3.6552  -3.6551
    -3.6241  -3.6240  -3.6238  -3.6237  -3.2267  -3.2267  -3.2262  -3.2261
    -3.1125  -3.1125  -3.1123  -3.1123  -2.9706  -2.9706  -2.9608  -2.9608
    -2.9606  -2.9606  -2.4051  -2.4051  -2.4050  -2.4050  -2.3680  -2.3680
    -2.3680  -2.3680  -2.3131  -2.3129  -2.0756  -2.0756  -2.0755  -2.0754
    -2.0048  -2.0046  -2.0045  -2.0043  -1.5747  -1.5745  -1.5745  -1.5743
    -1.5702  -1.5701  -1.4500  -1.4499  -1.4499  -1.4498  -1.3410  -1.3409
    -1.3405  -1.3404  -1.2957  -1.2956  -1.2955  -1.2954  -1.2516  -1.2516
    -1.1996  -1.1995  -1.1826  -1.1824  -1.1138  -1.1138  -1.1132  -1.1131
    -1.1001  -1.0999  -1.0499  -1.0498  -1.0495  -1.0494  -1.0493  -1.0493
    -1.0493  -1.0492  -1.0323  -1.0322  -1.0321  -1.0320  -1.0274  -1.0273
    -0.9846  -0.9845  -0.9844  -0.9843  -0.9597  -0.9596  -0.9596  -0.9596
    -0.8988  -0.8986  -0.8714  -0.8714  -0.8711  -0.8711  -0.8445  -0.8445
    -0.8444  -0.8443  -0.8298  -0.8297  -0.8290  -0.8290  -0.7983  -0.7983
    -0.7981  -0.7981  -0.7785  -0.7783  -0.7488  -0.7486  -0.6962  -0.6961
    -0.6735  -0.6734  -0.6734  -0.6733  -0.6426  -0.6426  -0.6426  -0.6425
    -0.6263  -0.6263  -0.6259  -0.6258  -0.6201  -0.6200  -0.6195  -0.6193
    -0.5892  -0.5892  -0.5846  -0.5845  -0.5209  -0.5208  -0.5208  -0.5207
    -0.4803  -0.4801  -0.4047  -0.4047  -0.4046  -0.4046  -0.3582  -0.3581
    -0.3581  -0.3580  -0.3540  -0.3539  -0.3269  -0.3262  -0.3237  -0.3228
    -0.3135  -0.3134  -0.3127  -0.3126  -0.2963  -0.2961  -0.2888  -0.2885
    -0.2875  -0.2873  -0.1752  -0.1750  -0.1746  -0.1745  -0.1430  -0.1429
    -0.1311  -0.1310  -0.1264  -0.1263  -0.0932  -0.0932  -0.0931  -0.0931
    -0.0905  -0.0904  -0.0901  -0.0901  -0.0645  -0.0645  -0.0642  -0.0641
    -0.0493  -0.0493  -0.0155  -0.0154  -0.0154  -0.0153   0.0113   0.0113
     0.0113   0.0114   0.0234   0.0235   0.0566   0.0566   0.0567   0.0567
     0.0725   0.0727   0.0732   0.0734   0.1080   0.1082   0.1153   0.1155
     0.1738   0.1738   0.1740   0.1740   0.1823   0.1823   0.1823   0.1823
     0.2233   0.2233   0.2233   0.2234   0.2629   0.2631   0.2819   0.2819
     0.2820   0.2820   0.2877   0.2877   0.2879   0.2879   0.2882   0.2882
     0.2882   0.2883   0.3761   0.3762   0.3793   0.3795   0.3796   0.3797
     0.3799   0.3800   0.3867   0.3867   0.3871   0.3872   0.3884   0.3884
     0.3885   0.3886   0.3970   0.3971   0.4026   0.4026   0.4074   0.4075
     0.4206   0.4207   0.4207   0.4207   0.4223   0.4224   0.4362   0.4362
     0.4363   0.4363   0.4495   0.4495   0.4593   0.4593   0.4595   0.4595
     0.4784   0.4785   0.4936   0.4936   0.5989   0.5989   0.5994   0.5994
     0.6237   0.6243   0.6256   0.6259   0.6345   0.6347   0.6400   0.6400
     0.6503   0.6503   0.6527   0.6527   0.6527   0.6528   0.6572   0.6572
     0.6607   0.6607   0.6669   0.6669   0.6686   0.6686   0.6743   0.6744
     0.6993   0.6994   0.6995   0.6996   0.7006   0.7007   0.7034   0.7036
     0.7113   0.7114   0.7910   0.7910   0.8003   0.8004   0.8036   0.8036
     0.8131   0.8131   0.8394   0.8397   0.8405   0.8407   0.8410   0.8410
     0.8415   0.8415   0.8417   0.8418   0.8438   0.8438   0.8454   0.8454
     0.8576   0.8578   0.8584   0.8587   0.8730   0.8733   0.8905   0.8905
     0.9241   0.9241   0.9336   0.9337   0.9352   0.9354   0.9367   0.9367
     0.9422   0.9423   0.9432   0.9432   0.9439   0.9439   0.9583   0.9583
     0.9603   0.9603   0.9788   0.9789   0.9793   0.9793   1.0186   1.0186
     1.0188   1.0189   1.0210   1.0210   1.0343   1.0344   1.0732   1.0732
     1.0736   1.0736   1.0877   1.0877   1.0904   1.0904   1.1295   1.1297
     1.1396   1.1396   1.1441   1.1441   1.1444   1.1444   1.1528   1.1528
     1.1621   1.1625   1.1656   1.1656   1.1727   1.1733   1.1958   1.1958
     1.1959   1.1959   1.2040   1.2043   1.2164   1.2165   1.2182   1.2183
     1.2185   1.2185   1.2491   1.2491   1.2492   1.2492   1.3203   1.3203
     1.3203   1.3203   1.3336   1.3337   1.3539   1.3539   1.3604   1.3606
     1.3612   1.3613   1.3843   1.3844   1.3852   1.3852   1.3922   1.3925
     1.3941   1.3944   1.4210   1.4211   1.4213   1.4213   1.4224   1.4226
     1.4279   1.4280   1.4402   1.4403   1.4444   1.4444   1.4451   1.4452
     1.4499   1.4499   1.4500   1.4500   1.4726   1.4726   1.4795   1.4795
     1.5118   1.5123   1.5159   1.5165   1.5187   1.5187   1.5189   1.5189
     1.5396   1.5396   1.5479   1.5480   1.5483   1.5484   1.5574   1.5574
     1.5577   1.5577   1.5611   1.5611   1.5758   1.5758   1.5818   1.5819
     1.6082   1.6082   1.6200   1.6202   1.6204   1.6205   1.6210   1.6210
     1.6214   1.6215   1.6321   1.6323   1.6337   1.6339   1.6373   1.6373
     1.6390   1.6390   1.6440   1.6441   1.6501   1.6502   1.6504   1.6505
     1.6581   1.6581   1.6750   1.6750   1.6791   1.6791   1.6793   1.6793
     1.7031   1.7031   1.7034   1.7034   1.7192   1.7193   1.7213   1.7213
     1.7374   1.7374   1.7419   1.7419   1.7522   1.7522   1.7522   1.7523
     1.7703   1.7704   1.7740   1.7740   1.7823   1.7823   1.7893   1.7893
     1.7894   1.7894   1.7925   1.7925   1.8052   1.8052   1.8188   1.8188
     1.8188   1.8188   1.8329   1.8329   1.8375   1.8376   1.8846   1.8847
     1.9140   1.9140   1.9183   1.9183   1.9293   1.9294   2.3207   2.3208
     2.3211   2.3211   2.5307   2.5308   2.5347   2.5348   2.5905   2.5906
     2.5964   2.5965   2.8883   2.8883   2.8891   2.8892   3.1334   3.1335
     3.1388   3.1389   3.4888   3.4888   3.4905   3.4906   3.7720   3.7721
     4.0259   4.0260   4.0262   4.0262   4.2143   4.2144   4.2179   4.2180
     4.3769   4.3769   4.3795   4.3795   4.4147   4.4148   4.8015   4.8015
     4.9258   4.9258   4.9770   4.9774   4.9822   4.9825   5.1261   5.1261
     5.1669   5.1669   5.3249   5.3250   5.3415   5.3416   5.3435   5.3436
     5.3629   5.3634   5.3818   5.3821   5.5242   5.5243   5.5247   5.5248
     5.8343   5.8345   5.8364   5.8367   5.8785   5.8786   6.2368   6.2368
     6.2821   6.2830   6.2856   6.2858   6.2965   6.2978   6.3092   6.3101
     6.6437   6.6438   6.6659   6.6660   6.8532   6.8545   6.8611   6.8625
     7.3645   7.3652   7.3819   7.3834   7.3942   7.3950   7.8528   7.8528
     7.8813   7.8813   7.8814   7.8815   7.8994   7.8995   8.0231   8.0231
     8.1171   8.1173   8.1567   8.1567   8.1570   8.1570   8.3340   8.3342
     8.3365   8.3365   8.3550   8.3550   8.3566   8.3567   8.5247   8.5247
     8.5251   8.5251   8.6523   8.6523   9.1100   9.1100   9.1101   9.1101
     9.1754   9.1754   9.1758   9.1758   9.3281   9.3282   9.3284   9.3285
     9.4494   9.4494   9.5681   9.5683   9.7671   9.7672   9.7883   9.7892
     9.8071   9.8072   9.8483   9.9325   9.9325   9.9327   9.9327

          k =-0.5000-0.2165 0.0000 (256328 PWs)   bands (ev):

   -15.4631 -15.4631 -15.4562 -15.4562 -14.7227 -14.7227 -14.7227 -14.7227
   -13.2746 -13.2746 -13.2746 -13.2746 -11.6476 -11.6476 -11.6476 -11.6476
   -11.2082 -11.2082 -11.2061 -11.2061 -11.0263 -11.0263 -11.0262 -11.0262
    -9.3306  -9.3306  -9.3306  -9.3306  -8.3628  -8.3628  -8.3567  -8.3567
    -7.6001  -7.6001  -7.6000  -7.6000  -5.5187  -5.5187  -5.5186  -5.5186
    -4.8957  -4.8957  -4.8956  -4.8956  -4.8728  -4.8727  -4.8726  -4.8725
    -4.6737  -4.6736  -4.6661  -4.6661  -3.9668  -3.9666  -3.9632  -3.9631
    -3.8905  -3.8905  -3.8902  -3.8902  -3.8021  -3.8021  -3.8020  -3.8020
    -3.5486  -3.5485  -3.5434  -3.5433  -3.2482  -3.2482  -3.2477  -3.2477
    -3.2456  -3.2456  -3.2450  -3.2450  -3.0819  -3.0819  -3.0818  -3.0818
    -2.7227  -2.7227  -2.7226  -2.7226  -2.2738  -2.2737  -2.2736  -2.2736
    -2.2295  -2.2294  -2.2293  -2.2292  -1.9240  -1.9240  -1.9240  -1.9240
    -1.7762  -1.7761  -1.7761  -1.7760  -1.7157  -1.7157  -1.7156  -1.7156
    -1.6246  -1.6246  -1.6174  -1.6174  -1.4962  -1.4961  -1.4961  -1.4960
    -1.3602  -1.3601  -1.3601  -1.3601  -1.1888  -1.1888  -1.1886  -1.1886
    -1.1589  -1.1589  -1.1589  -1.1589  -1.1485  -1.1484  -1.1483  -1.1483
    -1.1275  -1.1274  -1.1274  -1.1273  -1.0759  -1.0758  -1.0757  -1.0756
    -1.0718  -1.0718  -1.0717  -1.0717  -1.0571  -1.0571  -1.0571  -1.0571
    -0.9943  -0.9943  -0.9943  -0.9942  -0.9240  -0.9240  -0.9240  -0.9240
    -0.8851  -0.8850  -0.8849  -0.8848  -0.8485  -0.8484  -0.8484  -0.8484
    -0.8131  -0.8131  -0.8130  -0.8130  -0.8104  -0.8104  -0.8104  -0.8103
    -0.7786  -0.7785  -0.7785  -0.7785  -0.7485  -0.7484  -0.7483  -0.7482
    -0.7332  -0.7331  -0.7330  -0.7329  -0.7256  -0.7255  -0.7255  -0.7254
    -0.6281  -0.6281  -0.6228  -0.6228  -0.5641  -0.5640  -0.5638  -0.5636
    -0.5458  -0.5458  -0.5458  -0.5458  -0.4553  -0.4553  -0.4552  -0.4552
    -0.4551  -0.4550  -0.4549  -0.4548  -0.4459  -0.4459  -0.4459  -0.4459
    -0.3935  -0.3935  -0.3934  -0.3934  -0.3735  -0.3735  -0.3734  -0.3733
    -0.3510  -0.3508  -0.3507  -0.3505  -0.2509  -0.2509  -0.2509  -0.2508
    -0.2454  -0.2453  -0.2448  -0.2447  -0.1842  -0.1841  -0.1841  -0.1841
    -0.1370  -0.1370  -0.1369  -0.1369  -0.1146  -0.1145  -0.1143  -0.1142
    -0.0835  -0.0834  -0.0834  -0.0834  -0.0797  -0.0797  -0.0797  -0.0797
    -0.0196  -0.0195  -0.0194  -0.0194   0.0342   0.0342   0.0343   0.0343
     0.0516   0.0516   0.0517   0.0517   0.0679   0.0680   0.0680   0.0681
     0.1499   0.1499   0.1500   0.1500   0.1576   0.1576   0.1576   0.1576
     0.1612   0.1612   0.1613   0.1613   0.1941   0.1941   0.1941   0.1941
     0.2090   0.2090   0.2091   0.2091   0.2108   0.2108   0.2109   0.2109
     0.2826   0.2826   0.2826   0.2826   0.3156   0.3157   0.3158   0.3159
     0.3636   0.3637   0.3642   0.3643   0.3871   0.3871   0.3871   0.3871
     0.3990   0.3990   0.3999   0.3999   0.4085   0.4086   0.4087   0.4088
     0.4097   0.4097   0.4098   0.4098   0.4098   0.4099   0.4099   0.4099
     0.4144   0.4144   0.4145   0.4145   0.4309   0.4309   0.4309   0.4309
     0.4569   0.4570   0.4570   0.4570   0.4717   0.4718   0.4719   0.4719
     0.5183   0.5183   0.5183   0.5183   0.5544   0.5544   0.5544   0.5545
     0.6366   0.6367   0.6372   0.6372   0.6448   0.6448   0.6455   0.6455
     0.6538   0.6539   0.6544   0.6544   0.6676   0.6676   0.6676   0.6677
     0.6786   0.6786   0.6787   0.6787   0.6830   0.6830   0.6837   0.6837
     0.7198   0.7198   0.7216   0.7217   0.7443   0.7444   0.7447   0.7447
     0.7644   0.7645   0.7646   0.7647   0.7733   0.7735   0.7736   0.7738
     0.7762   0.7763   0.7764   0.7765   0.8176   0.8177   0.8177   0.8178
     0.8240   0.8242   0.8243   0.8244   0.8629   0.8629   0.8630   0.8630
     0.8794   0.8794   0.8795   0.8796   0.8843   0.8844   0.8860   0.8861
     0.8906   0.8906   0.8906   0.8906   0.9051   0.9052   0.9060   0.9060
     0.9259   0.9260   0.9261   0.9262   0.9907   0.9907   0.9908   0.9908
     0.9952   0.9952   0.9952   0.9952   1.0001   1.0002   1.0005   1.0006
     1.0218   1.0218   1.0250   1.0251   1.0366   1.0366   1.0366   1.0366
     1.0397   1.0397   1.0401   1.0401   1.0891   1.0891   1.0903   1.0905
     1.1212   1.1212   1.1213   1.1214   1.1399   1.1401   1.1413   1.1417
     1.1559   1.1559   1.1559   1.1559   1.1788   1.1788   1.1795   1.1795
     1.2368   1.2368   1.2368   1.2368   1.2707   1.2708   1.2721   1.2721
     1.3285   1.3288   1.3295   1.3296   1.3329   1.3331   1.3338   1.3340
     1.3476   1.3477   1.3477   1.3478   1.3511   1.3511   1.3511   1.3512
     1.3536   1.3537   1.3539   1.3540   1.3733   1.3738   1.3770   1.3771
     1.3862   1.3863   1.3864   1.3864   1.3901   1.3905   1.3917   1.3930
     1.4017   1.4020   1.4030   1.4035   1.4244   1.4244   1.4249   1.4249
     1.4389   1.4390   1.4393   1.4393   1.4441   1.4441   1.4444   1.4444
     1.5020   1.5020   1.5022   1.5023   1.5028   1.5028   1.5070   1.5070
     1.5294   1.5294   1.5294   1.5294   1.5399   1.5399   1.5409   1.5409
     1.5568   1.5568   1.5568   1.5568   1.5818   1.5818   1.5820   1.5821
     1.5871   1.5871   1.5884   1.5884   1.5941   1.5941   1.5941   1.5941
     1.6610   1.6610   1.6610   1.6610   1.6635   1.6635   1.6635   1.6635
     1.6676   1.6677   1.6682   1.6686   1.6762   1.6762   1.6764   1.6766
     1.6834   1.6835   1.6836   1.6837   1.6937   1.6937   1.6938   1.6939
     1.6989   1.6989   1.6992   1.6992   1.7089   1.7089   1.7091   1.7091
     1.7229   1.7230   1.7230   1.7230   1.7529   1.7529   1.7529   1.7529
     1.7665   1.7665   1.7671   1.7671   1.7849   1.7849   1.7849   1.7850
     1.8060   1.8061   1.8061   1.8061   1.8554   1.8555   1.8556   1.8557
     1.8805   1.8805   1.8805   1.8805   1.9037   1.9038   1.9038   1.9038
     1.9118   1.9119   1.9119   1.9120   1.9232   1.9232   1.9232   1.9232
     2.1381   2.1381   2.1382   2.1382   2.6167   2.6168   2.6176   2.6177
     2.8612   2.8612   2.8621   2.8622   3.0850   3.0850   3.0851   3.0851
     3.3599   3.3599   3.3600   3.3600   3.7567   3.7567   3.7568   3.7568
     3.9442   3.9442   3.9447   3.9447   4.2339   4.2339   4.2339   4.2339
     4.5333   4.5333   4.5334   4.5334   4.5625   4.5625   4.5637   4.5639
[...]
     atom   10 type  1   force =     0.00001271    0.00001610    0.00076706
     atom   11 type  1   force =     0.00000000   -0.00001606    0.00074336
     atom   12 type  1   force =    -0.00001271    0.00001610    0.00076706
     atom   13 type  1   force =     0.00000000    0.00001551    0.00082523
     atom   14 type  1   force =     0.00000205   -0.00000861    0.00085762
     atom   15 type  1   force =     0.00000000    0.00001641    0.00087604
     atom   16 type  1   force =    -0.00000205   -0.00000861    0.00085762
     atom   17 type  1   force =     0.00000000   -0.00001369    0.00078395
     atom   18 type  1   force =     0.00000185    0.00000239    0.00072628
     atom   19 type  1   force =     0.00000000   -0.00002068    0.00078092
     atom   20 type  1   force =    -0.00000185    0.00000239    0.00072628
     atom   21 type  1   force =     0.00000000   -0.00001695   -0.00028950
     atom   22 type  1   force =     0.00003514    0.00000327   -0.00028735
     atom   23 type  1   force =     0.00000000   -0.00000407   -0.00021410
     atom   24 type  1   force =    -0.00003514    0.00000327   -0.00028735
     atom   25 type  1   force =     0.00000000    0.00002056   -0.00029671
     atom   26 type  1   force =     0.00002864   -0.00000201   -0.00024877
     atom   27 type  1   force =     0.00000000    0.00000096   -0.00023033
     atom   28 type  1   force =    -0.00002864   -0.00000201   -0.00024877
     atom   29 type  1   force =     0.00000000    0.00001266   -0.00023809
     atom   30 type  1   force =     0.00002929    0.00001635   -0.00029293
     atom   31 type  1   force =     0.00000000   -0.00001819   -0.00030712
     atom   32 type  1   force =    -0.00002929    0.00001635   -0.00029293
     atom   33 type  1   force =     0.00000000   -0.00000526   -0.00021147
     atom   34 type  1   force =     0.00000654   -0.00000589   -0.00025351
     atom   35 type  1   force =     0.00000000   -0.00002361   -0.00028523
     atom   36 type  1   force =    -0.00000654   -0.00000589   -0.00025351
     atom   37 type  1   force =     0.00000000   -0.00001248   -0.00029022
     atom   38 type  1   force =    -0.00001872   -0.00000965   -0.00027075
     atom   39 type  1   force =     0.00000000    0.00004368   -0.00029577
     atom   40 type  1   force =     0.00001872   -0.00000965   -0.00027075
     atom   41 type  1   force =     0.00000000    0.00020393    0.00051279
     atom   42 type  1   force =     0.00000282    0.00011108    0.00075993
     atom   43 type  1   force =     0.00000000    0.00011792    0.00072134
     atom   44 type  1   force =    -0.00000282    0.00011108    0.00075993
     atom   45 type  1   force =     0.00000000   -0.00011342    0.00077229
     atom   46 type  1   force =     0.00002280   -0.00017012    0.00066700
     atom   47 type  1   force =     0.00000000   -0.00005803    0.00072074
     atom   48 type  1   force =    -0.00002280   -0.00017012    0.00066700
     atom   49 type  1   force =     0.00000000   -0.00005624    0.00053669
     atom   50 type  1   force =     0.00001705    0.00015586    0.00062066
     atom   51 type  1   force =     0.00000000    0.00001262    0.00059629
     atom   52 type  1   force =    -0.00001705    0.00015586    0.00062066
     atom   53 type  1   force =     0.00000000    0.00008270    0.00074875
     atom   54 type  1   force =     0.00003553   -0.00007355    0.00078980
     atom   55 type  1   force =     0.00000000    0.00016034    0.00071851
     atom   56 type  1   force =    -0.00003553   -0.00007355    0.00078980
     atom   57 type  1   force =     0.00000000   -0.00012350    0.00075284
     atom   58 type  1   force =     0.00001077   -0.00002416    0.00055150
     atom   59 type  1   force =     0.00000000   -0.00022704    0.00056665
     atom   60 type  1   force =    -0.00001077   -0.00002416    0.00055150
     atom   61 type  1   force =     0.00000000   -0.00003870    0.00032721
     atom   62 type  1   force =     0.00005898   -0.00001191    0.00008279
     atom   63 type  1   force =     0.00000000    0.00001814   -0.00000099
     atom   64 type  1   force =    -0.00005898   -0.00001191    0.00008279
     atom   65 type  1   force =     0.00000000    0.00010029    0.00011483
     atom   66 type  1   force =    -0.00003432    0.00000122    0.00026277
     atom   67 type  1   force =     0.00000000   -0.00009861   -0.00000317
     atom   68 type  1   force =     0.00003432    0.00000122    0.00026277
     atom   69 type  1   force =     0.00000000    0.00015617   -0.00002257
     atom   70 type  1   force =     0.00003347    0.00002059    0.00000508
     atom   71 type  1   force =     0.00000000   -0.00012687    0.00002134
     atom   72 type  1   force =    -0.00003347    0.00002059    0.00000508
     atom   73 type  1   force =     0.00000000   -0.00001542   -0.00001954
     atom   74 type  1   force =     0.00004494   -0.00001874    0.00022724
     atom   75 type  1   force =     0.00000000   -0.00000180    0.00038671
     atom   76 type  1   force =    -0.00004494   -0.00001874    0.00022724
     atom   77 type  1   force =     0.00000000   -0.00019582   -0.00005910
     atom   78 type  1   force =    -0.00002267    0.00000842    0.00013142
     atom   79 type  1   force =     0.00000000    0.00020610   -0.00006399
     atom   80 type  1   force =     0.00002267    0.00000842    0.00013142
     atom   81 type  1   force =     0.00000000   -0.00020063   -0.00094343
     atom   82 type  1   force =     0.00017713    0.00005622   -0.00086346
     atom   83 type  1   force =     0.00000000    0.00037173   -0.00075106
     atom   84 type  1   force =    -0.00017713    0.00005622   -0.00086346
     atom   85 type  1   force =     0.00000000    0.00004251   -0.00111255
     atom   86 type  1   force =     0.00015390   -0.00006778   -0.00084884
     atom   87 type  1   force =     0.00000000   -0.00013093   -0.00062288
     atom   88 type  1   force =    -0.00015390   -0.00006778   -0.00084884
     atom   89 type  1   force =     0.00000000    0.00026483   -0.00076939
     atom   90 type  1   force =    -0.00010674    0.00005346   -0.00084468
     atom   91 type  1   force =     0.00000000   -0.00030215   -0.00074568
     atom   92 type  1   force =     0.00010674    0.00005346   -0.00084468
     atom   93 type  1   force =     0.00000000    0.00024348   -0.00065625
     atom   94 type  1   force =    -0.00017079   -0.00003528   -0.00084123
     atom   95 type  1   force =     0.00000000   -0.00011225   -0.00112520
     atom   96 type  1   force =     0.00017079   -0.00003528   -0.00084123
     atom   97 type  1   force =     0.00000000   -0.00035211   -0.00071668
     atom   98 type  1   force =    -0.00002541   -0.00000803   -0.00078891
     atom   99 type  1   force =     0.00000000    0.00017669   -0.00101319
     atom  100 type  1   force =     0.00002541   -0.00000803   -0.00078891
     atom  101 type  2   force =     0.00000000   -0.00026016    0.00151999
     atom  102 type  2   force =     0.00000000    0.00133518   -0.00175504
     atom  103 type  2   force =     0.00058133   -0.00082031   -0.00146339
     atom  104 type  2   force =    -0.00009551   -0.00083766   -0.00040558
     atom  105 type  2   force =    -0.00056156    0.00054357   -0.00114823
     atom  106 type  2   force =     0.00026507   -0.00007619    0.00039398
     atom  107 type  2   force =     0.00000000   -0.00127621    0.00267531
     atom  108 type  2   force =     0.00000000    0.00018095    0.00051269
     atom  109 type  2   force =     0.00056156    0.00054357   -0.00114823
     atom  110 type  2   force =    -0.00026507   -0.00007619    0.00039398
     atom  111 type  2   force =    -0.00058133   -0.00082031   -0.00146339
     atom  112 type  2   force =     0.00009551   -0.00083766   -0.00040558
     atom  113 type  2   force =     0.00000000   -0.00008647   -0.00271013
     atom  114 type  2   force =     0.00000000   -0.00125676    0.00259601
     atom  115 type  2   force =    -0.00040901    0.00030490    0.00034133
     atom  116 type  2   force =     0.00071640    0.00162109   -0.00160231
     atom  117 type  2   force =     0.00063983    0.00110701    0.00097876
     atom  118 type  2   force =    -0.00071448   -0.00152848   -0.00155183
     atom  119 type  2   force =     0.00000000   -0.00061010   -0.00114699
     atom  120 type  2   force =     0.00000000    0.00160863    0.00280536
     atom  121 type  2   force =    -0.00063983    0.00110701    0.00097876
     atom  122 type  2   force =     0.00071448   -0.00152848   -0.00155183
     atom  123 type  2   force =     0.00040901    0.00030490    0.00034133
     atom  124 type  2   force =    -0.00071640    0.00162109   -0.00160231
     atom  125 type  2   force =     0.00000000    0.00091497   -0.00191418
     atom  126 type  2   force =     0.00000000   -0.00024359    0.00126730
     atom  127 type  2   force =    -0.00076454   -0.00148826    0.00115179
     atom  128 type  2   force =    -0.00003848   -0.00019929    0.00000317
     atom  129 type  2   force =     0.00055313    0.00020648    0.00069981
     atom  130 type  2   force =    -0.00008193    0.00069815   -0.00073247
     atom  131 type  2   force =     0.00000000   -0.00053684   -0.00300807
     atom  132 type  2   force =     0.00000000   -0.00157054   -0.00104387
     atom  133 type  2   force =    -0.00055313    0.00020648    0.00069981
     atom  134 type  2   force =     0.00008193    0.00069815   -0.00073247
     atom  135 type  2   force =     0.00076454   -0.00148826    0.00115179
     atom  136 type  2   force =     0.00003848   -0.00019929    0.00000317
     atom  137 type  2   force =     0.00000000    0.00087762    0.00237080
     atom  138 type  2   force =     0.00000000   -0.00125774   -0.00296546
     atom  139 type  2   force =     0.00040181   -0.00007094   -0.00080751
     atom  140 type  2   force =    -0.00084489    0.00150217    0.00125572
     atom  141 type  2   force =    -0.00044404    0.00022822   -0.00127631
     atom  142 type  2   force =     0.00079128   -0.00119018    0.00117452
     atom  143 type  2   force =     0.00000000    0.00097218    0.00068591
     atom  144 type  2   force =     0.00000000    0.00120881   -0.00317652
     atom  145 type  2   force =     0.00044404    0.00022822   -0.00127631
     atom  146 type  2   force =    -0.00079128   -0.00119018    0.00117452
     atom  147 type  2   force =    -0.00040181   -0.00007094   -0.00080751
     atom  148 type  2   force =     0.00084489    0.00150217    0.00125572

     Total force =     0.014364     Total SCF correction =     0.000196

     number of scf cycles    =  15
     number of bfgs steps    =  14

     energy   old            =  -12698.8901310936 Ry
     energy   new            =  -12698.8903386302 Ry

     CASE: energy  _new < energy  _old

     new trust radius        =       0.0186745009 bohr
     new conv_thr            =       0.0000000100 Ry


ATOMIC_POSITIONS (angstrom)
Cu       0.000000000   0.000255694   7.342970818
Cu       1.844376908   1.704040663   7.344022349
Cu       3.689036991   0.000055414   7.343024951
Cu       5.533697075   1.704040663   7.344022349
Cu       0.000000000   3.407734572   7.344496794
Cu       1.844439737   5.111506238   7.343402314
Cu       3.689036991   3.407788590   7.344047493
Cu       5.533634246   5.111506238   7.343402314
Cu       0.000000000   6.815488570   7.342590390
Cu       1.844488632   8.519616344   7.342996879
Cu       3.689036991   6.815502811   7.342569929
Cu       5.533585351   8.519616344   7.342996879
Cu       0.000000000  10.223332755   7.343844931
Cu       1.844562924  11.927207963   7.344272991
Cu       3.689036991  10.223663247   7.344018680
Cu       5.533511059  11.927207963   7.344272991
Cu       0.000000000  13.631058157   7.343370564
Cu       1.844483758  15.334963773   7.342646031
Cu       3.689036991  13.630847969   7.343408994
Cu       5.533590225  15.334963773   7.342646031
Cu       0.000000000   1.702498035   9.180821998
Cu       1.844354592  -0.001272977   9.179391492
Cu       3.689036991   1.703198977   9.180038727
Cu       5.533719391  -0.001272977   9.179391492
Cu       0.000000000   5.113307192   9.179712945
Cu       1.844512836   3.408338935   9.180594687
Cu       3.689036991   5.112743315   9.179675755
Cu       5.533561147   3.408338935   9.180594687
Cu       0.000000000   8.518316940   9.179396106
Cu       1.844396539   6.815787009   9.178921912
Cu       3.689036991   8.518113746   9.179284032
Cu       5.533677444   6.815787009   9.178921912
Cu       0.000000000  11.927691517   9.180133355
Cu       1.844438850  10.222307769   9.180431955
Cu       3.689036991  11.928149045   9.181212188
Cu       5.533635133  10.222307769   9.180431955
Cu       0.000000000  15.335538844   9.178945735
Cu       1.844583800  13.632698926   9.179691869
Cu       3.689036991  15.335113619   9.178822772
Cu       5.533490183  13.632698926   9.179691869
Cu       0.000000000  -0.003233730  11.024135181
Cu       1.845037723   1.701425955  11.020554913
Cu       3.689036991  -0.002896613  11.022654046
Cu       5.533036260   1.701425955  11.020554913
Cu       0.000000000   3.409484189  11.018854231
Cu       1.845038681   5.115071001  11.022272747
Cu       3.689036991   3.408991484  11.021851851
Cu       5.533035302   5.115071001  11.022272747
Cu       0.000000000   6.816067996  11.024712867
Cu       1.843912030   8.516393204  11.023156777
Cu       3.689036991   6.816294203  11.024197265
Cu       5.534161953   8.516393204  11.023156777
Cu       0.000000000  10.221285623  11.021733496
Cu       1.843904386  11.928727882  11.019999898
Cu       3.689036991  10.220458711  11.019909880
Cu       5.534169597  11.928727882  11.019999898
Cu       0.000000000  13.634288118  11.022109618
Cu       1.844335456  15.335713945  11.024345483
Cu       3.689036991  13.634989238  11.022929271
Cu       5.533738527  15.335713945  11.024345483
Cu       0.000000000   1.705902047  12.865873623
Cu       1.844617205  -0.000597591  12.874545597
Cu       3.689036991   1.700813395  12.871260285
Cu       5.533456778  -0.000597591  12.874545597
Cu       0.000000000   5.109586581  12.870849277
Cu       1.846933755   3.408107897  12.866446425
Cu       3.689036991   5.114698353  12.875149470
Cu       5.531140228   3.408107897  12.866446425
Cu       0.000000000   8.517357129  12.876968367
Cu       1.844416226   6.815628722  12.877443681
Cu       3.689036991   8.520798505  12.873648437
Cu       5.533657757   6.815628722  12.877443681
Cu       0.000000000  11.929128989  12.870000213
Cu       1.842494999  10.222789279  12.867769114
Cu       3.689036991  11.926149057  12.864418598
Cu       5.535578984  10.222789279  12.867769114
Cu       0.000000000  15.335350948  12.878706157
Cu       1.843868082  13.631932710  12.872241105
Cu       3.689036991  15.334852653  12.877979409
Cu       5.534205901  13.631932710  12.872241105
Cu       0.000000000   0.008018416  14.693507368
Cu       1.844563221   1.707415803  14.690209668
Cu       3.689036991  -0.000327770  14.703060029
Cu       5.533510762   1.707415803  14.690209668
Cu       0.000000000   3.407374676  14.690834258
Cu       1.848925901   5.107057232  14.694407265
Cu       3.689036991   3.404069375  14.692285253
Cu       5.529148082   5.107057232  14.694407265
Cu       0.000000000   6.805686682  14.698127820
Cu       1.839445902   8.523459258  14.696224477
Cu       3.689036991   6.823640331  14.700736460
Cu       5.538628081   8.523459258  14.696224477
Cu       0.000000000  10.229421694  14.695082027
Cu       1.846392941  11.925353855  14.688635199
Cu       3.689036991  10.224870794  14.691028886
Cu       5.531681042  11.925353855  14.688635199
Cu       0.000000000  13.627420028  14.701498480
Cu       1.843018144  15.334038798  14.697947394
Cu       3.689036991  13.625530500  14.692115786
Cu       5.535055839  15.334038798  14.697947394
C        0.000000000   0.709893528  17.636847498
C        0.000000000   2.129818457  17.649312554
C        1.229439995   0.000120863  17.631665831
C        1.228203933   2.839508874  17.637280178
C        2.458105881   0.709869326  17.618549836
C        2.457996604   2.130349055  17.614159119
C        3.689036991  -0.000059400  17.604639583
C        3.689036991   2.839495002  17.602537750
C        4.919968101   0.709869326  17.618549836
C        4.920077378   2.130349055  17.614159119
C        6.148633988   0.000120863  17.631665831
C        6.149870050   2.839508874  17.637280178
C        0.000000000   4.969797724  17.643126023
C        0.000000000   6.389543510  17.622387139
C        1.228112047   4.259722716  17.633318916
C        1.230175228   7.099696678  17.625556784
C        2.458384098   4.969475196  17.614312945
C        2.458548975   6.389448015  17.622822772
C        3.689036991   4.260276489  17.608739682
C        3.689036991   7.099649569  17.615420507
C        4.919689884   4.969475196  17.614312945
C        4.919525007   6.389448015  17.622822772
C        6.149961936   4.259722716  17.633318916
C        6.147898755   7.099696678  17.625556784
C        0.000000000   9.228846909  17.612900719
C        0.000000000  10.649528903  17.600894924
C        1.230311014   8.519498422  17.615415153
C        1.231106300  11.358803861  17.614769953
C        2.460771580   9.229591173  17.630090337
C        2.460620151  10.649721133  17.637428572
C        3.689036991   8.519427890  17.638362251
C        3.689036991  11.359276204  17.649501072
C        4.917302402   9.229591173  17.630090337
C        4.917453831  10.649721133  17.637428572
C        6.147762969   8.519498422  17.615415153
C        6.146967683  11.358803861  17.614769953
C        0.000000000  13.489159622  17.601666072
C        0.000000000  14.909495043  17.622487641
C        1.231051333  12.779454281  17.616953399
C        1.229412556  15.619260877  17.619946113
C        2.459974520  13.488886019  17.634380449
C        2.460086605  14.908776226  17.623107887
C        3.689036991  12.779283036  17.642951048
C        3.689036991  15.618750280  17.627754870
C        4.918099462  13.488886019  17.634380449
C        4.917987377  14.908776226  17.623107887
C        6.147022650  12.779454281  17.616953399
C        6.148661427  15.619260877  17.619946113



     Writing output data file gc.save
     Check: negative starting charge=   -0.001862
     NEW-OLD atomic charge density approx. for the potential
     Check: negative starting charge=   -0.001859

     negative rho (up, down):  1.993E-03 0.000E+00

     total cpu time spent up to now is    74412.8 secs

     Self-consistent Calculation

     iteration #  1     ecut=    80.00 Ry     beta=0.70
     Davidson diagonalization with overlap
     ethr =  1.00E-06,  avg # of iterations =  4.7

     negative rho (up, down):  9.577E-04 0.000E+00

     total cpu time spent up to now is    75178.2 secs

     total energy              =  -12698.88889501 Ry
     Harris-Foulkes estimate   =  -12698.89542466 Ry
     estimated scf accuracy    <       0.08669574 Ry

     iteration #  2     ecut=    80.00 Ry     beta=0.70
     Davidson diagonalization with overlap
     ethr =  6.71E-06,  avg # of iterations =  1.0

     negative rho (up, down):  7.130E-04 0.000E+00

     total cpu time spent up to now is    75432.0 secs

     total energy              =  -12698.88916075 Ry
     Harris-Foulkes estimate   =  -12698.89266943 Ry
     estimated scf accuracy    <       0.01978112 Ry

     iteration #  3     ecut=    80.00 Ry     beta=0.70
     Davidson diagonalization with overlap
     ethr =  1.53E-06,  avg # of iterations =  3.0

     negative rho (up, down):  4.789E-04 0.000E+00

     total cpu time spent up to now is    75711.7 secs

     total energy              =  -12698.88973136 Ry
     Harris-Foulkes estimate   =  -12698.89159824 Ry
     estimated scf accuracy    <       0.02094910 Ry

     iteration #  4     ecut=    80.00 Ry     beta=0.70
     Davidson diagonalization with overlap
