mpirun: INFO: switching to OpenMPI runtime version 1.10.2

     Program PWSCF v.5.4.0 starts on 10May2017 at 15:21:12 

     This program is part of the open-source Quantum ESPRESSO suite
     for quantum simulation of materials; please cite
         "P. Giannozzi et al., J. Phys.:Condens. Matter 21 395502 (2009);
          URL http://www.quantum-espresso.org", 
     in publications or presentations arising from this work. More details at
     http://www.quantum-espresso.org/quote

     Parallel version (MPI & OpenMP), running on      28 processor cores
     Number of MPI processes:                28
     Threads/MPI process:                     1
     R & G space division:  proc/nbgrp/npool/nimage =      28
     Waiting for input...
     Reading input from standard input

     Current dimensions of program PWSCF are:
     Max number of different atomic species (ntypx) = 10
     Max number of k-points (npk) =  40000
     Max angular momentum in pseudopotentials (lmaxx) =  3

     -------------------------------------
     Parameters for Dispersion Correction:
     -------------------------------------
       atom      VdW radius       C_6     

        Cu         2.952        374.666
        C          2.744         60.710
        H          1.892          4.857

     Subspace diagonalization in iterative solution of the eigenvalue problem:
     one sub-group per band group will be used
     scalapack distributed-memory algorithm (size of sub-group:  3*  3 procs)

 
     Parallelization info
     --------------------
     sticks:   dense  smooth     PW     G-vecs:    dense   smooth      PW
     Min         408     408    108                73226    73226    9928
     Max         410     410    109                73231    73231    9931
     Sum       11433   11433   3039              2050409  2050409  278033
 


     bravais-lattice index     =            0
     lattice parameter (alat)  =      13.9425  a.u.
     unit-cell volume          =   21209.0878 (a.u.)^3
     number of atoms/cell      =          149
     number of atomic types    =            3
     number of electrons       =      1293.00
     number of Kohn-Sham states=          776
     kinetic-energy cutoff     =      80.0000  Ry
     charge density cutoff     =     320.0000  Ry
     convergence threshold     =      1.0E-08
     mixing beta               =       0.7000
     number of iterations used =            8  local-TF  mixing
     Exchange-correlation      =  SLA  PW   PBE  PBE ( 1  4  3  4 0 0)
     nstep                     =           50


     celldm(1)=  13.942539  celldm(2)=   0.000000  celldm(3)=   0.000000
     celldm(4)=   0.000000  celldm(5)=   0.000000  celldm(6)=   0.000000

     crystal axes: (cart. coord. in units of alat)
               a(1) = (   1.000000   0.000000   0.000000 )  
               a(2) = (   0.000000   2.309401   0.000000 )  
               a(3) = (   0.000000   0.000000   3.388418 )  

     reciprocal axes: (cart. coord. in units 2 pi/alat)
               b(1) = (  1.000000  0.000000  0.000000 )  
               b(2) = (  0.000000  0.433013  0.000000 )  
               b(3) = (  0.000000  0.000000  0.295123 )  


     PseudoPot. # 1 for Cu read from file:
     /home/549/hxw549/Short/pseudopotentials/Cu.pbe-n-van_ak.UPF
     MD5 check sum: 601f7c30f7467666bec936e0661ce3e1
     Pseudo is Ultrasoft + core correction, Zval = 11.0
     Generated by new atomic code, or converted to UPF format
     Using radial grid of  867 points,  6 beta functions with: 
                l(1) =   0
                l(2) =   0
                l(3) =   1
                l(4) =   1
                l(5) =   2
                l(6) =   2
     Q(r) pseudized with  8 coefficients,  rinner =    1.400   1.400   1.400
                                                       1.400   1.400

     PseudoPot. # 2 for C  read from file:
     /home/549/hxw549/Short/pseudopotentials/C.pbe-mt_gipaw.UPF
     MD5 check sum: 5ac2f21f2c440b14befe521540822c15
     Pseudo is Norm-conserving, Zval =  4.0
     Generated by new atomic code, or converted to UPF format
     Using radial grid of 1073 points,  1 beta functions with: 
                l(1) =   0

     PseudoPot. # 3 for H  read from file:
     /home/549/hxw549/Short/pseudopotentials/H.pbe-van_ak.UPF
     MD5 check sum: 077eb6d537518a38cb46c6de387227b7
     Pseudo is Ultrasoft, Zval =  1.0
     Generated by new atomic code, or converted to UPF format
     Using radial grid of  615 points,  1 beta functions with: 
                l(1) =   0
     Q(r) pseudized with  8 coefficients,  rinner =    0.800

     atomic species   valence    mass     pseudopotential
        Cu            11.00    63.54600     Cu( 1.00)
        C              4.00    12.01070     C ( 1.00)
        H              1.00     1.00783     H ( 1.00)

     No symmetry found



   Cartesian axes

     site n.     atom                  positions (alat units)
         1           Cu  tau(   1) = (  -0.0000210   0.0002166   0.9981343  )
         2           Cu  tau(   2) = (   0.2500000   0.2312092   0.9981660  )
         3           Cu  tau(   3) = (   0.4999907   0.0002218   0.9981472  )
         4           Cu  tau(   4) = (   0.7499920   0.2312002   0.9981379  )
         5           Cu  tau(   5) = (   0.0000148   0.4619918   0.9980409  )
         6           Cu  tau(   6) = (   0.2499936   0.6927738   0.9977078  )
         7           Cu  tau(   7) = (   0.5000011   0.4619896   0.9979298  )
         8           Cu  tau(   8) = (   0.7500399   0.6927722   0.9976945  )
         9           Cu  tau(   9) = (   0.0000277   0.9236657   0.9975770  )
        10           Cu  tau(  10) = (   0.2500244   1.1545552   0.9977396  )
        11           Cu  tau(  11) = (   0.5000101   0.9236403   0.9975482  )
        12           Cu  tau(  12) = (   0.7500064   1.1545485   0.9977229  )
        13           Cu  tau(  13) = (  -0.0000031   1.3853540   0.9980454  )
        14           Cu  tau(  14) = (   0.2500048   1.6161301   0.9982977  )
        15           Cu  tau(  15) = (   0.5000130   1.3853702   0.9980884  )
        16           Cu  tau(  16) = (   0.7499797   1.6161832   0.9982538  )
        17           Cu  tau(  17) = (   0.0000115   1.8471506   0.9982398  )
        18           Cu  tau(  18) = (   0.2499646   2.0784091   0.9981440  )
        19           Cu  tau(  19) = (   0.4999532   1.8471476   0.9982261  )
        20           Cu  tau(  20) = (   0.7499943   2.0783707   0.9981112  )
        21           Cu  tau(  21) = (   0.0000292   0.2313080   1.2466294  )
        22           Cu  tau(  22) = (   0.2500260   0.0001949   1.2463621  )
        23           Cu  tau(  23) = (   0.5000433   0.2314365   1.2466503  )
        24           Cu  tau(  24) = (   0.7500048   0.0001993   1.2463545  )
        25           Cu  tau(  25) = (   0.0000799   0.6931624   1.2464502  )
        26           Cu  tau(  26) = (   0.2500709   0.4623790   1.2466773  )
        27           Cu  tau(  27) = (   0.5000716   0.6930826   1.2463422  )
        28           Cu  tau(  28) = (   0.7500451   0.4623782   1.2466284  )
        29           Cu  tau(  29) = (   0.0000691   1.1542286   1.2463475  )
        30           Cu  tau(  30) = (   0.2500857   0.9236632   1.2462314  )
        31           Cu  tau(  31) = (   0.5000792   1.1541654   1.2463729  )
        32           Cu  tau(  32) = (   0.7500650   0.9236565   1.2461748  )
        33           Cu  tau(  33) = (   0.0000318   1.6159096   1.2467097  )
        34           Cu  tau(  34) = (   0.2500870   1.3849148   1.2467257  )
        35           Cu  tau(  35) = (   0.5000338   1.6159170   1.2468461  )
        36           Cu  tau(  36) = (   0.7500262   1.3849200   1.2466971  )
        37           Cu  tau(  37) = (   0.0000047   2.0783865   1.2462344  )
        38           Cu  tau(  38) = (   0.2500187   1.8471402   1.2464598  )
        39           Cu  tau(  39) = (   0.5000062   2.0783690   1.2461905  )
        40           Cu  tau(  40) = (   0.7500057   1.8471302   1.2464459  )
        41           Cu  tau(  41) = (   0.0000752  -0.0000856   1.4957536  )
        42           Cu  tau(  42) = (   0.2502021   0.2313155   1.4959723  )
        43           Cu  tau(  43) = (   0.5000854  -0.0000535   1.4956253  )
        44           Cu  tau(  44) = (   0.7500217   0.2313717   1.4959997  )
        45           Cu  tau(  45) = (   0.0001206   0.4626798   1.4961764  )
        46           Cu  tau(  46) = (   0.2502582   0.6936653   1.4966132  )
        47           Cu  tau(  47) = (   0.5001661   0.4629301   1.4965567  )
        48           Cu  tau(  48) = (   0.7501171   0.6936831   1.4966109  )
        49           Cu  tau(  49) = (   0.0001306   0.9239228   1.4966673  )
        50           Cu  tau(  50) = (   0.2502183   1.1537256   1.4966590  )
        51           Cu  tau(  51) = (   0.5002226   0.9236211   1.4967682  )
        52           Cu  tau(  52) = (   0.7501511   1.1536691   1.4966893  )
        53           Cu  tau(  53) = (   0.0001562   1.3844194   1.4964821  )
        54           Cu  tau(  54) = (   0.2501351   1.6157759   1.4961225  )
        55           Cu  tau(  55) = (   0.5001636   1.3841681   1.4966733  )
        56           Cu  tau(  56) = (   0.7501045   1.6157465   1.4961142  )
        57           Cu  tau(  57) = (   0.0000678   1.8472140   1.4957035  )
        58           Cu  tau(  58) = (   0.2500517   2.0783732   1.4956623  )
        59           Cu  tau(  59) = (   0.5000925   1.8474224   1.4957911  )
        60           Cu  tau(  60) = (   0.7500790   2.0783710   1.4956269  )
        61           Cu  tau(  61) = (   0.0001623   0.2310200   1.7442551  )
        62           Cu  tau(  62) = (   0.2502685  -0.0002910   1.7450262  )
        63           Cu  tau(  63) = (   0.5001919   0.2306187   1.7448638  )
        64           Cu  tau(  64) = (   0.7500487  -0.0002935   1.7449581  )
        65           Cu  tau(  65) = (   0.0003230   0.6935600   1.7461429  )
        66           Cu  tau(  66) = (   0.2507810   0.4628074   1.7453936  )
        67           Cu  tau(  67) = (   0.5002764   0.6943028   1.7479470  )
        68           Cu  tau(  68) = (   0.7496128   0.4627457   1.7453798  )
        69           Cu  tau(  69) = (   0.0002610   1.1537683   1.7476718  )
        70           Cu  tau(  70) = (   0.2506433   0.9237811   1.7478044  )
        71           Cu  tau(  71) = (   0.5003254   1.1528437   1.7478837  )
        72           Cu  tau(  72) = (   0.7499707   0.9238116   1.7482633  )
        73           Cu  tau(  73) = (   0.0002166   1.6161197   1.7449318  )
        74           Cu  tau(  74) = (   0.2501472   1.3841403   1.7459016  )
        75           Cu  tau(  75) = (   0.5002480   1.6161527   1.7443092  )
        76           Cu  tau(  76) = (   0.7504048   1.3841794   1.7458029  )
        77           Cu  tau(  77) = (   0.0001609   2.0781351   1.7452823  )
        78           Cu  tau(  78) = (   0.2500117   1.8475119   1.7448427  )
        79           Cu  tau(  79) = (   0.5001409   2.0785860   1.7453688  )
        80           Cu  tau(  80) = (   0.7503422   1.8475228   1.7448226  )
        81           Cu  tau(  81) = (   0.0002390   0.0002515   1.9906064  )
        82           Cu  tau(  82) = (   0.2500237   0.2307340   1.9902789  )
        83           Cu  tau(  83) = (   0.5001529  -0.0000176   1.9924951  )
        84           Cu  tau(  84) = (   0.7503637   0.2307540   1.9902367  )
        85           Cu  tau(  85) = (   0.0002422   0.4617923   1.9888877  )
        86           Cu  tau(  86) = (   0.2528052   0.6926615   1.9955322  )
        87           Cu  tau(  87) = (   0.5001743   0.4596364   1.9920408  )
        88           Cu  tau(  88) = (   0.7482722   0.6919930   1.9934530  )
        89           Cu  tau(  89) = (   0.0009221   0.9218285   1.9939666  )
        90           Cu  tau(  90) = (   0.2504701   1.1542540   1.9954981  )
        91           Cu  tau(  91) = (   0.5002699   0.9246308   2.0011314  )
        92           Cu  tau(  92) = (   0.7502675   1.1549795   1.9949041  )
        93           Cu  tau(  93) = (   0.0004582   1.3861890   1.9924600  )
        94           Cu  tau(  94) = (   0.2499062   1.6165987   1.9900612  )
        95           Cu  tau(  95) = (   0.5002493   1.3863335   1.9902497  )
        96           Cu  tau(  96) = (   0.7507187   1.6164319   1.9899662  )
        97           Cu  tau(  97) = (   0.0001784   1.8473007   1.9921460  )
        98           Cu  tau(  98) = (   0.2502100   2.0781839   1.9915605  )
        99           Cu  tau(  99) = (   0.5003165   1.8467807   1.9903306  )
       100           Cu  tau( 100) = (   0.7502072   2.0783071   1.9914628  )
       101           C   tau( 101) = (  -0.0002386   0.0966478   2.3884296  )
       102           C   tau( 102) = (  -0.0004951   0.2886429   2.3853806  )
       103           C   tau( 103) = (   0.1663680   0.0004058   2.3886805  )
       104           C   tau( 104) = (   0.1663861   0.3844012   2.3801741  )
       105           C   tau( 105) = (   0.3329009   0.0965156   2.3864675  )
       106           C   tau( 106) = (   0.3332240   0.2884800   2.3824762  )
       107           C   tau( 107) = (   0.4997278   0.0002601   2.3855881  )
       108           C   tau( 108) = (   0.4994425   0.3851569   2.3781998  )
       109           C   tau( 109) = (   0.6664918   0.0966083   2.3855935  )
       110           C   tau( 110) = (   0.6668212   0.2888991   2.3819066  )
       111           C   tau( 111) = (   0.8330685   0.0005545   2.3881549  )
       112           C   tau( 112) = (   0.8334647   0.3853133   2.3818854  )
       113           C   tau( 113) = (   0.0001041   0.6735927   2.3783341  )
       114           C   tau( 114) = (   0.0001551   0.8668568   2.3701539  )
       115           C   tau( 115) = (   0.1668786   0.5764913   2.3779237  )
       116           C   tau( 116) = (   0.1637539   0.9639171   2.3859165  )
       117           C   tau( 117) = (   0.3325489   0.6708589   2.3863593  )
       118           C   tau( 118) = (   0.3267983   0.8629062   2.4526083  )
       119           C   tau( 119) = (   0.4993808   0.5774457   2.3804103  )
       120           C   tau( 120) = (   0.5062527   0.9654766   2.4553427  )
       121           H   tau( 121) = (   0.5265538   0.9741191   2.6017284  )
       122           C   tau( 122) = (   0.6668907   0.6750205   2.3796377  )
       123           C   tau( 123) = (   0.6694052   0.8654380   2.3871832  )
       124           C   tau( 124) = (   0.8338527   0.5777935   2.3771441  )
       125           C   tau( 125) = (   0.8326033   0.9621725   2.3740538  )
       126           C   tau( 126) = (  -0.0007108   1.2509811   2.3767759  )
       127           C   tau( 127) = (  -0.0003135   1.4439854   2.3777352  )
       128           C   tau( 128) = (   0.1660506   1.1547909   2.3802409  )
       129           C   tau( 129) = (   0.1665904   1.5401946   2.3803424  )
       130           C   tau( 130) = (   0.3343330   1.2511419   2.3848212  )
       131           C   tau( 131) = (   0.3336363   1.4442711   2.3812749  )
       132           C   tau( 132) = (   0.5006798   1.1590860   2.3941392  )
       133           C   tau( 133) = (   0.4995005   1.5405965   2.3845029  )
       134           C   tau( 134) = (   0.6656145   1.2522268   2.3824511  )
       135           C   tau( 135) = (   0.6662881   1.4449671   2.3803007  )
       136           C   tau( 136) = (   0.8332442   1.1557117   2.3807868  )
       137           C   tau( 137) = (   0.8330676   1.5405286   2.3801873  )
       138           C   tau( 138) = (  -0.0003586   1.8290628   2.3840846  )
       139           C   tau( 139) = (  -0.0003188   2.0214555   2.3876727  )
       140           C   tau( 140) = (   0.1666346   1.7326434   2.3842015  )
       141           C   tau( 141) = (   0.1662838   2.1174822   2.3880787  )
       142           C   tau( 142) = (   0.3330526   1.8290059   2.3877887  )
       143           C   tau( 143) = (   0.3330693   2.0213117   2.3882559  )
       144           C   tau( 144) = (   0.4996561   1.7328336   2.3874479  )
       145           C   tau( 145) = (   0.4996866   2.1173163   2.3884930  )
       146           C   tau( 146) = (   0.6663242   1.8289875   2.3874049  )
       147           C   tau( 147) = (   0.6662497   2.0213188   2.3879147  )
       148           C   tau( 148) = (   0.8328531   1.7326549   2.3839128  )
       149           C   tau( 149) = (   0.8330240   2.1175014   2.3877197  )

     number of k points=     6  gaussian smearing, width (Ry)=  0.1000
                       cart. coord. in units 2pi/alat
        k(    1) = (   0.0000000   0.0000000   0.0000000), wk =   0.2500000
        k(    2) = (   0.0000000  -0.2165064   0.0000000), wk =   0.2500000
        k(    3) = (   0.2500000   0.0000000   0.0000000), wk =   0.5000000
        k(    4) = (   0.2500000  -0.2165064   0.0000000), wk =   0.5000000
        k(    5) = (  -0.5000000   0.0000000   0.0000000), wk =   0.2500000
        k(    6) = (  -0.5000000  -0.2165064   0.0000000), wk =   0.2500000

     Dense  grid:  2050409 G-vectors     FFT dimensions: (  80, 192, 270)

     Largest allocated arrays     est. size (Mb)     dimensions
        Kohn-Sham Wavefunctions       108.59 Mb     (    9171,  776)
        NL pseudopotentials           258.75 Mb     (    9171, 1849)
        Each V/rho on FFT grid          2.34 Mb     (  153600)
        Each G-vector array             0.56 Mb     (   73230)
        G-vector shells                 0.27 Mb     (   35784)
     Largest temporary arrays     est. size (Mb)     dimensions
        Auxiliary wavefunctions       434.37 Mb     (    9171, 3104)
        Each subspace H/S matrix       16.31 Mb     (    1034, 1034)
        Each <psi_i|beta_j> matrix     21.89 Mb     (    1849,  776)
        Arrays for rho mixing          18.75 Mb     (  153600,    8)

     Initial potential from superposition of free atoms
     Check: negative starting charge=   -0.001834

     starting charge 1267.81750, renormalised to 1293.00000

     negative rho (up, down):  1.871E-03 0.000E+00
     Starting wfc are 1285 randomized atomic wfcs

     total cpu time spent up to now is      205.2 secs

     Self-consistent Calculation

     iteration #  1     ecut=    80.00 Ry     beta=0.70
     Davidson diagonalization with overlap
     c_bands:  1 eigenvalues not converged
     ethr =  1.00E-04,  avg # of iterations = 20.8

     negative rho (up, down):  2.724E+01 0.000E+00

     total cpu time spent up to now is     3805.0 secs

     total energy              =   -9415.74248995 Ry
     Harris-Foulkes estimate   =  -17093.27162389 Ry
     estimated scf accuracy    <  177893.71150578 Ry

     iteration #  2     ecut=    80.00 Ry     beta=0.70
     Davidson diagonalization with overlap
     ethr =  1.00E-02,  avg # of iterations = 11.8

     negative rho (up, down):  2.917E+01 0.000E+00

     total cpu time spent up to now is     5722.2 secs

     total energy              =  -12328.40842184 Ry
     Harris-Foulkes estimate   =  -13589.11192387 Ry
     estimated scf accuracy    <   17067.78312759 Ry

     iteration #  3     ecut=    80.00 Ry     beta=0.70
     Davidson diagonalization with overlap
     ethr =  1.00E-02,  avg # of iterations =  6.8

     negative rho (up, down):  3.116E+01 0.000E+00

     total cpu time spent up to now is     7047.5 secs

     total energy              =  -12477.74951725 Ry
     Harris-Foulkes estimate   =  -13314.03113654 Ry
     estimated scf accuracy    <    6070.99695753 Ry

     iteration #  4     ecut=    80.00 Ry     beta=0.70
     Davidson diagonalization with overlap
     ethr =  1.00E-02,  avg # of iterations =  5.2

     negative rho (up, down):  2.802E+01 0.000E+00

     total cpu time spent up to now is     8168.4 secs

     total energy              =  -12816.61554183 Ry
     Harris-Foulkes estimate   =  -13127.41905014 Ry
     estimated scf accuracy    <    6382.85390665 Ry

     iteration #  5     ecut=    80.00 Ry     beta=0.70
     Davidson diagonalization with overlap
     ethr =  1.00E-02,  avg # of iterations =  4.7

     negative rho (up, down):  1.934E+01 0.000E+00

     total cpu time spent up to now is     8931.1 secs

     total energy              =  -12841.81298996 Ry
     Harris-Foulkes estimate   =  -13019.64971796 Ry
     estimated scf accuracy    <     986.97117858 Ry

     iteration #  6     ecut=    80.00 Ry     beta=0.70
     Davidson diagonalization with overlap
     ethr =  1.00E-02,  avg # of iterations =  3.0

     negative rho (up, down):  1.142E+01 0.000E+00

     total cpu time spent up to now is     9404.6 secs

     total energy              =  -12828.22978743 Ry
     Harris-Foulkes estimate   =  -12901.22310139 Ry
     estimated scf accuracy    <     643.02776594 Ry

     iteration #  7     ecut=    80.00 Ry     beta=0.70
     Davidson diagonalization with overlap
     ethr =  1.00E-02,  avg # of iterations =  2.0

     negative rho (up, down):  8.390E+00 0.000E+00

     total cpu time spent up to now is     9762.2 secs

     total energy              =  -12806.69287355 Ry
     Harris-Foulkes estimate   =  -12840.22051916 Ry
     estimated scf accuracy    <     815.86267419 Ry

     iteration #  8     ecut=    80.00 Ry     beta=0.70
     Davidson diagonalization with overlap
     ethr =  1.00E-02,  avg # of iterations =  1.3

     negative rho (up, down):  3.894E+00 0.000E+00

     total cpu time spent up to now is    10093.8 secs

     total energy              =  -12764.46811423 Ry
     Harris-Foulkes estimate   =  -12811.54126484 Ry
     estimated scf accuracy    <     304.33157354 Ry

     iteration #  9     ecut=    80.00 Ry     beta=0.70
     Davidson diagonalization with overlap
     ethr =  1.00E-02,  avg # of iterations =  3.5

     negative rho (up, down):  1.858E+00 0.000E+00

     total cpu time spent up to now is    10474.7 secs

     total energy              =  -12754.02672952 Ry
     Harris-Foulkes estimate   =  -12783.07085842 Ry
     estimated scf accuracy    <    1025.39708529 Ry

     iteration # 10     ecut=    80.00 Ry     beta=0.70
     Davidson diagonalization with overlap
     ethr =  1.00E-02,  avg # of iterations =  1.3

     negative rho (up, down):  7.416E-01 0.000E+00

     total cpu time spent up to now is    10807.7 secs

     total energy              =  -12707.68622263 Ry
     Harris-Foulkes estimate   =  -12762.27912960 Ry
     estimated scf accuracy    <     663.77888910 Ry

     iteration # 11     ecut=    80.00 Ry     beta=0.70
     Davidson diagonalization with overlap
     ethr =  1.00E-02,  avg # of iterations =  3.2

     negative rho (up, down):  4.622E-01 0.000E+00

     total cpu time spent up to now is    11188.2 secs

     total energy              =  -12721.35363310 Ry
     Harris-Foulkes estimate   =  -12736.46964940 Ry
     estimated scf accuracy    <      94.23733808 Ry

     iteration # 12     ecut=    80.00 Ry     beta=0.70
     Davidson diagonalization with overlap
     ethr =  7.29E-03,  avg # of iterations =  2.0

     negative rho (up, down):  2.974E+00 0.000E+00

     total cpu time spent up to now is    11554.8 secs

     total energy              =  -12701.32382129 Ry
     Harris-Foulkes estimate   =  -12737.36522760 Ry
     estimated scf accuracy    <     211.93637771 Ry

     iteration # 13     ecut=    80.00 Ry     beta=0.70
     Davidson diagonalization with overlap
     ethr =  7.29E-03,  avg # of iterations =  2.0

     negative rho (up, down):  5.758E+00 0.000E+00

     total cpu time spent up to now is    11908.3 secs

     total energy              =  -12710.39406644 Ry
     Harris-Foulkes estimate   =  -12719.84576252 Ry
     estimated scf accuracy    <      94.29346818 Ry

     iteration # 14     ecut=    80.00 Ry     beta=0.70
     Davidson diagonalization with overlap
     ethr =  7.29E-03,  avg # of iterations =  1.2

     negative rho (up, down):  3.637E+00 0.000E+00

     total cpu time spent up to now is    12236.8 secs

     total energy              =  -12705.22318499 Ry
     Harris-Foulkes estimate   =  -12715.33076399 Ry
     estimated scf accuracy    <      97.98470594 Ry

     iteration # 15     ecut=    80.00 Ry     beta=0.70
     Davidson diagonalization with overlap
     ethr =  7.29E-03,  avg # of iterations =  1.0

     negative rho (up, down):  5.082E+00 0.000E+00

     total cpu time spent up to now is    12562.3 secs

     total energy              =  -12707.64659384 Ry
     Harris-Foulkes estimate   =  -12710.37048976 Ry
     estimated scf accuracy    <      38.12137763 Ry

     iteration # 16     ecut=    80.00 Ry     beta=0.70
     Davidson diagonalization with overlap
     ethr =  2.95E-03,  avg # of iterations =  2.3

     negative rho (up, down):  3.141E+00 0.000E+00

     total cpu time spent up to now is    12917.3 secs

     total energy              =  -12705.57949808 Ry
     Harris-Foulkes estimate   =  -12708.11951163 Ry
     estimated scf accuracy    <      23.74542889 Ry

     iteration # 17     ecut=    80.00 Ry     beta=0.70
     Davidson diagonalization with overlap
     ethr =  1.84E-03,  avg # of iterations =  5.7

     negative rho (up, down):  2.884E+00 0.000E+00

     total cpu time spent up to now is    13348.5 secs

     total energy              =  -12704.70351822 Ry
     Harris-Foulkes estimate   =  -12706.01034155 Ry
     estimated scf accuracy    <       8.95940340 Ry

     iteration # 18     ecut=    80.00 Ry     beta=0.70
     Davidson diagonalization with overlap
     ethr =  6.93E-04,  avg # of iterations =  9.5

     negative rho (up, down):  2.292E+00 0.000E+00

     total cpu time spent up to now is    13879.6 secs

     total energy              =  -12703.77514596 Ry
     Harris-Foulkes estimate   =  -12704.91261456 Ry
     estimated scf accuracy    <       7.44241107 Ry

     iteration # 19     ecut=    80.00 Ry     beta=0.70
     Davidson diagonalization with overlap
     ethr =  5.76E-04,  avg # of iterations =  1.3

     negative rho (up, down):  2.393E+00 0.000E+00

     total cpu time spent up to now is    14214.6 secs

     total energy              =  -12704.14423170 Ry
     Harris-Foulkes estimate   =  -12704.00396249 Ry
     estimated scf accuracy    <      12.24742505 Ry

     iteration # 20     ecut=    80.00 Ry     beta=0.70
     Davidson diagonalization with overlap
     ethr =  5.76E-04,  avg # of iterations =  1.0

     negative rho (up, down):  1.734E+00 0.000E+00

     total cpu time spent up to now is    14542.2 secs

     total energy              =  -12702.85901856 Ry
     Harris-Foulkes estimate   =  -12704.47943475 Ry
     estimated scf accuracy    <       6.13683793 Ry

     iteration # 21     ecut=    80.00 Ry     beta=0.70
     Davidson diagonalization with overlap
     ethr =  4.75E-04,  avg # of iterations =  1.0

     negative rho (up, down):  1.345E+00 0.000E+00

     total cpu time spent up to now is    14868.6 secs

     total energy              =  -12700.95806907 Ry
     Harris-Foulkes estimate   =  -12703.03979938 Ry
     estimated scf accuracy    <       7.41985352 Ry

     iteration # 22     ecut=    80.00 Ry     beta=0.70
     Davidson diagonalization with overlap
     ethr =  4.75E-04,  avg # of iterations =  5.7

     negative rho (up, down):  8.588E-01 0.000E+00

     total cpu time spent up to now is    15310.1 secs

     total energy              =  -12700.14142014 Ry
     Harris-Foulkes estimate   =  -12701.15699435 Ry
     estimated scf accuracy    <       7.74721000 Ry

     iteration # 23     ecut=    80.00 Ry     beta=0.70
     Davidson diagonalization with overlap
     ethr =  4.75E-04,  avg # of iterations =  4.3

     negative rho (up, down):  1.081E+00 0.000E+00

     total cpu time spent up to now is    15710.7 secs

     total energy              =  -12700.07752234 Ry
     Harris-Foulkes estimate   =  -12700.45620750 Ry
     estimated scf accuracy    <       1.66705426 Ry

     iteration # 24     ecut=    80.00 Ry     beta=0.70
     Davidson diagonalization with overlap
     ethr =  1.29E-04,  avg # of iterations =  8.0

     negative rho (up, down):  1.069E+00 0.000E+00

     total cpu time spent up to now is    16259.8 secs

     total energy              =  -12700.05906835 Ry
     Harris-Foulkes estimate   =  -12700.16704349 Ry
     estimated scf accuracy    <       0.71974383 Ry

     iteration # 25     ecut=    80.00 Ry     beta=0.70
     Davidson diagonalization with overlap
     ethr =  5.57E-05,  avg # of iterations =  7.8

     negative rho (up, down):  7.921E-01 0.000E+00

     total cpu time spent up to now is    16749.2 secs

     total energy              =  -12700.00172493 Ry
     Harris-Foulkes estimate   =  -12700.09907897 Ry
     estimated scf accuracy    <       0.47851575 Ry

     iteration # 26     ecut=    80.00 Ry     beta=0.70
     Davidson diagonalization with overlap
     ethr =  3.70E-05,  avg # of iterations =  6.3

     negative rho (up, down):  3.286E-01 0.000E+00

     total cpu time spent up to now is    17212.2 secs

     total energy              =  -12699.90817855 Ry
     Harris-Foulkes estimate   =  -12700.01699348 Ry
     estimated scf accuracy    <       0.41300796 Ry

     iteration # 27     ecut=    80.00 Ry     beta=0.70
     Davidson diagonalization with overlap
     ethr =  3.19E-05,  avg # of iterations = 10.0

     negative rho (up, down):  1.538E-01 0.000E+00

     total cpu time spent up to now is    17794.2 secs

     total energy              =  -12699.90864425 Ry
     Harris-Foulkes estimate   =  -12699.93319919 Ry
     estimated scf accuracy    <       0.12110759 Ry

     iteration # 28     ecut=    80.00 Ry     beta=0.70
     Davidson diagonalization with overlap
     ethr =  9.37E-06,  avg # of iterations = 14.3

     negative rho (up, down):  1.403E-01 0.000E+00

     total cpu time spent up to now is    18472.7 secs

     total energy              =  -12699.91841582 Ry
     Harris-Foulkes estimate   =  -12699.92104729 Ry
     estimated scf accuracy    <       0.02957556 Ry

     iteration # 29     ecut=    80.00 Ry     beta=0.70
     Davidson diagonalization with overlap
     ethr =  2.29E-06,  avg # of iterations =  9.0

     negative rho (up, down):  5.713E-02 0.000E+00

     total cpu time spent up to now is    19033.3 secs

     total energy              =  -12699.91900527 Ry
     Harris-Foulkes estimate   =  -12699.92011639 Ry
     estimated scf accuracy    <       0.00521446 Ry

     iteration # 30     ecut=    80.00 Ry     beta=0.70
     Davidson diagonalization with overlap
     c_bands:  1 eigenvalues not converged
     ethr =  4.03E-07,  avg # of iterations = 12.5

     negative rho (up, down):  3.199E-02 0.000E+00

     total cpu time spent up to now is    19687.3 secs

     total energy              =  -12699.91878175 Ry
     Harris-Foulkes estimate   =  -12699.91953847 Ry
     estimated scf accuracy    <       0.00313946 Ry

     iteration # 31     ecut=    80.00 Ry     beta=0.70
     Davidson diagonalization with overlap
     c_bands:  1 eigenvalues not converged
     c_bands:  1 eigenvalues not converged
     ethr =  2.43E-07,  avg # of iterations = 14.3

     negative rho (up, down):  1.081E-02 0.000E+00

     total cpu time spent up to now is    20361.8 secs

     total energy              =  -12699.91855275 Ry
     Harris-Foulkes estimate   =  -12699.91903609 Ry
     estimated scf accuracy    <       0.00092872 Ry

     iteration # 32     ecut=    80.00 Ry     beta=0.70
     Davidson diagonalization with overlap
     c_bands:  1 eigenvalues not converged
     ethr =  7.18E-08,  avg # of iterations = 11.5

     negative rho (up, down):  6.734E-03 0.000E+00

     total cpu time spent up to now is    20970.8 secs

     total energy              =  -12699.91849484 Ry
     Harris-Foulkes estimate   =  -12699.91860076 Ry
     estimated scf accuracy    <       0.00039719 Ry

     iteration # 33     ecut=    80.00 Ry     beta=0.70
     Davidson diagonalization with overlap
     c_bands:  1 eigenvalues not converged
     ethr =  3.07E-08,  avg # of iterations = 10.7

     negative rho (up, down):  2.560E-03 0.000E+00

     total cpu time spent up to now is    21524.1 secs

     total energy              =  -12699.91847526 Ry
     Harris-Foulkes estimate   =  -12699.91851851 Ry
     estimated scf accuracy    <       0.00010389 Ry

     iteration # 34     ecut=    80.00 Ry     beta=0.70
     Davidson diagonalization with overlap
     ethr =  8.03E-09,  avg # of iterations = 10.2

     negative rho (up, down):  2.408E-03 0.000E+00

     total cpu time spent up to now is    22110.0 secs

     total energy              =  -12699.91848780 Ry
     Harris-Foulkes estimate   =  -12699.91848524 Ry
     estimated scf accuracy    <       0.00001075 Ry

     iteration # 35     ecut=    80.00 Ry     beta=0.70
     Davidson diagonalization with overlap
     ethr =  8.32E-10,  avg # of iterations =  3.0

     negative rho (up, down):  2.223E-03 0.000E+00

     total cpu time spent up to now is    22543.4 secs

     total energy              =  -12699.91849143 Ry
     Harris-Foulkes estimate   =  -12699.91848945 Ry
     estimated scf accuracy    <       0.00000470 Ry

     iteration # 36     ecut=    80.00 Ry     beta=0.70
     Davidson diagonalization with overlap
     c_bands:  1 eigenvalues not converged
     ethr =  3.63E-10,  avg # of iterations =  7.3

     negative rho (up, down):  2.219E-03 0.000E+00

     total cpu time spent up to now is    23035.7 secs

     total energy              =  -12699.91849226 Ry
     Harris-Foulkes estimate   =  -12699.91849191 Ry
     estimated scf accuracy    <       0.00000290 Ry

     iteration # 37     ecut=    80.00 Ry     beta=0.70
     Davidson diagonalization with overlap
     ethr =  2.24E-10,  avg # of iterations =  3.0

     negative rho (up, down):  2.199E-03 0.000E+00

     total cpu time spent up to now is    23427.0 secs

     total energy              =  -12699.91849251 Ry
     Harris-Foulkes estimate   =  -12699.91849244 Ry
     estimated scf accuracy    <       0.00000075 Ry

     iteration # 38     ecut=    80.00 Ry     beta=0.70
     Davidson diagonalization with overlap
     ethr =  5.79E-11,  avg # of iterations =  2.0

     negative rho (up, down):  2.058E-03 0.000E+00

     total cpu time spent up to now is    23791.9 secs

     total energy              =  -12699.91849262 Ry
     Harris-Foulkes estimate   =  -12699.91849259 Ry
     estimated scf accuracy    <       0.00000028 Ry

     iteration # 39     ecut=    80.00 Ry     beta=0.70
     Davidson diagonalization with overlap
     ethr =  2.19E-11,  avg # of iterations =  2.5

     negative rho (up, down):  1.990E-03 0.000E+00

     total cpu time spent up to now is    24169.3 secs

     total energy              =  -12699.91849273 Ry
     Harris-Foulkes estimate   =  -12699.91849266 Ry
     estimated scf accuracy    <       0.00000012 Ry

     iteration # 40     ecut=    80.00 Ry     beta=0.70
     Davidson diagonalization with overlap
     ethr =  9.04E-12,  avg # of iterations =  2.2

     negative rho (up, down):  1.920E-03 0.000E+00

     total cpu time spent up to now is    24536.3 secs

     total energy              =  -12699.91849281 Ry
     Harris-Foulkes estimate   =  -12699.91849274 Ry
     estimated scf accuracy    <       0.00000004 Ry

     iteration # 41     ecut=    80.00 Ry     beta=0.70
     Davidson diagonalization with overlap
     ethr =  3.10E-12,  avg # of iterations =  3.0

     negative rho (up, down):  1.899E-03 0.000E+00

     total cpu time spent up to now is    24950.8 secs

     total energy              =  -12699.91849283 Ry
     Harris-Foulkes estimate   =  -12699.91849282 Ry
     estimated scf accuracy    <       0.00000001 Ry

     iteration # 42     ecut=    80.00 Ry     beta=0.70
     Davidson diagonalization with overlap
     ethr =  9.56E-13,  avg # of iterations =  3.0

     negative rho (up, down):  1.891E-03 0.000E+00

     total cpu time spent up to now is    25349.5 secs

     End of self-consistent calculation

          k = 0.0000 0.0000 0.0000 (256287 PWs)   bands (ev):

   -16.0345 -15.6899 -15.6161 -14.5667 -14.5381 -14.0836 -14.0536 -13.7500
   -13.7318 -13.6927 -13.5977 -12.7746 -12.7524 -12.6706 -12.6376 -12.6258
   -12.5163 -11.0017 -10.9528 -10.9260 -10.8912 -10.7395  -9.7038  -9.1562
    -9.0735  -9.0605  -8.9892  -8.2231  -8.2068  -8.1735  -8.1182  -7.2913
    -7.1915  -7.1520  -7.1394  -7.1239  -7.0850  -7.0092  -6.9586  -5.7729
    -5.6777  -5.5871  -5.5564  -5.5381  -5.4454  -5.4025  -5.3154  -5.2499
    -5.1469  -5.1423  -4.7829  -4.5266  -4.3150  -4.2701  -4.2657  -4.2253
    -3.9886  -3.9255  -3.7896  -3.7749  -3.6495  -3.6488  -3.2988  -3.1398
    -3.1309  -3.1173  -3.0682  -3.0667  -2.9885  -2.9614  -2.9502  -2.8696
    -2.8423  -2.8112  -2.7714  -2.6693  -2.6687  -2.6658  -2.6599  -2.6313
    -2.5474  -2.5077  -2.4409  -2.4042  -2.3889  -2.3494  -2.3217  -2.2854
    -2.2371  -2.1893  -2.1577  -2.0314  -2.0268  -2.0120  -2.0091  -1.9545
    -1.8872  -1.8510  -1.8507  -1.8108  -1.8106  -1.8104  -1.8103  -1.7286
    -1.7208  -1.6871  -1.6817  -1.6809  -1.6766  -1.6764  -1.6196  -1.5631
    -1.5002  -1.4804  -1.4344  -1.4265  -1.3968  -1.3958  -1.3949  -1.3829
    -1.3466  -1.3295  -1.3208  -1.3165  -1.3112  -1.2590  -1.2479  -1.2274
    -1.2222  -1.2215  -1.2111  -1.1910  -1.1895  -1.1816  -1.1727  -1.1705
    -1.1629  -1.0993  -1.0948  -1.0736  -1.0541  -1.0425  -1.0244  -1.0183
    -1.0091  -0.9552  -0.9535  -0.9209  -0.9200  -0.9063  -0.8681  -0.8673
    -0.8587  -0.8485  -0.8451  -0.8236  -0.8203  -0.7906  -0.7761  -0.7523
    -0.7246  -0.7222  -0.7032  -0.7000  -0.6960  -0.6858  -0.6820  -0.6789
    -0.6784  -0.6781  -0.6778  -0.6722  -0.6710  -0.6552  -0.6431  -0.6207
    -0.6090  -0.5993  -0.5854  -0.5846  -0.5763  -0.5751  -0.5727  -0.5612
    -0.5168  -0.5161  -0.5132  -0.5125  -0.5123  -0.5118  -0.5117  -0.5087
    -0.5074  -0.5064  -0.5042  -0.5040  -0.5015  -0.4982  -0.4979  -0.4879
    -0.4872  -0.4622  -0.4421  -0.4099  -0.3892  -0.3466  -0.3461  -0.3391
    -0.3387  -0.3182  -0.3174  -0.2982  -0.2978  -0.2834  -0.2782  -0.2756
    -0.2677  -0.2612  -0.2563  -0.2558  -0.2456  -0.2223  -0.2215  -0.2173
    -0.2168  -0.2113  -0.2106  -0.2053  -0.2004  -0.1985  -0.1491  -0.1486
    -0.0948  -0.0946  -0.0867  -0.0851  -0.0830  -0.0796  -0.0695  -0.0676
    -0.0629  -0.0618  -0.0608  -0.0603  -0.0568  -0.0565  -0.0510  -0.0416
    -0.0414  -0.0329  -0.0325  -0.0269  -0.0070  -0.0065   0.0412   0.0428
     0.0486   0.0517   0.0518   0.0775   0.0776   0.0797   0.0802   0.0858
     0.0947   0.0957   0.1009   0.1009   0.1116   0.1215   0.1228   0.1247
     0.1278   0.1283   0.1288   0.1296   0.1311   0.1331   0.1425   0.1514
     0.1519   0.1549   0.1551   0.1760   0.2101   0.2220   0.2240   0.2250
     0.2263   0.2404   0.2712   0.2734   0.2737   0.2752   0.2806   0.2812
     0.2825   0.2827   0.2837   0.2975   0.3167   0.3314   0.3344   0.3363
     0.3379   0.3449   0.3619   0.3621   0.3641   0.3655   0.3689   0.3762
     0.3876   0.3889   0.3893   0.3895   0.3919   0.3955   0.4028   0.4052
     0.4064   0.4070   0.4087   0.4133   0.4209   0.4265   0.4305   0.4412
     0.4466   0.4623   0.4789   0.4796   0.5045   0.5060   0.5230   0.5310
     0.5379   0.5754   0.5777   0.5792   0.5834   0.5870   0.5901   0.6022
     0.6133   0.6140   0.6164   0.6171   0.6178   0.6249   0.6266   0.6290
     0.6717   0.6820   0.6826   0.6902   0.6924   0.6944   0.6971   0.7210
     0.7243   0.7243   0.7273   0.7280   0.7498   0.7577   0.7628   0.7679
     0.7743   0.7769   0.7805   0.7821   0.7850   0.8008   0.8205   0.8271
     0.8365   0.8379   0.8424   0.8432   0.8439   0.8511   0.8681   0.8720
     0.8733   0.8774   0.8780   0.8799   0.8808   0.8812   0.8867   0.8877
     0.8922   0.8967   0.8987   0.9015   0.9031   0.9069   0.9117   0.9404
     0.9465   0.9468   0.9517   0.9640   0.9892   0.9905   0.9912   0.9944
     0.9960   0.9964   0.9977   0.9986   1.0062   1.0087   1.0143   1.0213
     1.0227   1.0233   1.0242   1.0300   1.0304   1.0373   1.0405   1.0531
     1.0623   1.0634   1.0654   1.0690   1.0756   1.0777   1.0849   1.0885
     1.0885   1.0904   1.0940   1.0960   1.0980   1.1023   1.1100   1.1302
     1.1483   1.1487   1.1530   1.1589   1.1629   1.1649   1.1658   1.1680
     1.1691   1.1832   1.1991   1.2004   1.2137   1.2157   1.2193   1.2198
     1.2329   1.2338   1.2416   1.2421   1.2434   1.2448   1.2523   1.2630
     1.2805   1.2825   1.2833   1.2844   1.2864   1.2872   1.3027   1.3119
     1.3206   1.3261   1.3294   1.3302   1.3410   1.3518   1.3527   1.3541
     1.3560   1.3565   1.3609   1.3630   1.3649   1.3685   1.3709   1.3719
     1.3721   1.3729   1.3823   1.3850   1.3865   1.4029   1.4068   1.4072
     1.4104   1.4119   1.4183   1.4467   1.4480   1.4482   1.4515   1.4526
     1.4543   1.4569   1.4577   1.4592   1.4593   1.4604   1.4616   1.4643
     1.4677   1.4770   1.4774   1.4985   1.5072   1.5248   1.5276   1.5424
     1.5435   1.5463   1.5464   1.5477   1.5481   1.5543   1.5664   1.5761
     1.5799   1.5810   1.5828   1.5832   1.5853   1.5871   1.5877   1.5890
     1.5938   1.5987   1.6155   1.6157   1.6176   1.6184   1.6189   1.6205
     1.6214   1.6226   1.6370   1.6374   1.6381   1.6446   1.6486   1.6531
     1.6532   1.6542   1.6549   1.6602   1.6635   1.6676   1.6728   1.6847
     1.6957   1.6978   1.6986   1.7018   1.7037   1.7060   1.7118   1.7210
     1.7263   1.7300   1.7323   1.7348   1.7432   1.7576   1.7579   1.7594
     1.7655   1.7655   1.7732   1.7767   1.7777   1.7783   1.7790   1.7791
     1.7807   1.7810   1.7815   1.7897   1.7909   1.7928   1.8082   1.8091
     1.8092   1.8106   1.8145   1.8219   1.8234   1.8311   1.8547   1.8600
     1.8627   1.8665   1.8992   1.8997   1.9033   1.9057   1.9229   1.9232
     1.9246   1.9291   1.9352   1.9505   1.9710   1.9743   1.9749   1.9755
     1.9760   1.9857   1.9860   1.9879   2.2421   2.2976   2.4263   2.4494
     2.4698   2.4948   2.5075   2.5487   2.5493   2.5499   2.5567   2.5665
     2.5691   2.5702   2.6463   2.7409   2.7545   2.7989   2.8101   2.8112
     2.8171   2.8239   2.8474   3.0558   3.0602   3.0650   3.0767   3.3422
     3.4148   3.4345   3.4963   3.8591   3.8607   4.0964   4.1499   4.1608
     4.1879   4.1905   4.1953   4.2220   4.2816   4.3036   4.3045   4.3128
     4.3437   4.3480   4.3484   4.3534   4.3553   4.3882   4.5678   4.5905
     4.5915   4.6117   4.7282   4.9916   5.1029   5.1597   5.2598   5.3051
     5.6377   5.7193   5.7312   5.7539   6.0006   6.0248   6.0480   6.0521
     6.0949   6.2683   6.2734   6.5981   6.6750   6.7138   6.7391   6.7549
     6.8068   6.8114   6.8223   6.8918   6.9315   6.9608   7.0253   7.0560
     7.1049   7.1183   7.1252   7.1547   7.2665   7.3460   7.3781   7.4005
     7.4214   7.4384   7.4707   7.6926   7.6976   7.7179   7.8203   7.8567
     7.8577   7.9514   8.0065   8.0218   8.0309   8.0379   8.1066   8.4087
     8.4713   8.4785   8.4811   8.5264   8.5446   8.6255   8.6506   8.6767
     8.6774   8.7231   8.7384   8.7511   8.7550   8.8142   8.8834   8.8997
     8.9174   8.9854   8.9888   8.9984   9.0151   9.1675   9.1696   9.1780
     9.1871   9.2097   9.2554   9.2624   9.2785   9.3991   9.4010   9.4240
     9.4344   9.4507   9.4636   9.5600   9.6713   9.6831   9.7100   9.8790
     9.9158   9.9177   9.9695   9.9995  10.0456  10.1373  10.1725  10.2222

          k = 0.0000-0.2165 0.0000 (256176 PWs)   bands (ev):

   -15.9729 -15.9012 -15.2171 -15.1639 -14.0172 -14.0109 -13.9701 -13.9273
   -13.7427 -13.6962 -13.2960 -13.2664 -13.2469 -13.1424 -11.9020 -11.8729
   -11.8475 -11.8067 -11.6412 -11.5854 -10.0324  -9.9629  -9.9399  -9.8848
    -8.7606  -8.6645  -8.6005  -8.5571  -8.5238  -8.4805  -7.7652  -7.7298
    -7.7181  -7.6564  -6.6295  -6.5661  -6.5122  -6.4715  -6.4519  -6.3726
    -6.3157  -6.2990  -5.6287  -5.5525  -5.5458  -5.5384  -4.9866  -4.7666
    -4.7280  -4.7003  -4.6525  -4.6164  -4.5012  -4.4996  -4.3031  -4.1915
    -4.1667  -4.1341  -4.0816  -4.0670  -3.7381  -3.6870  -3.3728  -3.2386
    -3.0396  -2.9664  -2.9661  -2.9609  -2.9417  -2.8980  -2.7968  -2.7325
    -2.7063  -2.6945  -2.6917  -2.6449  -2.6314  -2.5802  -2.5525  -2.4695
    -2.4501  -2.4212  -2.3865  -2.3589  -2.2972  -2.2577  -2.2513  -2.2455
    -2.2401  -2.2382  -2.2361  -2.2335  -2.1692  -2.1128  -2.0264  -1.9617
    -1.9416  -1.9193  -1.9162  -1.8980  -1.8846  -1.8495  -1.8124  -1.8028
    -1.8014  -1.7930  -1.7319  -1.6442  -1.6440  -1.6190  -1.6186  -1.6107
    -1.5656  -1.5261  -1.5136  -1.4308  -1.4273  -1.4230  -1.4090  -1.4083
    -1.4032  -1.3995  -1.3992  -1.3896  -1.3820  -1.3762  -1.3049  -1.3012
    -1.2993  -1.2134  -1.1905  -1.1698  -1.1295  -1.1229  -1.1221  -1.1143
    -1.0413  -1.0359  -1.0286  -1.0275  -0.9744  -0.9717  -0.9456  -0.9397
    -0.9362  -0.9319  -0.9314  -0.9308  -0.9254  -0.9180  -0.9022  -0.8895
    -0.8857  -0.8827  -0.8799  -0.8794  -0.8751  -0.8693  -0.8206  -0.8002
    -0.7947  -0.7938  -0.7926  -0.7763  -0.7454  -0.7449  -0.7070  -0.7066
    -0.7038  -0.7032  -0.6659  -0.6598  -0.6428  -0.6426  -0.6385  -0.6371
    -0.6365  -0.6333  -0.5861  -0.5821  -0.5799  -0.5759  -0.5743  -0.5684
    -0.5678  -0.5544  -0.5542  -0.5541  -0.5212  -0.4881  -0.4851  -0.4759
    -0.4754  -0.4715  -0.4703  -0.4641  -0.4547  -0.4536  -0.4423  -0.4360
    -0.4189  -0.4115  -0.4109  -0.4073  -0.3852  -0.3143  -0.3140  -0.3067
    -0.3061  -0.2892  -0.2890  -0.2641  -0.2627  -0.2617  -0.2613  -0.2575
    -0.2575  -0.2341  -0.2327  -0.2006  -0.1995  -0.1978  -0.1967  -0.1937
    -0.1928  -0.1920  -0.1908  -0.1616  -0.1604  -0.1525  -0.1417  -0.1416
    -0.1416  -0.1068  -0.1057  -0.1045  -0.1031  -0.0958  -0.0951  -0.0930
    -0.0881  -0.0876  -0.0830  -0.0189  -0.0184  -0.0114  -0.0098  -0.0087
     0.0173   0.0179   0.0318   0.0397   0.0409   0.0443   0.0472   0.0484
     0.0565   0.0710   0.0725   0.0760   0.0768   0.0805   0.0862   0.0919
     0.0925   0.0972   0.0989   0.0995   0.0999   0.1043   0.1075   0.1095
     0.1315   0.1361   0.1363   0.1389   0.1397   0.1517   0.2005   0.2010
     0.2022   0.2030   0.2099   0.2112   0.2144   0.2148   0.2176   0.2242
     0.2429   0.2500   0.2535   0.2544   0.2567   0.2572   0.2622   0.2644
     0.2649   0.2672   0.2682   0.2699   0.2717   0.3096   0.3249   0.3258
     0.3263   0.3272   0.3356   0.3478   0.3483   0.3495   0.3522   0.3594
     0.3599   0.3696   0.3713   0.3718   0.3782   0.3803   0.3981   0.4023
     0.4046   0.4175   0.4176   0.4194   0.4198   0.4374   0.4384   0.4545
     0.4551   0.4620   0.4647   0.4735   0.4745   0.4772   0.4775   0.5151
     0.5196   0.5206   0.5302   0.5318   0.5364   0.5418   0.5462   0.5465
     0.5698   0.5721   0.6030   0.6080   0.6099   0.6114   0.6385   0.6513
     0.6783   0.7027   0.7249   0.7255   0.7298   0.7330   0.7378   0.7537
     0.7547   0.7552   0.7554   0.7744   0.7909   0.7936   0.7958   0.7969
     0.7992   0.7996   0.7998   0.8034   0.8050   0.8102   0.8187   0.8200
     0.8211   0.8216   0.8237   0.8273   0.8300   0.8330   0.8575   0.8603
     0.8682   0.8684   0.8690   0.8696   0.8713   0.8765   0.8765   0.8989
     0.8993   0.8996   0.9009   0.9016   0.9023   0.9030   0.9039   0.9216
     0.9219   0.9230   0.9246   0.9253   0.9266   0.9286   0.9317   0.9351
     0.9404   0.9486   0.9884   0.9887   0.9994   0.9999   1.0071   1.0100
     1.0117   1.0127   1.0144   1.0178   1.0182   1.0200   1.0230   1.0231
     1.0255   1.0262   1.0624   1.0672   1.0676   1.0680   1.0714   1.0845
     1.0850   1.0855   1.0874   1.0881   1.0994   1.1003   1.1167   1.1170
     1.1186   1.1235   1.1243   1.1258   1.1760   1.1770   1.2257   1.2284
     1.2327   1.2354   1.2367   1.2385   1.2447   1.2475   1.2522   1.2539
     1.2592   1.2595   1.2623   1.2670   1.2684   1.2686   1.2735   1.2806
     1.2815   1.2831   1.2832   1.2843   1.2906   1.2987   1.3066   1.3067
     1.3095   1.3096   1.3129   1.3130   1.3132   1.3174   1.3178   1.3275
     1.3293   1.3297   1.3340   1.3342   1.3349   1.3359   1.3526   1.3546
     1.3582   1.3670   1.3693   1.3709   1.3740   1.3741   1.3809   1.3813
     1.3815   1.3819   1.3828   1.3855   1.4272   1.4328   1.4602   1.4676
     1.4708   1.4711   1.4820   1.4848   1.4945   1.4960   1.4980   1.5006
     1.5124   1.5136   1.5256   1.5286   1.5287   1.5343   1.5358   1.5374
     1.5396   1.5406   1.5412   1.5430   1.5446   1.5449   1.5452   1.5463
     1.5531   1.5539   1.5641   1.5677   1.5708   1.5719   1.5733   1.5743
     1.5818   1.5828   1.6052   1.6112   1.6116   1.6119   1.6177   1.6189
     1.6197   1.6205   1.6352   1.6381   1.6414   1.6416   1.6501   1.6530
     1.6557   1.6558   1.6564   1.6586   1.6729   1.6733   1.6750   1.6758
     1.6893   1.6931   1.6933   1.6962   1.7124   1.7129   1.7218   1.7220
     1.7225   1.7233   1.7349   1.7352   1.7369   1.7392   1.7541   1.7545
     1.7666   1.7685   1.7690   1.7698   1.7821   1.7880   1.7900   1.7900
     1.7918   1.7926   1.7929   1.7948   1.7977   1.8201   1.8221   1.8293
     1.8297   1.8374   1.8439   1.8514   1.8606   1.8610   1.8611   1.8631
     1.8694   1.8766   1.8821   1.8882   1.8960   1.9281   1.9288   1.9291
     1.9482   2.0310   2.0336   2.0525   2.0580   2.0775   2.0788   2.0833
     2.1109   2.1294   2.1346   2.1360   2.1376   2.1549   2.1560   2.1575
     2.1861   2.1941   2.1956   2.4752   2.4968   2.5250   2.7557   2.7572
     2.7596   2.7605   2.8369   2.8393   2.8985   2.9010   2.9061   2.9086
     2.9194   2.9227   3.0474   3.0498   3.0957   3.0996   3.1176   3.1206
     3.2634   3.2647   3.3926   3.5022   3.5023   3.5345   3.5879   3.7159
     3.7281   4.0097   4.0112   4.2098   4.3111   4.3471   4.4104   4.4368
     4.4651   4.4838   4.6585   4.6619   4.6686   4.6709   4.8335   4.8353
     5.0001   5.0179   5.0290   5.0824   5.1037   5.4097   5.4405   5.4456
     5.5186   5.6916   5.6974   5.6995   5.7011   5.7549   5.8113   5.9674
     6.0144   6.0464   6.1249   6.1648   6.6799   6.7107   6.7361   6.7518
     6.7540   6.7660   6.8546   6.8840   6.9992   7.0046   7.0070   7.1097
     7.1349   7.3003   7.3568   7.3720   7.3819   7.4108   7.4179   7.4315
     7.4387   7.4596   7.4636   7.4671   7.4739   7.6218   7.6823   7.6849
     7.7452   7.7730   7.8304   7.9490   8.0684   8.0813   8.0952   8.1468
     8.3396   8.4183   8.4733   8.4781   8.4965   8.6529   8.6968   8.7113
     8.7325   8.7348   8.7538   8.8264   8.8757   8.8995   9.0216   9.0417
     9.0460   9.0529   9.0652   9.0932   9.0994   9.1331   9.1348   9.2048
     9.2150   9.2912   9.3423   9.3609   9.4767   9.4833   9.5287   9.5623
     9.7093   9.7108   9.7267   9.7304   9.7885   9.7934   9.8151   9.8334
     9.8622   9.8731   9.9242   9.9830   9.9972  10.0918  10.1592  10.1659

          k = 0.2500 0.0000 0.0000 (256240 PWs)   bands (ev):

   -15.9110 -15.5663 -15.4965 -14.9217 -14.5847 -14.5378 -14.4426 -14.3632
   -13.4829 -13.4315 -12.9925 -12.6760 -12.6672 -12.6274 -12.5331 -11.7395
   -11.6990 -11.6236 -11.5529 -10.6517 -10.3630 -10.3370 -10.2402  -9.8114
    -9.6025  -9.3544  -9.2876  -8.9135  -8.6863  -8.6488  -8.1447  -7.2513
    -7.1308  -7.1033  -7.0693  -6.9969  -6.9566  -6.4742  -6.2478  -5.7798
    -5.5789  -5.5150  -5.4986  -5.4952  -5.3769  -4.9754  -4.9719  -4.8440
    -4.7015  -4.6086  -4.4037  -4.2072  -4.1459  -4.1272  -4.1105  -4.0149
    -3.9322  -3.9260  -3.8689  -3.6702  -3.6627  -3.6564  -3.6514  -3.5216
    -3.5024  -3.4999  -3.4234  -3.2584  -3.1873  -3.1751  -3.1432  -3.1094
    -3.0719  -3.0414  -3.0163  -2.9397  -2.9139  -2.8730  -2.8125  -2.7420
    -2.6976  -2.6751  -2.5962  -2.5320  -2.4593  -2.4584  -2.4225  -2.3515
    -2.2905  -2.2776  -2.0944  -2.0772  -2.0576  -1.9963  -1.9789  -1.8494
    -1.7588  -1.7579  -1.7421  -1.7399  -1.6733  -1.6613  -1.6491  -1.5810
    -1.5591  -1.5517  -1.5352  -1.4977  -1.4652  -1.4591  -1.4589  -1.4515
    -1.4511  -1.4308  -1.4036  -1.3875  -1.3772  -1.3721  -1.3627  -1.3079
    -1.3023  -1.2745  -1.2606  -1.2464  -1.2410  -1.2375  -1.2369  -1.2367
    -1.2203  -1.2135  -1.1833  -1.1789  -1.1614  -1.1587  -1.1493  -1.1479
    -1.0574  -1.0298  -0.9946  -0.9913  -0.9695  -0.9405  -0.9282  -0.9162
    -0.9013  -0.9000  -0.8943  -0.8858  -0.8777  -0.8710  -0.8644  -0.8433
    -0.8410  -0.8392  -0.8329  -0.8234  -0.7968  -0.7926  -0.7900  -0.7880
    -0.7855  -0.7726  -0.7692  -0.7681  -0.7467  -0.7340  -0.7176  -0.7092
    -0.7082  -0.7057  -0.6988  -0.6782  -0.6733  -0.6703  -0.6651  -0.6593
    -0.6530  -0.6483  -0.6435  -0.6400  -0.6390  -0.6369  -0.6346  -0.6325
    -0.6318  -0.6220  -0.6137  -0.6029  -0.5983  -0.5970  -0.5750  -0.5613
    -0.5576  -0.5526  -0.5113  -0.5085  -0.5072  -0.4729  -0.4723  -0.4544
    -0.4529  -0.4503  -0.4418  -0.4278  -0.4261  -0.4128  -0.4120  -0.4089
    -0.4055  -0.4006  -0.3968  -0.3801  -0.2683  -0.2603  -0.2577  -0.2563
    -0.2300  -0.2252  -0.2240  -0.2211  -0.2079  -0.2064  -0.2062  -0.2049
    -0.1852  -0.1844  -0.1835  -0.1773  -0.1694  -0.1628  -0.1435  -0.1429
    -0.1417  -0.1397  -0.1386  -0.1231  -0.1177  -0.1175  -0.1136  -0.0644
    -0.0565  -0.0561  -0.0560  -0.0488  -0.0449  -0.0430  -0.0375  -0.0286
    -0.0140  -0.0137  -0.0029   0.0088   0.0095   0.0146   0.0218   0.0473
     0.0479   0.0515   0.0526   0.0605   0.0615   0.0718   0.0739   0.0786
     0.0878   0.0915   0.1046   0.1120   0.1150   0.1316   0.1436   0.1441
     0.1462   0.1495   0.1533   0.1610   0.1613   0.1626   0.1672   0.1905
     0.1908   0.2021   0.2031   0.2061   0.2296   0.2308   0.2318   0.2369
     0.2504   0.2738   0.2782   0.2806   0.2861   0.2891   0.2965   0.3045
     0.3225   0.3229   0.3298   0.3309   0.3363   0.3400   0.3423   0.3452
     0.3477   0.3488   0.3500   0.3509   0.3526   0.3557   0.3747   0.3758
     0.3766   0.3792   0.3838   0.3849   0.4011   0.4013   0.4169   0.4210
     0.4376   0.4558   0.4569   0.4593   0.4598   0.4621   0.4714   0.4761
     0.4815   0.4829   0.4840   0.4857   0.4878   0.5183   0.5222   0.5524
     0.5718   0.5950   0.5955   0.5985   0.6098   0.6130   0.6148   0.6165
     0.6169   0.6208   0.6250   0.6285   0.6316   0.6322   0.6330   0.6389
     0.6445   0.6494   0.6500   0.6534   0.6571   0.6633   0.6646   0.6692
     0.6738   0.6770   0.6795   0.6936   0.6974   0.7095   0.7112   0.7436
     0.7483   0.7548   0.7630   0.7663   0.7705   0.7843   0.7846   0.7860
     0.7892   0.7971   0.8052   0.8171   0.8193   0.8223   0.8289   0.8293
     0.8329   0.8337   0.8394   0.8403   0.8593   0.8634   0.8681   0.8791
     0.8875   0.8883   0.8909   0.8917   0.8937   0.8950   0.8982   0.8994
     0.9159   0.9223   0.9234   0.9279   0.9342   0.9373   0.9390   0.9408
     0.9502   0.9518   0.9536   0.9599   0.9622   0.9737   0.9800   0.9824
     0.9998   1.0018   1.0054   1.0065   1.0117   1.0125   1.0152   1.0324
     1.0449   1.0486   1.0655   1.0702   1.0832   1.0838   1.0874   1.0901
     1.0928   1.1080   1.1116   1.1142   1.1175   1.1212   1.1223   1.1342
     1.1350   1.1456   1.1466   1.1572   1.1656   1.1672   1.1687   1.1804
     1.1856   1.1969   1.1990   1.1996   1.2019   1.2223   1.2236   1.2323
     1.2349   1.2356   1.2367   1.2385   1.2449   1.2458   1.2510   1.2534
     1.2862   1.2902   1.2924   1.2946   1.2968   1.2984   1.3097   1.3115
     1.3135   1.3293   1.3305   1.3323   1.3362   1.3421   1.3429   1.3457
     1.3582   1.3589   1.3609   1.3616   1.3635   1.3644   1.3657   1.3670
     1.3694   1.3742   1.3750   1.3771   1.3835   1.3878   1.3947   1.4007
     1.4029   1.4081   1.4097   1.4124   1.4152   1.4183   1.4189   1.4332
     1.4335   1.4446   1.4480   1.4492   1.4510   1.4531   1.4606   1.4666
     1.4755   1.4781   1.4820   1.4893   1.4946   1.4975   1.5010   1.5036
     1.5096   1.5170   1.5221   1.5249   1.5305   1.5349   1.5368   1.5702
     1.5723   1.5780   1.5854   1.5871   1.5884   1.5941   1.5957   1.5969
     1.5972   1.6049   1.6066   1.6138   1.6185   1.6218   1.6221   1.6337
     1.6399   1.6405   1.6432   1.6436   1.6474   1.6524   1.6531   1.6556
     1.6567   1.6590   1.6598   1.6652   1.6670   1.6723   1.6731   1.6804
     1.6878   1.6920   1.6950   1.6984   1.6994   1.6999   1.7019   1.7128
     1.7218   1.7220   1.7230   1.7339   1.7450   1.7460   1.7540   1.7580
     1.7637   1.7652   1.7659   1.7673   1.7693   1.7701   1.7755   1.7768
     1.7776   1.7790   1.7831   1.7862   1.8036   1.8055   1.8068   1.8077
     1.8100   1.8112   1.8120   1.8249   1.8251   1.8339   1.8371   1.8385
     1.8482   1.8489   1.8563   1.8584   1.8613   1.8716   1.8883   1.8916
     1.8969   1.9237   1.9259   1.9647   1.9655   1.9682   1.9756   1.9964
     2.0262   2.0807   2.0981   2.1036   2.1048   2.1240   2.1285   2.1552
     2.1784   2.3249   2.3719   2.4029   2.4109   2.4248   2.4280   2.4554
     2.5309   2.5883   2.5948   2.8978   2.9025   2.9052   2.9080   3.3136
     3.3163   3.3374   3.3768   3.5326   3.5343   3.5583   3.5585   3.5989
     3.6203   3.7829   3.8090   3.9090   3.9200   3.9668   3.9729   4.0328
     4.0425   4.0571   4.0613   4.1084   4.2023   4.2117   4.2945   4.3098
     4.4196   4.4830   4.5080   4.5585   4.6169   4.6813   4.7264   4.8869
     5.0916   5.1412   5.1707   5.2574   5.4855   5.5481   5.5573   5.5668
     5.5914   5.6903   5.7646   5.8033   5.8356   5.8516   5.9062   5.9132
     5.9516   5.9983   6.0149   6.0567   6.0764   6.1202   6.1466   6.1993
     6.3437   6.3497   6.3680   6.3838   6.5145   6.8847   7.0200   7.0264
     7.0360   7.0800   7.0886   7.1373   7.1987   7.2409   7.3441   7.3619
     7.3668   7.3739   7.3888   7.4082   7.5312   7.5909   7.6150   7.6574
     7.7381   7.8104   7.8413   7.8776   7.8982   7.9019   7.9872   8.0369
     8.0705   8.1014   8.1271   8.2362   8.3307   8.3501   8.3924   8.4064
     8.5330   8.5810   8.6084   8.6394   8.6469   8.6488   8.6566   8.6986
     8.7410   8.7640   8.7793   8.9293   8.9748   8.9796   9.1478   9.2163
     9.3036   9.3652   9.3803   9.4217   9.4277   9.4449   9.4782   9.4863
     9.5170   9.5204   9.5274   9.5397   9.5427   9.5695   9.6007   9.6836
     9.7340   9.7754   9.8137   9.8260  10.0307  10.0419  10.0554  10.0565

          k = 0.2500-0.2165 0.0000 (256316 PWs)   bands (ev):

   -15.8488 -15.7791 -15.0949 -15.0548 -14.8627 -14.7697 -14.1201 -14.0569
   -13.6241 -13.5862 -12.9365 -12.8643 -12.6752 -12.6331 -12.2242 -12.1539
   -11.5406 -11.5006 -10.9371 -10.8770 -10.6609 -10.6224 -10.2979 -10.2117
    -9.2292  -9.1869  -8.7302  -8.6897  -8.6318  -8.5384  -8.0899  -8.0299
    -7.9599  -7.9021  -6.3817  -6.2491  -6.2208  -6.1919  -6.1246  -6.0097
    -5.8957  -5.7707  -5.5629  -5.5038  -5.3693  -5.3630  -4.8804  -4.7391
    -4.5339  -4.4890  -4.4169  -4.3445  -4.3340  -4.3278  -4.0960  -4.0111
    -4.0075  -3.9968  -3.8559  -3.7635  -3.7285  -3.6774  -3.6207  -3.5224
    -3.4610  -3.4116  -3.2988  -3.2489  -3.1898  -3.1518  -3.1199  -3.1185
    -3.1070  -3.0694  -2.9275  -2.8256  -2.7735  -2.7575  -2.6842  -2.6661
    -2.5906  -2.5836  -2.5712  -2.5696  -2.5397  -2.4699  -2.4234  -2.4011
    -2.2842  -2.1989  -2.1345  -2.0762  -1.9765  -1.9707  -1.9333  -1.8819
    -1.8502  -1.8335  -1.8274  -1.8274  -1.7503  -1.6684  -1.6680  -1.6321
    -1.6296  -1.6217  -1.5179  -1.5050  -1.4729  -1.4718  -1.4704  -1.4567
    -1.4153  -1.4096  -1.3886  -1.3821  -1.3704  -1.3692  -1.3644  -1.3575
    -1.3425  -1.3381  -1.3362  -1.3341  -1.3330  -1.3262  -1.3252  -1.3109
    -1.2420  -1.2357  -1.1484  -1.1266  -1.1255  -1.0238  -1.0215  -1.0068
    -0.9879  -0.9865  -0.9730  -0.9415  -0.9351  -0.9331  -0.9199  -0.9196
    -0.9075  -0.9069  -0.8974  -0.8943  -0.8859  -0.8835  -0.8742  -0.8722
    -0.8658  -0.8605  -0.8544  -0.8525  -0.8473  -0.8396  -0.8358  -0.7908
    -0.7898  -0.7842  -0.7816  -0.7785  -0.7705  -0.7701  -0.7435  -0.7408
    -0.7386  -0.7347  -0.6979  -0.6972  -0.6919  -0.6867  -0.6841  -0.6833
    -0.6529  -0.6526  -0.6349  -0.6292  -0.6216  -0.6187  -0.6145  -0.6135
    -0.6117  -0.6061  -0.5984  -0.5828  -0.5795  -0.5598  -0.5561  -0.5279
    -0.5205  -0.5192  -0.5190  -0.4769  -0.4386  -0.4350  -0.4342  -0.4291
    -0.4283  -0.4261  -0.4156  -0.3803  -0.3793  -0.3706  -0.3697  -0.3652
    -0.3629  -0.3602  -0.3532  -0.3495  -0.3220  -0.3110  -0.3052  -0.2969
    -0.2720  -0.2706  -0.2414  -0.2252  -0.2220  -0.2211  -0.2200  -0.2072
    -0.1916  -0.1912  -0.1824  -0.1742  -0.1630  -0.1587  -0.1573  -0.1452
    -0.1437  -0.1221  -0.1140  -0.1105  -0.1027  -0.0952  -0.0803  -0.0663
    -0.0655  -0.0545  -0.0516  -0.0491  -0.0432  -0.0318  -0.0279  -0.0262
    -0.0225  -0.0212  -0.0192  -0.0160  -0.0114  -0.0099  -0.0084   0.0063
     0.0110   0.0179   0.0253   0.0258   0.0490   0.0513   0.0676   0.0718
     0.0790   0.0841   0.1026   0.1030   0.1071   0.1164   0.1244   0.1244
     0.1277   0.1314   0.1532   0.1647   0.1883   0.1885   0.2238   0.2243
     0.2335   0.2339   0.2362   0.2379   0.2460   0.2546   0.2551   0.2601
     0.2725   0.2738   0.2817   0.2890   0.2926   0.2960   0.2989   0.3011
     0.3022   0.3038   0.3192   0.3275   0.3315   0.3383   0.3392   0.3403
     0.3406   0.3445   0.3450   0.3468   0.3504   0.3520   0.3662   0.3727
     0.3733   0.3738   0.3747   0.4068   0.4083   0.4155   0.4173   0.4226
     0.4270   0.4424   0.4435   0.4541   0.4721   0.4731   0.4740   0.4831
     0.4854   0.4893   0.4926   0.4949   0.4966   0.4999   0.5105   0.5149
     0.5207   0.5239   0.5461   0.5503   0.6066   0.6100   0.6223   0.6231
     0.6239   0.6255   0.6273   0.6288   0.6317   0.6356   0.6369   0.6383
     0.6524   0.6563   0.6602   0.6632   0.6666   0.6736   0.6748   0.6757
     0.6802   0.6809   0.7013   0.7101   0.7111   0.7222   0.7235   0.7348
     0.7377   0.7463   0.7486   0.7822   0.7870   0.7905   0.7960   0.8005
     0.8007   0.8020   0.8122   0.8129   0.8171   0.8206   0.8216   0.8227
     0.8271   0.8284   0.8509   0.8532   0.8583   0.8629   0.8710   0.8753
     0.8759   0.9094   0.9106   0.9113   0.9118   0.9401   0.9436   0.9468
     0.9481   0.9497   0.9512   0.9557   0.9566   0.9632   0.9664   0.9686
     0.9723   0.9773   0.9803   0.9817   0.9890   0.9937   0.9989   1.0028
     1.0082   1.0089   1.0107   1.0125   1.0207   1.0216   1.0243   1.0297
     1.0316   1.0318   1.0464   1.0501   1.0523   1.0525   1.0582   1.0589
     1.0603   1.0612   1.0633   1.0656   1.0977   1.0997   1.1071   1.1083
     1.1231   1.1356   1.1463   1.1488   1.1658   1.1659   1.1675   1.1680
     1.1720   1.1731   1.1808   1.1941   1.1943   1.1959   1.1971   1.1977
     1.1997   1.2065   1.2183   1.2233   1.2253   1.2266   1.2372   1.2383
     1.2456   1.2465   1.2677   1.2683   1.2770   1.2961   1.2972   1.3011
     1.3035   1.3061   1.3069   1.3080   1.3120   1.3183   1.3218   1.3351
     1.3423   1.3434   1.3585   1.3598   1.3695   1.3760   1.3786   1.3807
     1.3972   1.4028   1.4094   1.4146   1.4222   1.4236   1.4284   1.4293
     1.4302   1.4309   1.4325   1.4337   1.4344   1.4362   1.4469   1.4478
     1.4512   1.4587   1.4600   1.4615   1.4756   1.4799   1.4967   1.5044
     1.5071   1.5132   1.5154   1.5163   1.5179   1.5196   1.5272   1.5283
     1.5319   1.5334   1.5344   1.5385   1.5399   1.5408   1.5453   1.5459
     1.5493   1.5537   1.5580   1.5630   1.5649   1.5653   1.5666   1.5678
     1.5782   1.5815   1.5872   1.5876   1.6033   1.6125   1.6140   1.6202
     1.6205   1.6339   1.6372   1.6388   1.6439   1.6522   1.6524   1.6616
     1.6622   1.6672   1.6710   1.6725   1.6769   1.6771   1.6843   1.6887
     1.6897   1.6917   1.7006   1.7017   1.7091   1.7164   1.7192   1.7237
     1.7240   1.7249   1.7280   1.7291   1.7321   1.7344   1.7368   1.7463
     1.7469   1.7518   1.7520   1.7631   1.7668   1.7687   1.7737   1.7779
     1.7786   1.7791   1.7846   1.7856   1.7859   1.7868   1.7880   1.7954
     1.7955   1.7972   1.8197   1.8197   1.8269   1.8313   1.8345   1.8434
     1.8459   1.8633   1.8665   1.8695   1.8726   1.8911   1.8924   1.8989
     1.8991   1.9233   1.9280   1.9756   1.9855   1.9975   2.0061   2.0085
     2.0868   2.0893   2.1021   2.1064   2.1164   2.1255   2.1277   2.1305
     2.1407   2.1700   2.1780   2.1944   2.4656   2.4680   2.4962   2.4985
     2.6222   2.6267   2.9240   2.9247   3.0900   3.1230   3.1265   3.1284
     3.1345   3.1399   3.1624   3.1704   3.3172   3.3223   3.3954   3.4129
     3.4562   3.8741   3.8796   3.9289   3.9444   3.9775   3.9952   4.1728
     4.1756   4.1829   4.1892   4.3248   4.3348   4.3959   4.4056   4.4978
     4.5027   4.6298   4.7121   4.7142   4.7610   4.8758   4.8847   4.9441
     5.0026   5.0216   5.0483   5.0932   5.2395   5.2499   5.3208   5.3505
     5.3915   5.4651   5.5836   5.5898   5.6957   5.7641   5.7760   5.7918
     5.7948   5.8023   6.0045   6.0998   6.1059   6.2119   6.2301   6.2787
     6.3043   6.3182   6.7009   6.8974   6.9203   6.9419   6.9496   7.0625
     7.0782   7.1429   7.1824   7.2491   7.3434   7.3744   7.4118   7.4139
     7.4225   7.4606   7.4937   7.5454   7.5522   7.5804   7.6410   7.6603
     7.6725   7.6801   7.6903   7.7225   7.7600   7.7643   7.9814   7.9956
     8.0880   8.1263   8.2181   8.2662   8.2734   8.3161   8.3410   8.5132
     8.5249   8.5342   8.5605   8.5831   8.6018   8.7111   8.8469   8.9187
     8.9252   8.9611   8.9644   8.9774   9.0061   9.0250   9.0297   9.0632
     9.1167   9.2102   9.2492   9.2843   9.2959   9.3095   9.3221   9.4447
     9.4622   9.5072   9.5267   9.5459   9.5553   9.5713   9.5994   9.6036
     9.6380   9.6657   9.6765   9.6892   9.7385   9.7519   9.8992   9.9710

          k =-0.5000 0.0000 0.0000 (256496 PWs)   bands (ev):

   -15.5653 -15.5195 -15.2016 -15.1934 -15.1891 -15.0406 -14.1016 -14.0936
   -14.0657 -13.9607 -12.3278 -12.3129 -12.2789 -12.2206 -11.7341 -11.7011
   -11.4235 -11.4128 -11.3905 -11.2799 -10.7826 -10.6910 -10.3558 -10.2998
    -9.7467  -9.6952  -9.3569  -9.2440  -8.5767  -8.4995  -8.4741  -8.4130
    -7.1399  -7.0143  -6.9823  -6.9414  -6.8816  -6.8282  -5.4736  -5.4283
    -4.9813  -4.9705  -4.9045  -4.7468  -4.6808  -4.4674  -4.4665  -4.4642
    -4.4561  -4.3810  -4.3618  -4.3247  -4.2976  -4.2927  -4.2583  -4.1544
    -4.1177  -4.0842  -4.0306  -3.9712  -3.9205  -3.8687  -3.7165  -3.6742
    -3.6528  -3.6488  -3.6436  -3.6135  -3.3631  -3.2383  -3.2203  -3.1972
    -3.0824  -3.0822  -3.0810  -3.0796  -2.9972  -2.9703  -2.9640  -2.9289
    -2.8776  -2.8438  -2.7110  -2.4481  -2.4342  -2.4227  -2.3690  -2.3413
    -2.3307  -2.3081  -2.2632  -2.2596  -2.1730  -2.0824  -2.0660  -2.0177
    -1.9721  -1.9601  -1.9567  -1.9526  -1.5409  -1.5380  -1.5374  -1.5370
    -1.5352  -1.5339  -1.5102  -1.4166  -1.4116  -1.4093  -1.3541  -1.3098
    -1.3093  -1.3086  -1.3064  -1.2765  -1.2610  -1.2595  -1.2588  -1.2572
    -1.1719  -1.1621  -1.1478  -1.1471  -1.1292  -1.0922  -1.0886  -1.0840
    -1.0827  -1.0747  -1.0644  -1.0629  -1.0536  -1.0162  -1.0153  -1.0112
    -1.0100  -1.0091  -1.0030  -1.0008  -0.9989  -0.9967  -0.9945  -0.9748
    -0.9517  -0.9503  -0.9492  -0.9478  -0.9259  -0.9258  -0.9253  -0.9240
    -0.8672  -0.8616  -0.8613  -0.8416  -0.8395  -0.8386  -0.8381  -0.8120
    -0.8116  -0.8115  -0.8092  -0.8064  -0.8058  -0.7967  -0.7663  -0.7656
    -0.7644  -0.7636  -0.7424  -0.7414  -0.7383  -0.7125  -0.7118  -0.6681
    -0.6669  -0.6390  -0.6381  -0.6361  -0.6349  -0.6244  -0.6170  -0.6096
    -0.6083  -0.6078  -0.6066  -0.6038  -0.5902  -0.5894  -0.5870  -0.5856
    -0.5748  -0.5667  -0.5619  -0.5596  -0.5496  -0.4998  -0.4978  -0.4960
    -0.4951  -0.4522  -0.4510  -0.3696  -0.3688  -0.3678  -0.3674  -0.3431
    -0.3319  -0.3313  -0.3292  -0.3289  -0.3279  -0.3251  -0.3180  -0.2969
    -0.2896  -0.2891  -0.2884  -0.2827  -0.2773  -0.2737  -0.2714  -0.2567
    -0.2547  -0.2495  -0.2340  -0.1695  -0.1628  -0.1393  -0.1300  -0.1252
    -0.1162  -0.1143  -0.1136  -0.1088  -0.0924  -0.0688  -0.0658  -0.0644
    -0.0643  -0.0611  -0.0606  -0.0478  -0.0320  -0.0298  -0.0276  -0.0274
    -0.0252  -0.0233   0.0115   0.0118   0.0135   0.0145   0.0206   0.0467
     0.0471   0.0473   0.0474   0.0592   0.0599   0.0918   0.0920   0.0939
     0.0946   0.1036   0.1083   0.1173   0.1252   0.1391   0.1446   0.1546
     0.2059   0.2060   0.2075   0.2077   0.2119   0.2129   0.2144   0.2148
     0.2510   0.2521   0.2549   0.2575   0.2895   0.2900   0.3097   0.3159
     0.3175   0.3179   0.3186   0.3191   0.3199   0.3207   0.3210   0.3212
     0.3221   0.3228   0.3345   0.3722   0.3809   0.3982   0.4015   0.4040
     0.4079   0.4117   0.4121   0.4146   0.4149   0.4180   0.4202   0.4205
     0.4227   0.4239   0.4270   0.4285   0.4311   0.4314   0.4399   0.4435
     0.4437   0.4573   0.4575   0.4576   0.4577   0.4592   0.4595   0.4702
     0.4704   0.4709   0.4711   0.4828   0.4834   0.4946   0.4947   0.4954
     0.4957   0.5019   0.5091   0.5258   0.5291   0.5897   0.5946   0.6262
     0.6270   0.6293   0.6303   0.6475   0.6620   0.6626   0.6639   0.6645
     0.6749   0.6752   0.6778   0.6834   0.6865   0.6868   0.6876   0.6909
     0.6934   0.6939   0.6948   0.6967   0.6985   0.7002   0.7028   0.7118
     0.7140   0.7189   0.7235   0.7300   0.7310   0.7399   0.7402   0.7440
     0.7468   0.7528   0.7690   0.8153   0.8289   0.8331   0.8360   0.8364
     0.8484   0.8517   0.8620   0.8627   0.8670   0.8676   0.8703   0.8713
     0.8721   0.8733   0.8744   0.8757   0.8758   0.8806   0.8811   0.8817
     0.8871   0.8886   0.8895   0.8917   0.9097   0.9107   0.9255   0.9262
     0.9413   0.9417   0.9562   0.9579   0.9615   0.9631   0.9679   0.9700
     0.9716   0.9725   0.9742   0.9767   0.9769   0.9791   0.9896   0.9932
     0.9938   0.9975   1.0069   1.0093   1.0115   1.0184   1.0434   1.0480
     1.0487   1.0500   1.0536   1.0572   1.0660   1.0694   1.0876   1.1056
     1.1062   1.1075   1.1082   1.1087   1.1099   1.1107   1.1260   1.1529
     1.1761   1.1767   1.1798   1.1804   1.1815   1.1825   1.1872   1.1894
     1.1933   1.1944   1.1958   1.1980   1.2067   1.2091   1.2260   1.2279
     1.2296   1.2313   1.2460   1.2471   1.2477   1.2490   1.2505   1.2507
     1.2514   1.2530   1.2859   1.2863   1.2866   1.2878   1.3381   1.3431
     1.3547   1.3551   1.3562   1.3583   1.3839   1.3872   1.3893   1.3896
     1.3927   1.3994   1.4075   1.4087   1.4174   1.4189   1.4220   1.4326
     1.4336   1.4456   1.4509   1.4530   1.4567   1.4571   1.4586   1.4592
     1.4632   1.4651   1.4664   1.4687   1.4749   1.4750   1.4763   1.4772
     1.4780   1.4795   1.4829   1.4850   1.5134   1.5149   1.5171   1.5174
     1.5232   1.5455   1.5491   1.5538   1.5545   1.5552   1.5575   1.5616
     1.5722   1.5747   1.5820   1.5824   1.5831   1.5835   1.5866   1.5927
     1.5938   1.5944   1.5978   1.6025   1.6106   1.6177   1.6274   1.6332
     1.6404   1.6422   1.6503   1.6564   1.6577   1.6578   1.6579   1.6580
     1.6589   1.6601   1.6649   1.6714   1.6718   1.6729   1.6734   1.6736
     1.6741   1.6760   1.6811   1.6818   1.6825   1.6829   1.6840   1.6866
     1.6904   1.6915   1.7058   1.7078   1.7248   1.7261   1.7273   1.7304
     1.7323   1.7330   1.7342   1.7347   1.7512   1.7529   1.7572   1.7580
     1.7712   1.7714   1.7734   1.7787   1.7852   1.7894   1.7897   1.7901
     1.7991   1.8095   1.8105   1.8126   1.8139   1.8199   1.8205   1.8208
     1.8211   1.8230   1.8306   1.8388   1.8400   1.8459   1.8541   1.8546
     1.8550   1.8554   1.8624   1.8647   1.8714   1.8773   1.9158   1.9213
     1.9303   1.9480   1.9483   1.9512   1.9539   1.9895   2.3648   2.3702
     2.3720   2.3740   2.5643   2.5743   2.5882   2.5917   2.6241   2.6247
     2.6321   2.6330   2.9329   2.9472   2.9560   2.9588   3.1451   3.1693
     3.1724   3.1749   3.4052   3.5237   3.5243   3.5278   3.5361   3.8093
     3.8258   4.0644   4.0864   4.0943   4.1031   4.2492   4.2592   4.2628
     4.2669   4.3960   4.4082   4.4120   4.4139   4.4712   4.5056   4.7100
     4.8024   4.8636   5.0209   5.0543   5.0719   5.0758   5.1213   5.1615
     5.1647   5.1992   5.2259   5.3152   5.3572   5.3584   5.3831   5.3904
     5.3913   5.3943   5.4111   5.4179   5.4346   5.4541   5.4842   5.4991
     5.7642   5.8085   5.8761   5.8845   5.9534   6.0114   6.0203   6.1170
     6.3161   6.3247   6.3340   6.3448   6.3565   6.3613   6.3657   6.3864
     6.4661   6.6409   6.7486   6.7567   6.7823   6.7913   6.8212   6.8386
     7.4026   7.4161   7.4247   7.4426   7.4559   7.4603   7.7254   7.8975
     7.9116   7.9218   7.9226   7.9235   7.9277   7.9388   7.9674   8.0054
     8.1245   8.1534   8.1799   8.2005   8.2147   8.2157   8.2664   8.3577
     8.3743   8.3955   8.4095   8.4309   8.4459   8.4492   8.4664   8.4748
     8.5059   8.5175   8.6484   8.6565   8.8031   9.1381   9.1469   9.1498
     9.1542   9.1608   9.1760   9.1799   9.1843   9.3404   9.3886   9.3908
     9.3970   9.4164   9.4246   9.5740   9.5987   9.6045   9.6711   9.7473
     9.8344   9.8470   9.8570   9.8616   9.8661   9.8724   9.8806   9.8937

          k =-0.5000-0.2165 0.0000 (256328 PWs)   bands (ev):

   -15.4820 -15.4764 -15.4639 -15.3501 -14.7395 -14.7313 -14.7198 -14.5816
   -13.2899 -13.2867 -13.2464 -13.1704 -11.6677 -11.6643 -11.6360 -11.5667
   -11.2424 -11.2144 -11.1941 -11.1495 -11.0548 -11.0325 -11.0202 -10.8470
    -9.3678  -9.3301  -9.2931  -9.2188  -8.4205  -8.3728  -8.3323  -8.2167
    -7.6836  -7.5886  -7.5702  -7.5037  -5.7187  -5.5365  -5.4999  -5.4540
    -4.9998  -4.9092  -4.8550  -4.8450  -4.8427  -4.8390  -4.8277  -4.7873
    -4.6923  -4.6849  -4.6414  -4.5689  -4.2503  -4.0309  -4.0113  -4.0055
    -3.8774  -3.8618  -3.8606  -3.8584  -3.8290  -3.8257  -3.7682  -3.7132
    -3.6491  -3.5491  -3.5394  -3.5248  -3.3896  -3.2981  -3.2784  -3.2746
    -3.2581  -3.2522  -3.2147  -3.1699  -3.0851  -3.0748  -3.0255  -2.9829
    -2.8179  -2.7085  -2.6876  -2.6729  -2.2744  -2.2394  -2.2393  -2.2385
    -2.2312  -2.1867  -2.1854  -2.1770  -2.0723  -1.9499  -1.9154  -1.8841
    -1.8316  -1.7603  -1.7554  -1.7424  -1.7364  -1.6831  -1.6740  -1.6716
    -1.6662  -1.6558  -1.6155  -1.6024  -1.4664  -1.4632  -1.4625  -1.4584
    -1.4544  -1.3844  -1.3739  -1.3094  -1.2368  -1.1599  -1.1516  -1.1509
    -1.1509  -1.1507  -1.1483  -1.1159  -1.1152  -1.1134  -1.1086  -1.1006
    -1.0928  -1.0926  -1.0904  -1.0903  -1.0435  -1.0431  -1.0421  -1.0418
    -1.0408  -1.0401  -1.0352  -1.0320  -1.0167  -1.0165  -1.0161  -1.0160
    -0.9672  -0.9665  -0.9663  -0.9642  -0.9088  -0.8908  -0.8897  -0.8876
    -0.8485  -0.8482  -0.8470  -0.8469  -0.8324  -0.8298  -0.8289  -0.8273
    -0.8018  -0.7795  -0.7789  -0.7784  -0.7771  -0.7743  -0.7742  -0.7740
    -0.7714  -0.7550  -0.7478  -0.7423  -0.7171  -0.7165  -0.7106  -0.7087
    -0.6999  -0.6996  -0.6956  -0.6950  -0.6948  -0.6932  -0.6929  -0.6920
    -0.6803  -0.6476  -0.5575  -0.5435  -0.5427  -0.5405  -0.5387  -0.5341
    -0.5102  -0.5095  -0.5092  -0.5085  -0.4757  -0.4293  -0.4284  -0.4276
    -0.4254  -0.4202  -0.4201  -0.4195  -0.4177  -0.4175  -0.4129  -0.4078
    -0.3616  -0.3573  -0.3568  -0.3552  -0.3492  -0.3481  -0.3467  -0.3450
    -0.3268  -0.3266  -0.3226  -0.3183  -0.2772  -0.2346  -0.2339  -0.2297
    -0.2276  -0.2268  -0.2202  -0.2174  -0.2067  -0.1574  -0.1568  -0.1551
    -0.1532  -0.1067  -0.1064  -0.1055  -0.1046  -0.0867  -0.0864  -0.0847
    -0.0835  -0.0623  -0.0615  -0.0547  -0.0507  -0.0475  -0.0471  -0.0456
    -0.0449  -0.0093  -0.0058  -0.0030   0.0058   0.0676   0.0678   0.0716
     0.0724   0.0857   0.0858   0.0863   0.0869   0.1013   0.1016   0.1019
     0.1031   0.1838   0.1844   0.1856   0.1865   0.1871   0.1885   0.1900
     0.1916   0.1920   0.1928   0.1936   0.1959   0.2293   0.2294   0.2295
     0.2302   0.2416   0.2419   0.2421   0.2424   0.2464   0.2472   0.2477
     0.2489   0.3147   0.3149   0.3155   0.3173   0.3399   0.3415   0.3427
     0.3451   0.3829   0.3838   0.3881   0.3954   0.3979   0.4012   0.4154
     0.4186   0.4218   0.4226   0.4234   0.4242   0.4293   0.4308   0.4313
     0.4331   0.4344   0.4359   0.4418   0.4422   0.4433   0.4444   0.4467
     0.4468   0.4474   0.4479   0.4525   0.4625   0.4654   0.4656   0.4664
     0.4724   0.4923   0.4924   0.4925   0.4927   0.5021   0.5035   0.5038
     0.5068   0.5533   0.5536   0.5538   0.5540   0.5863   0.5866   0.5873
     0.5882   0.6355   0.6497   0.6546   0.6656   0.6679   0.6690   0.6698
     0.6719   0.6758   0.6819   0.6876   0.6881   0.6890   0.6897   0.7006
     0.7010   0.7020   0.7066   0.7090   0.7093   0.7113   0.7121   0.7136
     0.7159   0.7171   0.7199   0.7220   0.7281   0.7374   0.7750   0.7804
     0.7906   0.7927   0.7958   0.7974   0.7995   0.8012   0.8034   0.8052
     0.8064   0.8068   0.8098   0.8308   0.8448   0.8498   0.8503   0.8524
     0.8534   0.8559   0.8594   0.8648   0.8943   0.8955   0.8967   0.8989
     0.9072   0.9090   0.9098   0.9106   0.9116   0.9138   0.9154   0.9178
     0.9182   0.9203   0.9228   0.9277   0.9333   0.9355   0.9362   0.9376
     0.9394   0.9483   0.9525   0.9560   1.0102   1.0192   1.0196   1.0230
     1.0252   1.0259   1.0279   1.0285   1.0297   1.0321   1.0328   1.0333
     1.0459   1.0497   1.0552   1.0629   1.0686   1.0690   1.0693   1.0708
     1.0710   1.0724   1.0730   1.0791   1.1208   1.1237   1.1244   1.1297
     1.1539   1.1540   1.1554   1.1563   1.1692   1.1698   1.1867   1.1874
     1.1880   1.1900   1.1931   1.2028   1.2146   1.2146   1.2182   1.2225
     1.2667   1.2681   1.2687   1.2702   1.2997   1.3003   1.3013   1.3016
     1.3261   1.3519   1.3533   1.3540   1.3581   1.3675   1.3693   1.3722
     1.3794   1.3813   1.3822   1.3829   1.3853   1.3856   1.3859   1.3863
     1.3888   1.3889   1.3908   1.3921   1.4031   1.4130   1.4139   1.4168
     1.4181   1.4196   1.4207   1.4227   1.4240   1.4252   1.4298   1.4333
     1.4370   1.4399   1.4408   1.4422   1.4634   1.4637   1.4642   1.4649
     1.4713   1.4738   1.4779   1.4789   1.4828   1.4843   1.4896   1.4924
     1.5274   1.5298   1.5328   1.5332   1.5349   1.5370   1.5384   1.5409
     1.5627   1.5629   1.5634   1.5642   1.5712   1.5798   1.5806   1.5854
     1.5901   1.5974   1.5999   1.6096   1.6110   1.6123   1.6129   1.6152
     1.6211   1.6213   1.6224   1.6229   1.6283   1.6292   1.6302   1.6325
     1.6844   1.6933   1.6943   1.6948   1.6949   1.6954   1.6957   1.6965
     1.6968   1.7041   1.7061   1.7085   1.7122   1.7137   1.7150   1.7177
     1.7186   1.7246   1.7250   1.7254   1.7281   1.7319   1.7324   1.7331
     1.7346   1.7357   1.7371   1.7377   1.7400   1.7486   1.7492   1.7541
     1.7573   1.7578   1.7582   1.7596   1.7898   1.7900   1.7903   1.7904
     1.8033   1.8035   1.8055   1.8067   1.8135   1.8201   1.8239   1.8252
     1.8372   1.8431   1.8437   1.8453   1.8710   1.8975   1.8983   1.9051
     1.9142   1.9146   1.9149   1.9156   1.9408   1.9446   1.9448   1.9483
     1.9501   1.9526   1.9528   1.9530   1.9567   1.9573   1.9593   1.9614
     2.1724   2.1746   2.1756   2.1764   2.6691   2.6756   2.6765   2.6813
     2.8838   2.8982   2.8984   2.9024   3.0944   3.1303   3.1350   3.1363
     3.3552   3.4154   3.4241   3.4295   3.5182   3.7914   3.7929   3.7937
     3.7964   3.9790   3.9799   3.9812   3.9991   4.2673   4.2681   4.2687
     4.2708   4.5249   4.5621   4.5667   4.5678   4.5829   4.6402   4.6441
     4.6664   4.8316   4.8851   4.8990   4.9007   4.9225   4.9285   4.9376
     4.9617   5.1193   5.2076   5.2136   5.2916   5.3262   5.3871   5.4050
     5.4936   5.5084   5.5129   5.5146   5.5505   5.5810   5.6224   5.6453
     5.6619   5.6758   5.6834   5.7002   5.7796   5.9333   6.0449   6.0570
     6.0855   6.0865   6.0893   6.0912   6.1921   6.1940   6.2016   6.2866
     7.1000   7.1095   7.1308   7.1359   7.1562   7.4254   7.4528   7.4544
     7.4647   7.4763   7.4889   7.4890   7.5210   7.5626   7.5806   7.5971
     7.6127   7.6820   7.6839   7.6851   7.6911   7.8380   7.8816   7.9572
     7.9663   7.9806   8.0883   8.1364   8.1503   8.2133   8.2587   8.3064
     8.3239   8.3480   8.3585   8.3701   8.5581   8.5674   8.5780   8.5920
     8.7391   8.7808   8.7925   8.7950   8.9549   9.0246   9.0725   9.0999
     9.2102   9.2217   9.2246   9.2280   9.2846   9.2896   9.2982   9.3019
[...]
     atom   25 type  1   force =     0.00000896   -0.00004819   -0.00000215
     atom   26 type  1   force =     0.00000715   -0.00002469   -0.00000044
     atom   27 type  1   force =     0.00000243   -0.00004346   -0.00000635
     atom   28 type  1   force =     0.00000448   -0.00003616   -0.00002573
     atom   29 type  1   force =     0.00001004   -0.00004214    0.00000514
     atom   30 type  1   force =     0.00000101   -0.00004705    0.00002510
     atom   31 type  1   force =    -0.00000394   -0.00004577    0.00000463
     atom   32 type  1   force =     0.00000611   -0.00005723    0.00000874
     atom   33 type  1   force =    -0.00000114   -0.00005309    0.00003063
     atom   34 type  1   force =     0.00000482   -0.00005489    0.00002360
     atom   35 type  1   force =     0.00000383   -0.00006384    0.00002298
     atom   36 type  1   force =    -0.00000072   -0.00003892    0.00000741
     atom   37 type  1   force =     0.00001067   -0.00007908    0.00002759
     atom   38 type  1   force =     0.00000868   -0.00006709    0.00001781
     atom   39 type  1   force =     0.00000437   -0.00008084    0.00005313
     atom   40 type  1   force =     0.00000648   -0.00006676    0.00003022
     atom   41 type  1   force =    -0.00000098   -0.00007744   -0.00002416
     atom   42 type  1   force =     0.00000895   -0.00007544   -0.00006374
     atom   43 type  1   force =     0.00002465   -0.00007082   -0.00000260
     atom   44 type  1   force =     0.00000490   -0.00007573   -0.00004501
     atom   45 type  1   force =    -0.00000108   -0.00006395   -0.00000846
     atom   46 type  1   force =    -0.00000027   -0.00003754   -0.00000208
     atom   47 type  1   force =     0.00001859   -0.00008095   -0.00002155
     atom   48 type  1   force =     0.00000116   -0.00004622   -0.00001022
     atom   49 type  1   force =    -0.00000531   -0.00001203   -0.00000639
     atom   50 type  1   force =    -0.00000827   -0.00005332    0.00000921
     atom   51 type  1   force =     0.00000702   -0.00003584    0.00002441
     atom   52 type  1   force =    -0.00000155   -0.00003309   -0.00000254
     atom   53 type  1   force =    -0.00000874   -0.00005021    0.00001831
     atom   54 type  1   force =    -0.00000894   -0.00006489    0.00000403
     atom   55 type  1   force =     0.00000070   -0.00005304    0.00002735
     atom   56 type  1   force =    -0.00001716   -0.00005885    0.00001527
     atom   57 type  1   force =    -0.00001252   -0.00007343    0.00002524
     atom   58 type  1   force =     0.00002210   -0.00007892    0.00001932
     atom   59 type  1   force =     0.00000653   -0.00008822    0.00002419
     atom   60 type  1   force =    -0.00000893   -0.00007336    0.00000008
     atom   61 type  1   force =     0.00001242   -0.00011147   -0.00005511
     atom   62 type  1   force =     0.00003270   -0.00006574   -0.00001972
     atom   63 type  1   force =     0.00001561   -0.00008867   -0.00002326
     atom   64 type  1   force =    -0.00000292   -0.00008098    0.00001506
     atom   65 type  1   force =    -0.00000072    0.00000692   -0.00001286
     atom   66 type  1   force =    -0.00000315   -0.00004103   -0.00006634
     atom   67 type  1   force =    -0.00001181   -0.00007138   -0.00000615
     atom   68 type  1   force =     0.00001553   -0.00005746   -0.00005816
     atom   69 type  1   force =     0.00000070   -0.00004489    0.00006967
     atom   70 type  1   force =     0.00002036   -0.00003665    0.00001456
     atom   71 type  1   force =    -0.00002332   -0.00006354    0.00004911
     atom   72 type  1   force =    -0.00000702   -0.00004825    0.00001384
     atom   73 type  1   force =    -0.00001420   -0.00007731    0.00007555
     atom   74 type  1   force =    -0.00002286   -0.00009003    0.00000456
     atom   75 type  1   force =    -0.00001928   -0.00007439    0.00004479
     atom   76 type  1   force =     0.00001324   -0.00007056    0.00000353
     atom   77 type  1   force =    -0.00000574   -0.00006976   -0.00004196
     atom   78 type  1   force =    -0.00000903   -0.00009641    0.00000755
     atom   79 type  1   force =     0.00001256   -0.00006559    0.00000172
     atom   80 type  1   force =    -0.00002816   -0.00007304   -0.00000182
     atom   81 type  1   force =     0.00001597   -0.00009631    0.00000773
     atom   82 type  1   force =     0.00000729   -0.00003523   -0.00007810
     atom   83 type  1   force =    -0.00000865   -0.00009335    0.00005240
     atom   84 type  1   force =    -0.00000564   -0.00003770   -0.00012298
     atom   85 type  1   force =     0.00003103   -0.00000193   -0.00011445
     atom   86 type  1   force =    -0.00001095   -0.00006848    0.00004227
     atom   87 type  1   force =    -0.00004435   -0.00009039   -0.00006485
     atom   88 type  1   force =    -0.00000642   -0.00006719   -0.00002357
     atom   89 type  1   force =     0.00006726   -0.00008562    0.00002222
     atom   90 type  1   force =    -0.00003205   -0.00006529    0.00007108
     atom   91 type  1   force =    -0.00005872   -0.00007577    0.00000846
     atom   92 type  1   force =    -0.00000488   -0.00009264    0.00000038
     atom   93 type  1   force =     0.00002024   -0.00006421    0.00008825
     atom   94 type  1   force =    -0.00000195   -0.00006557    0.00000417
     atom   95 type  1   force =    -0.00003605   -0.00008214    0.00004610
     atom   96 type  1   force =    -0.00000897   -0.00007103    0.00001109
     atom   97 type  1   force =    -0.00002367   -0.00001913    0.00010432
     atom   98 type  1   force =     0.00002134   -0.00008292   -0.00005462
     atom   99 type  1   force =    -0.00001705   -0.00004031    0.00003716
     atom  100 type  1   force =    -0.00002895   -0.00008492   -0.00006535
     atom  101 type  2   force =     0.00003802    0.00026941    0.00021995
     atom  102 type  2   force =     0.00018109    0.00012283   -0.00087124
     atom  103 type  2   force =    -0.00022815    0.00016293   -0.00017491
     atom  104 type  2   force =     0.00018870    0.00053806   -0.00007471
     atom  105 type  2   force =     0.00010302    0.00000953    0.00011891
     atom  106 type  2   force =    -0.00028650    0.00012211    0.00030721
     atom  107 type  2   force =    -0.00017289    0.00012409    0.00009840
     atom  108 type  2   force =    -0.00009808    0.00020932   -0.00023165
     atom  109 type  2   force =     0.00006138    0.00038041    0.00004373
     atom  110 type  2   force =    -0.00019243    0.00036226   -0.00035536
     atom  111 type  2   force =     0.00008275    0.00012859   -0.00051814
     atom  112 type  2   force =    -0.00007623    0.00010777    0.00026162
     atom  113 type  2   force =    -0.00010327    0.00021935    0.00043871
     atom  114 type  2   force =     0.00022521    0.00026561   -0.00000761
     atom  115 type  2   force =     0.00022081    0.00010811    0.00058210
     atom  116 type  2   force =     0.00000273    0.00014804   -0.00021543
     atom  117 type  2   force =    -0.00014308    0.00019747   -0.00019813
     atom  118 type  2   force =     0.00023777   -0.00004271    0.00005876
     atom  119 type  2   force =    -0.00034159    0.00041238   -0.00050849
     atom  120 type  2   force =    -0.00026533   -0.00013148    0.00014946
     atom  121 type  3   force =     0.00030892   -0.00030414    0.00002335
     atom  122 type  2   force =     0.00009640    0.00005480    0.00025945
     atom  123 type  2   force =    -0.00019304    0.00015560   -0.00041522
     atom  124 type  2   force =     0.00006881   -0.00006592   -0.00037288
     atom  125 type  2   force =     0.00038884   -0.00015237    0.00015064
     atom  126 type  2   force =     0.00047376   -0.00005683   -0.00003352
     atom  127 type  2   force =    -0.00011271    0.00019643    0.00028366
     atom  128 type  2   force =     0.00014969    0.00002501    0.00028491
     atom  129 type  2   force =    -0.00003775   -0.00005845    0.00013071
     atom  130 type  2   force =    -0.00025615    0.00027780    0.00012260
     atom  131 type  2   force =    -0.00004382    0.00028913    0.00005381
     atom  132 type  2   force =    -0.00016512   -0.00003814    0.00027360
     atom  133 type  2   force =    -0.00046121   -0.00008362   -0.00018199
     atom  134 type  2   force =    -0.00031971    0.00008889    0.00037901
     atom  135 type  2   force =    -0.00003390    0.00002780   -0.00049525
     atom  136 type  2   force =    -0.00017351    0.00047747   -0.00041512
     atom  137 type  2   force =     0.00004064    0.00006038    0.00021651
     atom  138 type  2   force =     0.00017304    0.00006180    0.00042833
     atom  139 type  2   force =     0.00022987   -0.00006665    0.00043276
     atom  140 type  2   force =     0.00000020    0.00031463   -0.00013509
     atom  141 type  2   force =     0.00003016    0.00004164   -0.00038529
     atom  142 type  2   force =    -0.00000154    0.00002851    0.00013778
     atom  143 type  2   force =     0.00019075    0.00011604   -0.00028162
     atom  144 type  2   force =    -0.00014225    0.00028257    0.00013341
     atom  145 type  2   force =     0.00021416    0.00040305    0.00021727
     atom  146 type  2   force =    -0.00015155   -0.00005736   -0.00008633
     atom  147 type  2   force =     0.00001528   -0.00003072    0.00048715
     atom  148 type  2   force =    -0.00004497    0.00036033   -0.00025136
     atom  149 type  2   force =     0.00016737    0.00018876   -0.00085051

     Total force =     0.003204     Total SCF correction =     0.000120

     number of scf cycles    =  28
     number of bfgs steps    =  27

     energy   old            =  -12699.9950726786 Ry
     energy   new            =  -12699.9950865861 Ry

     CASE: energy  _new < energy  _old

     new trust radius        =       0.0053593467 bohr
     new conv_thr            =       0.0000000014 Ry


ATOMIC_POSITIONS (angstrom)
Cu       0.000783646  -0.001992654   7.367022070
Cu       1.845099279   1.704434127   7.367265650
Cu       3.689797387  -0.001497907   7.366975260
Cu       5.534498526   1.704579609   7.367287497
Cu       0.000723006   3.408571399   7.366869818
Cu       1.845317796   5.111027499   7.364623134
Cu       3.689845036   3.408352500   7.366342640
Cu       5.534327855   5.111061391   7.364494274
Cu       0.000819697   6.813431055   7.363022938
Cu       1.845452943   8.515544432   7.364013611
Cu       3.689862017   6.813317613   7.362969311
Cu       5.534320055   8.515480357   7.363928583
Cu       0.000856867  10.216961627   7.366461779
Cu       1.845410728  11.918789893   7.368609942
Cu       3.689916909  10.217101755   7.367015648
Cu       5.534379976  11.918673375   7.368628660
Cu       0.000794928  13.622602644   7.368255036
Cu       1.845377292  15.329244117   7.367047318
Cu       3.689889417  13.622290538   7.368334680
Cu       5.534281429  15.329238110   7.367239714
Cu       0.000842214   1.704363723   9.198733719
Cu       1.845316741  -0.002268658   9.196417899
Cu       3.689869099   1.704925723   9.198655286
Cu       5.534431787  -0.002233646   9.196335442
Cu       0.000866528   5.113502621   9.199072335
Cu       1.845420410   3.410068008   9.199591678
Cu       3.689964786   5.113015401   9.198804026
Cu       5.534369942   3.410161191   9.199768386
Cu       0.000947247   8.513341982   9.199290140
Cu       1.845537324   6.813700578   9.198216928
Cu       3.690059767   8.512915757   9.199636229
Cu       5.534414259   6.813706271   9.198323992
Cu       0.001016535  11.917184675   9.201942486
Cu       1.845608638  10.214030209   9.201901068
Cu       3.690061272  11.917478900   9.202873104
Cu       5.534500366  10.213937053   9.202030562
Cu       0.000875573  15.329520739   9.196382490
Cu       1.845466214  13.622966528   9.199375659
Cu       3.689935426  15.329683115   9.195804526
Cu       5.534518548  13.622916724   9.199417695
Cu       0.001031177  -0.004408780  11.034986789
Cu       1.845908701   1.703424082  11.036232319
Cu       3.689952066  -0.004210308  11.034034119
Cu       5.534113434   1.703424835  11.036225271
Cu       0.001008053   3.411398608  11.038954967
Cu       1.845820063   5.115214232  11.042796573
Cu       3.690037370   3.412068819  11.040639203
Cu       5.534384956   5.115307111  11.043012319
Cu       0.001145706   6.814313720  11.045342941
Cu       1.845424864   8.509954209  11.045982537
Cu       3.690079003   6.812787775  11.045674323
Cu       5.534987461   8.509836710  11.046131196
Cu       0.001196613  10.210739170  11.045229369
Cu       1.845644379  11.916851916  11.041971903
Cu       3.690267495  10.209444229  11.045115173
Cu       5.534942188  11.916823218  11.042032772
Cu       0.001217624  13.624149847  11.038103872
Cu       1.845255799  15.330316989  11.035488486
Cu       3.690205936  13.626163217  11.038246826
Cu       5.534941498  15.330308314  11.035610685
Cu       0.001119527   1.700993403  12.866889102
Cu       1.846546264  -0.004551665  12.872715812
Cu       3.690281547   1.698858837  12.870817777
Cu       5.533874494  -0.004512147  12.872712113
Cu       0.001125484   5.114147383  12.883582376
Cu       1.849058964   3.409080748  12.874462097
Cu       3.690436140   5.116563760  12.891218200
Cu       5.531496790   3.408931227  12.874732511
Cu       0.001185658   8.508906168  12.897285770
Cu       1.847221271   6.812457525  12.895488227
Cu       3.690354746   8.504733059  12.895346673
Cu       5.533213236   6.812580748  12.895729299
Cu       0.001321604  11.917869543  12.878483850
Cu       1.844425780  10.208572263  12.884458475
Cu       3.690430244  11.918450673  12.871701232
Cu       5.536247365  10.208559480  12.884611035
Cu       0.001219160  15.330253978  12.876662965
Cu       1.844206250  13.627246418  12.874704344
Cu       3.690336457  15.333051277  12.876716482
Cu       5.536638844  13.627254667  12.874832844
Cu       0.001265553   0.001251368  14.684015537
Cu       1.846444568   1.700178394  14.682619964
Cu       3.690657939  -0.000622841  14.697465127
Cu       5.534626020   1.699765876  14.683688544
Cu       0.001039449   3.401860033  14.673343568
Cu       1.859073612   5.102267546  14.701709697
Cu       3.691039056   3.390712536  14.694836816
Cu       5.521862270   5.102357113  14.702576071
Cu       0.000818294   6.801902742  14.712105035
Cu       1.851392458   8.512860721  14.719535922
Cu       3.690680179   6.812442869  14.750070127
Cu       5.529124766   8.513036670  14.720444533
Cu       0.000957797  10.215223585  14.708698491
Cu       1.840340459  11.920466133  14.683391309
Cu       3.690641547  10.224423970  14.691538926
Cu       5.540341050  11.920877590  14.683679940
Cu       0.001482787  13.627622756  14.696376214
Cu       1.846962461  15.332630323  14.690502940
Cu       3.690421217  13.620240463  14.680441632
Cu       5.533890658  15.332454120  14.691090833
C        0.002213242   0.721639992  17.616851424
C        0.002349108   2.139729581  17.601840379
C        1.231893764   0.013243579  17.613348476
C        1.230292604   2.848858853  17.578890778
C        2.460629830   0.722546633  17.598479584
C        2.460470808   2.140901916  17.585242953
C        3.691234109   0.011673643  17.594010822
C        3.691912535   2.855174893  17.586916386
C        4.922138314   0.722207739  17.602659510
C        4.922733258   2.140518388  17.590020969
C        6.150650506   0.012994966  17.616477353
C        6.152531001   2.848987069  17.582889407
C        0.002453195   4.978150107  17.540845065
C        0.002293628   6.397273508  17.527781561
C        1.228962927   4.266888975  17.549926369
C        1.234604186   7.105364087  17.592866418
C        2.456958728   4.983777881  17.587573077
C        2.441224914   6.389128251  17.643741427
C        3.691771155   4.269616725  17.611941409
C        3.690811088   7.108276163  18.025969325
H        3.686067140   7.090233414  19.153077581
C        4.926403661   4.983973857  17.591126923
C        4.941725445   6.389243658  17.649130570
C        6.154198043   4.267092326  17.554269300
C        6.148226494   7.105299434  17.596100422
C        0.002965881   9.237882638  17.611659416
C        0.002969664  10.662611449  17.571408260
C        1.232640857   8.532068094  17.628948171
C        1.233172216  11.374091170  17.568098714
C        2.468553772   9.246958458  17.630581710
C        2.464207548  10.668600607  17.591742500
C        3.692254021   8.559852071  17.687618250
C        3.692241834  11.376443328  17.602194594
C        4.916006418   9.247100628  17.634055644
C        4.920475063  10.668675886  17.595489744
C        6.151352919   8.532013476  17.633101425
C        6.150954517  11.374363108  17.571222813
C        0.002392224  13.505089571  17.564641383
C        0.001902645  14.924389219  17.597180843
C        1.233245521  12.794295290  17.570953604
C        1.231246668  15.633218870  17.602687367
C        2.461987089  13.503567062  17.594400473
C        2.461730415  14.922905080  17.597993492
C        3.691821051  12.796227661  17.599961746
C        3.690924028  15.631765627  17.605423569
C        4.921040540  13.503884389  17.596838653
C        4.920299730  14.923105474  17.601167214
C        6.149790473  12.794466553  17.572728811
C        6.150668907  15.633247245  17.606262829



     Writing output data file gc.save
     Check: negative starting charge=   -0.001824
     NEW-OLD atomic charge density approx. for the potential
     Check: negative starting charge=   -0.001824

     negative rho (up, down):  1.871E-03 0.000E+00

     total cpu time spent up to now is   149886.4 secs

     Self-consistent Calculation

     iteration #  1     ecut=    80.00 Ry     beta=0.70
     Davidson diagonalization with overlap
     ethr =  1.00E-06,  avg # of iterations =  3.0

     Threshold (ethr) on eigenvalues was too large:
     Diagonalizing with lowered threshold

     Davidson diagonalization with overlap
     ethr =  2.01E-08,  avg # of iterations =  3.0

     negative rho (up, down):  1.848E-03 0.000E+00

     total cpu time spent up to now is   150828.5 secs

     total energy              =  -12699.99508911 Ry
     Harris-Foulkes estimate   =  -12699.99512044 Ry
     estimated scf accuracy    <       0.00026308 Ry

     iteration #  2     ecut=    80.00 Ry     beta=0.70
     Davidson diagonalization with overlap
     ethr =  2.03E-08,  avg # of iterations =  2.0

     negative rho (up, down):  1.835E-03 0.000E+00

     total cpu time spent up to now is   151202.8 secs

     total energy              =  -12699.99509123 Ry
     Harris-Foulkes estimate   =  -12699.99510549 Ry
     estimated scf accuracy    <       0.00004804 Ry

     iteration #  3     ecut=    80.00 Ry     beta=0.70
     Davidson diagonalization with overlap
     ethr =  3.72E-09,  avg # of iterations =  2.7

     negative rho (up, down):  1.820E-03 0.000E+00

     total cpu time spent up to now is   151669.5 secs

     total energy              =  -12699.99509572 Ry
     Harris-Foulkes estimate   =  -12699.99510290 Ry
     estimated scf accuracy    <       0.00008029 Ry

     iteration #  4     ecut=    80.00 Ry     beta=0.70
     Davidson diagonalization with overlap
     ethr =  3.72E-09,  avg # of iterations =  2.0

     negative rho (up, down):  1.819E-03 0.000E+00

     total cpu time spent up to now is   152046.9 secs

     total energy              =  -12699.99509871 Ry
     Harris-Foulkes estimate   =  -12699.99509886 Ry
     estimated scf accuracy    <       0.00000139 Ry

     iteration #  5     ecut=    80.00 Ry     beta=0.70
     Davidson diagonalization with overlap
     ethr =  1.07E-10,  avg # of iterations =  3.0

     negative rho (up, down):  1.821E-03 0.000E+00

     total cpu time spent up to now is   152495.4 secs

     total energy              =  -12699.99509878 Ry
     Harris-Foulkes estimate   =  -12699.99509889 Ry
     estimated scf accuracy    <       0.00000066 Ry

     iteration #  6     ecut=    80.00 Ry     beta=0.70
     Davidson diagonalization with overlap
