
     Program PWSCF v.5.4.0 starts on 26Apr2017 at 18:27:22 

     This program is part of the open-source Quantum ESPRESSO suite
     for quantum simulation of materials; please cite
         "P. Giannozzi et al., J. Phys.:Condens. Matter 21 395502 (2009);
          URL http://www.quantum-espresso.org", 
     in publications or presentations arising from this work. More details at
     http://www.quantum-espresso.org/quote

     Parallel version (MPI & OpenMP), running on      56 processor cores
     Number of MPI processes:                56
     Threads/MPI process:                     1
     R & G space division:  proc/nbgrp/npool/nimage =      56
     Waiting for input...
     Reading input from standard input
Warning: card &IONS ignored
Warning: card / ignored

     Current dimensions of program PWSCF are:
     Max number of different atomic species (ntypx) = 10
     Max number of k-points (npk) =  40000
     Max angular momentum in pseudopotentials (lmaxx) =  3

     -------------------------------------
     Parameters for Dispersion Correction:
     -------------------------------------
       atom      VdW radius       C_6     

        Cu         2.952        374.666
        C_h        2.744         60.710
        C          2.744         60.710
        H          1.892          4.857

     Subspace diagonalization in iterative solution of the eigenvalue problem:
     one sub-group per band group will be used
     scalapack distributed-memory algorithm (size of sub-group:  5*  5 procs)

 
     Parallelization info
     --------------------
     sticks:   dense  smooth     PW     G-vecs:    dense   smooth      PW
     Min         204     204     54                36612    36612    4962
     Max         205     205     55                36617    36617    4968
     Sum       11433   11433   3039              2050409  2050409  278033
 


     bravais-lattice index     =            0
     lattice parameter (alat)  =      13.9425  a.u.
     unit-cell volume          =   21209.0878 (a.u.)^3
     number of atoms/cell      =          154
     number of atomic types    =            4
     number of electrons       =      1304.00
     number of Kohn-Sham states=          782
     kinetic-energy cutoff     =      80.0000  Ry
     charge density cutoff     =     320.0000  Ry
     convergence threshold     =      1.0E-08
     mixing beta               =       0.7000
     number of iterations used =            8  local-TF  mixing
     Exchange-correlation      =  SLA  PW   PBE  PBE ( 1  4  3  4 0 0)

     celldm(1)=  13.942539  celldm(2)=   0.000000  celldm(3)=   0.000000
     celldm(4)=   0.000000  celldm(5)=   0.000000  celldm(6)=   0.000000

     crystal axes: (cart. coord. in units of alat)
               a(1) = (   1.000000   0.000000   0.000000 )  
               a(2) = (   0.000000   2.309401   0.000000 )  
               a(3) = (   0.000000   0.000000   3.388418 )  

     reciprocal axes: (cart. coord. in units 2 pi/alat)
               b(1) = (  1.000000  0.000000  0.000000 )  
               b(2) = (  0.000000  0.433013  0.000000 )  
               b(3) = (  0.000000  0.000000  0.295123 )  


     PseudoPot. # 1 for Cu read from file:
     /home/549/hxw549/Short/pseudopotentials/Cu.pbe-n-van_ak.UPF
     MD5 check sum: 601f7c30f7467666bec936e0661ce3e1
     Pseudo is Ultrasoft + core correction, Zval = 11.0
     Generated by new atomic code, or converted to UPF format
     Using radial grid of  867 points,  6 beta functions with: 
                l(1) =   0
                l(2) =   0
                l(3) =   1
                l(4) =   1
                l(5) =   2
                l(6) =   2
     Q(r) pseudized with  8 coefficients,  rinner =    1.400   1.400   1.400
                                                       1.400   1.400

     PseudoPot. # 2 for C  read from file:
     /home/549/hxw549/Short/pseudopotentials/C.star1s-pbe-mt_gipaw.UPF
     MD5 check sum: ef0cb3dee31bd9e4ba2a832a2c716264
     Pseudo is Norm-conserving, Zval =  5.0
     Generated by new atomic code, or converted to UPF format
     Using radial grid of 1073 points,  1 beta functions with: 
                l(1) =   0

     PseudoPot. # 3 for C  read from file:
     /home/549/hxw549/Short/pseudopotentials/C.pbe-mt_gipaw.UPF
     MD5 check sum: 5ac2f21f2c440b14befe521540822c15
     Pseudo is Norm-conserving, Zval =  4.0
     Generated by new atomic code, or converted to UPF format
     Using radial grid of 1073 points,  1 beta functions with: 
                l(1) =   0

     PseudoPot. # 4 for H  read from file:
     /home/549/hxw549/Short/pseudopotentials/H.pbe-van_ak.UPF
     MD5 check sum: 077eb6d537518a38cb46c6de387227b7
     Pseudo is Ultrasoft, Zval =  1.0
     Generated by new atomic code, or converted to UPF format
     Using radial grid of  615 points,  1 beta functions with: 
                l(1) =   0
     Q(r) pseudized with  8 coefficients,  rinner =    0.800

     atomic species   valence    mass     pseudopotential
        Cu            11.00    63.54600     Cu( 1.00)
        C_h            5.00    12.01070     C ( 1.00)
        C              4.00    12.01070     C ( 1.00)
        H              1.00     1.00783     H ( 1.00)

     No symmetry found



   Cartesian axes

     site n.     atom                  positions (alat units)
         1           Cu  tau(   1) = (   0.0002043  -0.0025717   0.9942108  )
         2           Cu  tau(   2) = (   0.2502613   0.2244800   0.9935968  )
         3           Cu  tau(   3) = (   0.5002401  -0.0038862   0.9924746  )
         4           Cu  tau(   4) = (   0.7502060   0.2245063   0.9935693  )
         5           Cu  tau(   5) = (   0.0002385   0.4557669   0.9935004  )
         6           Cu  tau(   6) = (   0.2507651   0.6896551   0.9949714  )
         7           Cu  tau(   7) = (   0.5002412   0.4563759   0.9953699  )
         8           Cu  tau(   8) = (   0.7497243   0.6896526   0.9949528  )
         9           Cu  tau(   9) = (   0.0002741   0.9239688   0.9944310  )
        10           Cu  tau(  10) = (   0.2507484   1.1588995   0.9942913  )
        11           Cu  tau(  11) = (   0.5002229   0.9239521   0.9954916  )
        12           Cu  tau(  12) = (   0.7497205   1.1588751   0.9942577  )
        13           Cu  tau(  13) = (   0.0002005   1.3941797   0.9917183  )
        14           Cu  tau(  14) = (   0.2501890   1.6270419   0.9911099  )
        15           Cu  tau(  15) = (   0.5002472   1.3936651   0.9934814  )
        16           Cu  tau(  16) = (   0.7502464   1.6270434   0.9911362  )
        17           Cu  tau(  17) = (   0.0002210   1.8550921   0.9925404  )
        18           Cu  tau(  18) = (   0.2495825   2.0811673   0.9931877  )
        19           Cu  tau(  19) = (   0.5001965   1.8563988   0.9902085  )
        20           Cu  tau(  20) = (   0.7508427   2.0811476   0.9932235  )
        21           Cu  tau(  21) = (   0.0002482   0.2242931   1.2447837  )
        22           Cu  tau(  22) = (   0.2498761  -0.0033647   1.2471709  )
        23           Cu  tau(  23) = (   0.5002534   0.2222256   1.2422400  )
        24           Cu  tau(  24) = (   0.7506131  -0.0032893   1.2472346  )
        25           Cu  tau(  25) = (   0.0002667   0.6880630   1.2386669  )
        26           Cu  tau(  26) = (   0.2499562   0.4537637   1.2405942  )
        27           Cu  tau(  27) = (   0.5002943   0.6886442   1.2414404  )
        28           Cu  tau(  28) = (   0.7505742   0.4537472   1.2405793  )
        29           Cu  tau(  29) = (   0.0002476   1.1616965   1.2368574  )
        30           Cu  tau(  30) = (   0.2501502   0.9246196   1.2399440  )
        31           Cu  tau(  31) = (   0.5002819   1.1610726   1.2392902  )
        32           Cu  tau(  32) = (   0.7504072   0.9246098   1.2398995  )
        33           Cu  tau(  33) = (   0.0002198   1.6276529   1.2413369  )
        34           Cu  tau(  34) = (   0.2500613   1.3973758   1.2371512  )
        35           Cu  tau(  35) = (   0.5002401   1.6298765   1.2389540  )
        36           Cu  tau(  36) = (   0.7504172   1.3973475   1.2371744  )
        37           Cu  tau(  37) = (   0.0002075   2.0807183   1.2476202  )
        38           Cu  tau(  38) = (   0.2497642   1.8554798   1.2448912  )
        39           Cu  tau(  39) = (   0.5002618   2.0801741   1.2465346  )
        40           Cu  tau(  40) = (   0.7507077   1.8554268   1.2449327  )
        41           Cu  tau(  41) = (   0.0002334  -0.0025479   1.5022411  )
        42           Cu  tau(  42) = (   0.2492996   0.2254476   1.4970463  )
        43           Cu  tau(  43) = (   0.5003214  -0.0027157   1.4992700  )
        44           Cu  tau(  44) = (   0.7512954   0.2255017   1.4971177  )
        45           Cu  tau(  45) = (   0.0003236   0.4551980   1.4912380  )
        46           Cu  tau(  46) = (   0.2489867   0.6863144   1.4839175  )
        47           Cu  tau(  47) = (   0.5002861   0.4519356   1.4867713  )
        48           Cu  tau(  48) = (   0.7516492   0.6862933   1.4839869  )
        49           Cu  tau(  49) = (   0.0002891   0.9256767   1.4809594  )
        50           Cu  tau(  50) = (   0.2492486   1.1657936   1.4807251  )
        51           Cu  tau(  51) = (   0.5003544   0.9256491   1.4819086  )
        52           Cu  tau(  52) = (   0.7513260   1.1657516   1.4807751  )
        53           Cu  tau(  53) = (   0.0002539   1.3977035   1.4865052  )
        54           Cu  tau(  54) = (   0.2494736   1.6273793   1.4925966  )
        55           Cu  tau(  55) = (   0.5002895   1.4001490   1.4829612  )
        56           Cu  tau(  56) = (   0.7510670   1.6273340   1.4927039  )
        57           Cu  tau(  57) = (   0.0002574   1.8538138   1.5005000  )
        58           Cu  tau(  58) = (   0.2505253   2.0800732   1.5028238  )
        59           Cu  tau(  59) = (   0.5002697   1.8533783   1.4989645  )
        60           Cu  tau(  60) = (   0.7500065   2.0800441   1.5027965  )
        61           Cu  tau(  61) = (   0.0002937   0.2304988   1.7509922  )
        62           Cu  tau(  62) = (   0.2500863   0.0006243   1.7553958  )
        63           Cu  tau(  63) = (   0.5003616   0.2277639   1.7456260  )
        64           Cu  tau(  64) = (   0.7505373   0.0005627   1.7554292  )
        65           Cu  tau(  65) = (   0.0004664   0.6922260   1.7324316  )
        66           Cu  tau(  66) = (   0.2495677   0.4596615   1.7423903  )
        67           Cu  tau(  67) = (   0.5003916   0.6843092   1.7208806  )
        68           Cu  tau(  68) = (   0.7511618   0.4598404   1.7425480  )
        69           Cu  tau(  69) = (   0.0003083   1.1637444   1.7266669  )
        70           Cu  tau(  70) = (   0.2482537   0.9279368   1.7172561  )
        71           Cu  tau(  71) = (   0.5003366   1.1707054   1.7175919  )
        72           Cu  tau(  72) = (   0.7523780   0.9278273   1.7174595  )
        73           Cu  tau(  73) = (   0.0002651   1.6217586   1.7491300  )
        74           Cu  tau(  74) = (   0.2494393   1.3965543   1.7355819  )
        75           Cu  tau(  75) = (   0.5003389   1.6217397   1.7455006  )
        76           Cu  tau(  76) = (   0.7511621   1.3963967   1.7358119  )
        77           Cu  tau(  77) = (   0.0003291   2.0792459   1.7574384  )
        78           Cu  tau(  78) = (   0.2504323   1.8496511   1.7542337  )
        79           Cu  tau(  79) = (   0.5002783   2.0803316   1.7561957  )
        80           Cu  tau(  80) = (   0.7501861   1.8497038   1.7542225  )
        81           Cu  tau(  81) = (   0.0003184   0.0041178   2.0034186  )
        82           Cu  tau(  82) = (   0.2487642   0.2367193   2.0013239  )
        83           Cu  tau(  83) = (   0.5003358   0.0055922   2.0032012  )
        84           Cu  tau(  84) = (   0.7519720   0.2368324   2.0013947  )
        85           Cu  tau(  85) = (   0.0005168   0.4719240   1.9933684  )
        86           Cu  tau(  86) = (   0.2511744   0.7019439   1.9732905  )
        87           Cu  tau(  87) = (   0.5003937   0.4613158   1.9840152  )
        88           Cu  tau(  88) = (   0.7499376   0.7020931   1.9731588  )
        89           Cu  tau(  89) = (   0.0006719   0.9309442   1.9670230  )
        90           Cu  tau(  90) = (   0.2472093   1.1617877   1.9664531  )
        91           Cu  tau(  91) = (   0.5003359   0.9344534   1.9351709  )
        92           Cu  tau(  92) = (   0.7534211   1.1612543   1.9666763  )
        93           Cu  tau(  93) = (   0.0002357   1.3850550   1.9949752  )
        94           Cu  tau(  94) = (   0.2507924   1.6139028   2.0000820  )
        95           Cu  tau(  95) = (   0.5003821   1.3850011   1.9865794  )
        96           Cu  tau(  96) = (   0.7498026   1.6139192   2.0001243  )
        97           Cu  tau(  97) = (   0.0002643   1.8448113   2.0041961  )
        98           Cu  tau(  98) = (   0.2503795   2.0793699   2.0038159  )
        99           Cu  tau(  99) = (   0.5003582   1.8452819   2.0008624  )
       100           Cu  tau( 100) = (   0.7502529   2.0794083   2.0038345  )
       101           C   tau( 101) = (  -0.0000820   0.0994921   2.4176984  )
       102           C   tau( 102) = (  -0.0000762   0.2913254   2.4480389  )
       103           C   tau( 103) = (   0.1666439   0.0023668   2.4080360  )
       104           C   tau( 104) = (   0.1667082   0.3864411   2.4688191  )
       105           C   tau( 105) = (   0.3333383   0.0990832   2.4193349  )
       106           C   tau( 106) = (   0.3334728   0.2909126   2.4500476  )
       107           C   tau( 107) = (   0.4999784   0.0017143   2.4092302  )
       108           C   tau( 108) = (   0.4999661   0.3868195   2.4710727  )
       109           C   tau( 109) = (   0.6666262   0.0992659   2.4189926  )
       110           C   tau( 110) = (   0.6664596   0.2910804   2.4501051  )
       111           C   tau( 111) = (   0.8332539   0.0023779   2.4079829  )
       112           C   tau( 112) = (   0.8332277   0.3866350   2.4687918  )
       113           C   tau( 113) = (   0.0000403   0.6720196   2.5268195  )
       114           C   tau( 114) = (  -0.0000986   0.8652796   2.5438154  )
       115           C   tau( 115) = (   0.1668103   0.5757926   2.5119236  )
       116           C   tau( 116) = (   0.1665600   0.9627473   2.5465274  )
       117           C   tau( 117) = (   0.3330312   0.6712277   2.5370352  )
       118           C   tau( 118) = (   0.3329260   0.8649803   2.5584709  )
       119           C   tau( 119) = (   0.4999678   0.5758834   2.5165222  )
       120           C_h tau( 120) = (   0.4998989   0.9628021   2.5587465  )
       121           C   tau( 121) = (   0.6668989   0.6713415   2.5368545  )
       122           C   tau( 122) = (   0.6667893   0.8649923   2.5586673  )
       123           C   tau( 123) = (   0.8331901   0.5761062   2.5113005  )
       124           C   tau( 124) = (   0.8331969   0.9626897   2.5461120  )
       125           C   tau( 125) = (  -0.0000243   1.2500548   2.4972855  )
       126           C   tau( 126) = (  -0.0000698   1.4397649   2.4566319  )
       127           C   tau( 127) = (   0.1667246   1.1549732   2.5191366  )
       128           C   tau( 128) = (   0.1668110   1.5354076   2.4386302  )
       129           C   tau( 129) = (   0.3337215   1.2505483   2.5022062  )
       130           C   tau( 130) = (   0.3335665   1.4402136   2.4597849  )
       131           C   tau( 131) = (   0.5000231   1.1549272   2.5262646  )
       132           C   tau( 132) = (   0.4999542   1.5364756   2.4422660  )
       133           C   tau( 133) = (   0.6663535   1.2507838   2.5026745  )
       134           C   tau( 134) = (   0.6663273   1.4403280   2.4596502  )
       135           C   tau( 135) = (   0.8332364   1.1550018   2.5191954  )
       136           C   tau( 136) = (   0.8330873   1.5356002   2.4386624  )
       137           C   tau( 137) = (   0.0000116   1.8253202   2.4018558  )
       138           C   tau( 138) = (   0.0000196   2.0197421   2.3966618  )
       139           C   tau( 139) = (   0.1668197   1.7277230   2.4111725  )
       140           C   tau( 140) = (   0.1665746   2.1176017   2.3972421  )
       141           C   tau( 141) = (   0.3331845   1.8256422   2.4066204  )
       142           C   tau( 142) = (   0.3332534   2.0196932   2.3984457  )
       143           C   tau( 143) = (   0.4999370   1.7289126   2.4167529  )
       144           C   tau( 144) = (   0.5000099   2.1170870   2.4001936  )
       145           C   tau( 145) = (   0.6667327   1.8257007   2.4067262  )
       146           C   tau( 146) = (   0.6667417   2.0197320   2.3984131  )
       147           C   tau( 147) = (   0.8331274   1.7279717   2.4117050  )
       148           C   tau( 148) = (   0.8334572   2.1176137   2.3974753  )
       149           H   tau( 149) = (   0.3319518   0.9970929   2.2372295  )
       150           H   tau( 150) = (   0.3375949   0.7492820   2.2231231  )
       151           C   tau( 151) = (   0.4041456   0.8783738   2.1864677  )
       152           C   tau( 152) = (   0.5984102   0.8800587   2.1857443  )
       153           H   tau( 153) = (   0.6686529   0.9999537   2.2365904  )
       154           H   tau( 154) = (   0.6674899   0.7523297   2.2227089  )

     number of k points=     6  gaussian smearing, width (Ry)=  0.1000
                       cart. coord. in units 2pi/alat
        k(    1) = (   0.0000000   0.0000000   0.0000000), wk =   0.2500000
        k(    2) = (   0.0000000  -0.2165064   0.0000000), wk =   0.2500000
        k(    3) = (   0.2500000   0.0000000   0.0000000), wk =   0.5000000
        k(    4) = (   0.2500000  -0.2165064   0.0000000), wk =   0.5000000
        k(    5) = (  -0.5000000   0.0000000   0.0000000), wk =   0.2500000
        k(    6) = (  -0.5000000  -0.2165064   0.0000000), wk =   0.2500000

     Dense  grid:  2050409 G-vectors     FFT dimensions: (  80, 192, 270)

     Largest allocated arrays     est. size (Mb)     dimensions
        Kohn-Sham Wavefunctions        54.94 Mb     (    4604,  782)
        NL pseudopotentials           130.25 Mb     (    4604, 1854)
        Each V/rho on FFT grid          1.17 Mb     (   76800)
        Each G-vector array             0.28 Mb     (   36616)
        G-vector shells                 0.14 Mb     (   17932)
     Largest temporary arrays     est. size (Mb)     dimensions
        Auxiliary wavefunctions       219.75 Mb     (    4604, 3128)
        Each subspace H/S matrix        5.96 Mb     (     625,  625)
        Each <psi_i|beta_j> matrix     22.12 Mb     (    1854,  782)
        Arrays for rho mixing           9.38 Mb     (   76800,    8)

     Initial potential from superposition of free atoms
     Check: negative starting charge=   -0.001699

     starting charge 1277.81747, renormalised to 1304.00000

     negative rho (up, down):  1.734E-03 0.000E+00
     Starting wfc are 1304 randomized atomic wfcs

     total cpu time spent up to now is      107.3 secs

     Self-consistent Calculation

     iteration #  1     ecut=    80.00 Ry     beta=0.70
     Davidson diagonalization with overlap
     c_bands:  3 eigenvalues not converged
     c_bands:  5 eigenvalues not converged
     c_bands:  5 eigenvalues not converged
     c_bands:  5 eigenvalues not converged
     ethr =  1.00E-04,  avg # of iterations = 42.3

     negative rho (up, down):  2.554E+01 0.000E+00

     total cpu time spent up to now is     2378.4 secs

     total energy              =   -9862.39657980 Ry
     Harris-Foulkes estimate   =  -18067.97904556 Ry
     estimated scf accuracy    <  202907.11209054 Ry

     iteration #  2     ecut=    80.00 Ry     beta=0.70
     Davidson diagonalization with overlap
     ethr =  1.00E-02,  avg # of iterations = 16.3

     negative rho (up, down):  3.031E+01 0.000E+00

     total cpu time spent up to now is     3399.5 secs

     total energy              =  -11445.07136179 Ry
     Harris-Foulkes estimate   =  -13847.68936005 Ry
     estimated scf accuracy    <   44862.33460355 Ry

     iteration #  3     ecut=    80.00 Ry     beta=0.70
     Davidson diagonalization with overlap
     ethr =  1.00E-02,  avg # of iterations = 20.8

     negative rho (up, down):  3.009E+01 0.000E+00

     total cpu time spent up to now is     4881.8 secs

     total energy              =  -11880.06403672 Ry
     Harris-Foulkes estimate   =  -13975.49878576 Ry
     estimated scf accuracy    <    7942.87173234 Ry

     iteration #  4     ecut=    80.00 Ry     beta=0.70
     Davidson diagonalization with overlap
     ethr =  1.00E-02,  avg # of iterations =  4.3

     negative rho (up, down):  2.060E+01 0.000E+00

     total cpu time spent up to now is     5366.7 secs

     total energy              =  -12874.66659383 Ry
     Harris-Foulkes estimate   =  -13044.94768466 Ry
     estimated scf accuracy    <     860.07622955 Ry

     iteration #  5     ecut=    80.00 Ry     beta=0.70
     Davidson diagonalization with overlap
     ethr =  1.00E-02,  avg # of iterations =  3.0

     negative rho (up, down):  1.856E+01 0.000E+00

     total cpu time spent up to now is     5598.6 secs

     total energy              =  -12866.56960806 Ry
     Harris-Foulkes estimate   =  -12935.91196143 Ry
     estimated scf accuracy    <    3445.16686654 Ry

     iteration #  6     ecut=    80.00 Ry     beta=0.70
     Davidson diagonalization with overlap
     ethr =  1.00E-02,  avg # of iterations =  2.0

     negative rho (up, down):  1.509E+01 0.000E+00

     total cpu time spent up to now is     5777.0 secs

     total energy              =  -12838.66458061 Ry
     Harris-Foulkes estimate   =  -12903.37607066 Ry
     estimated scf accuracy    <    1097.06397600 Ry

     iteration #  7     ecut=    80.00 Ry     beta=0.70
     Davidson diagonalization with overlap
     ethr =  1.00E-02,  avg # of iterations =  2.5

     negative rho (up, down):  9.482E+00 0.000E+00

     total cpu time spent up to now is     5967.6 secs

     total energy              =  -12817.39450037 Ry
     Harris-Foulkes estimate   =  -12873.01906307 Ry
     estimated scf accuracy    <     591.10647160 Ry

     iteration #  8     ecut=    80.00 Ry     beta=0.70
     Davidson diagonalization with overlap
     ethr =  1.00E-02,  avg # of iterations =  2.0

     negative rho (up, down):  6.856E+00 0.000E+00

     total cpu time spent up to now is     6147.2 secs

     total energy              =  -12808.09229634 Ry
     Harris-Foulkes estimate   =  -12836.88796435 Ry
     estimated scf accuracy    <     339.17352133 Ry

     iteration #  9     ecut=    80.00 Ry     beta=0.70
     Davidson diagonalization with overlap
     ethr =  1.00E-02,  avg # of iterations =  1.0

     negative rho (up, down):  5.708E+00 0.000E+00

     total cpu time spent up to now is     6313.9 secs

     total energy              =  -12799.22785749 Ry
     Harris-Foulkes estimate   =  -12812.00923874 Ry
     estimated scf accuracy    <     240.14083266 Ry

     iteration # 10     ecut=    80.00 Ry     beta=0.70
     Davidson diagonalization with overlap
     ethr =  1.00E-02,  avg # of iterations =  1.0

     negative rho (up, down):  8.423E-01 0.000E+00

     total cpu time spent up to now is     6480.1 secs

     total energy              =  -12754.03292873 Ry
     Harris-Foulkes estimate   =  -12801.92993803 Ry
     estimated scf accuracy    <     243.15835940 Ry

     iteration # 11     ecut=    80.00 Ry     beta=0.70
     Davidson diagonalization with overlap
     ethr =  1.00E-02,  avg # of iterations =  3.0

     negative rho (up, down):  1.263E+00 0.000E+00

     total cpu time spent up to now is     6674.2 secs

     total energy              =  -12752.44682951 Ry
     Harris-Foulkes estimate   =  -12776.93862791 Ry
     estimated scf accuracy    <     848.62923819 Ry

     iteration # 12     ecut=    80.00 Ry     beta=0.70
     Davidson diagonalization with overlap
     ethr =  1.00E-02,  avg # of iterations =  1.0

     negative rho (up, down):  3.137E-01 0.000E+00

     total cpu time spent up to now is     6840.3 secs

     total energy              =  -12741.47939298 Ry
     Harris-Foulkes estimate   =  -12763.15464529 Ry
     estimated scf accuracy    <     467.45012418 Ry

     iteration # 13     ecut=    80.00 Ry     beta=0.70
     Davidson diagonalization with overlap
     ethr =  1.00E-02,  avg # of iterations =  2.0

     negative rho (up, down):  1.071E+00 0.000E+00

     total cpu time spent up to now is     7018.8 secs

     total energy              =  -12746.15386854 Ry
     Harris-Foulkes estimate   =  -12758.18321553 Ry
     estimated scf accuracy    <      64.68517671 Ry

     iteration # 14     ecut=    80.00 Ry     beta=0.70
     Davidson diagonalization with overlap
     ethr =  4.96E-03,  avg # of iterations =  2.0

     negative rho (up, down):  3.170E+00 0.000E+00

     total cpu time spent up to now is     7196.9 secs

     total energy              =  -12740.82375756 Ry
     Harris-Foulkes estimate   =  -12750.26832265 Ry
     estimated scf accuracy    <      63.52229072 Ry

     iteration # 15     ecut=    80.00 Ry     beta=0.70
     Davidson diagonalization with overlap
     ethr =  4.87E-03,  avg # of iterations =  2.0

     negative rho (up, down):  4.712E+00 0.000E+00

     total cpu time spent up to now is     7376.0 secs

     total energy              =  -12740.67329440 Ry
     Harris-Foulkes estimate   =  -12745.16991825 Ry
     estimated scf accuracy    <      34.62677190 Ry

     iteration # 16     ecut=    80.00 Ry     beta=0.70
     Davidson diagonalization with overlap
     ethr =  2.66E-03,  avg # of iterations =  1.5

     negative rho (up, down):  4.397E+00 0.000E+00

     total cpu time spent up to now is     7548.4 secs

     total energy              =  -12740.91105142 Ry
     Harris-Foulkes estimate   =  -12742.67519564 Ry
     estimated scf accuracy    <      16.66186934 Ry

     iteration # 17     ecut=    80.00 Ry     beta=0.70
     Davidson diagonalization with overlap
     ethr =  1.28E-03,  avg # of iterations =  1.3

     negative rho (up, down):  3.621E+00 0.000E+00

     total cpu time spent up to now is     7718.1 secs

     total energy              =  -12739.71444500 Ry
     Harris-Foulkes estimate   =  -12741.52284388 Ry
     estimated scf accuracy    <      12.17495217 Ry

     iteration # 18     ecut=    80.00 Ry     beta=0.70
     Davidson diagonalization with overlap
     ethr =  9.34E-04,  avg # of iterations =  3.8

     negative rho (up, down):  4.578E+00 0.000E+00

     total cpu time spent up to now is     7917.0 secs

     total energy              =  -12739.49335885 Ry
     Harris-Foulkes estimate   =  -12740.13242650 Ry
     estimated scf accuracy    <      10.01988835 Ry

     iteration # 19     ecut=    80.00 Ry     beta=0.70
     Davidson diagonalization with overlap
     ethr =  7.68E-04,  avg # of iterations =  7.2

     negative rho (up, down):  2.839E+00 0.000E+00

     total cpu time spent up to now is     8167.0 secs

     total energy              =  -12738.38041343 Ry
     Harris-Foulkes estimate   =  -12739.69858443 Ry
     estimated scf accuracy    <       6.79576508 Ry

     iteration # 20     ecut=    80.00 Ry     beta=0.70
     Davidson diagonalization with overlap
     ethr =  5.21E-04,  avg # of iterations =  2.2

     negative rho (up, down):  2.229E+00 0.000E+00

     total cpu time spent up to now is     8346.9 secs

     total energy              =  -12737.68172640 Ry
     Harris-Foulkes estimate   =  -12738.55735810 Ry
     estimated scf accuracy    <       7.71530591 Ry

     iteration # 21     ecut=    80.00 Ry     beta=0.70
     Davidson diagonalization with overlap
     ethr =  5.21E-04,  avg # of iterations =  1.0

     negative rho (up, down):  2.094E+00 0.000E+00

     total cpu time spent up to now is     8513.8 secs

     total energy              =  -12737.64006907 Ry
     Harris-Foulkes estimate   =  -12737.86532535 Ry
     estimated scf accuracy    <       8.83245933 Ry

     iteration # 22     ecut=    80.00 Ry     beta=0.70
     Davidson diagonalization with overlap
     ethr =  5.21E-04,  avg # of iterations =  5.7

     negative rho (up, down):  1.437E+00 0.000E+00

     total cpu time spent up to now is     8733.3 secs

     total energy              =  -12736.57911273 Ry
     Harris-Foulkes estimate   =  -12737.84961435 Ry
     estimated scf accuracy    <       5.20976447 Ry

     iteration # 23     ecut=    80.00 Ry     beta=0.70
     Davidson diagonalization with overlap
     ethr =  4.00E-04,  avg # of iterations =  3.3

     negative rho (up, down):  1.276E+00 0.000E+00

     total cpu time spent up to now is     8925.5 secs

     total energy              =  -12736.34261585 Ry
     Harris-Foulkes estimate   =  -12736.69167487 Ry
     estimated scf accuracy    <       5.36650801 Ry

     iteration # 24     ecut=    80.00 Ry     beta=0.70
     Davidson diagonalization with overlap
     ethr =  4.00E-04,  avg # of iterations =  1.5

     negative rho (up, down):  5.232E-01 0.000E+00

     total cpu time spent up to now is     9099.2 secs

     total energy              =  -12734.99807057 Ry
     Harris-Foulkes estimate   =  -12736.51034364 Ry
     estimated scf accuracy    <       4.17047829 Ry

     iteration # 25     ecut=    80.00 Ry     beta=0.70
     Davidson diagonalization with overlap
     ethr =  3.20E-04,  avg # of iterations =  5.5

     negative rho (up, down):  5.507E-01 0.000E+00

     total cpu time spent up to now is     9320.2 secs

     total energy              =  -12734.64205631 Ry
     Harris-Foulkes estimate   =  -12735.09382627 Ry
     estimated scf accuracy    <       4.22507377 Ry

     iteration # 26     ecut=    80.00 Ry     beta=0.70
     Davidson diagonalization with overlap
     ethr =  3.20E-04,  avg # of iterations =  3.3

     negative rho (up, down):  8.123E-01 0.000E+00

     total cpu time spent up to now is     9513.1 secs

     total energy              =  -12734.53755251 Ry
     Harris-Foulkes estimate   =  -12734.79255421 Ry
     estimated scf accuracy    <       1.30161892 Ry

     iteration # 27     ecut=    80.00 Ry     beta=0.70
     Davidson diagonalization with overlap
     ethr =  9.98E-05,  avg # of iterations =  7.7

     negative rho (up, down):  8.202E-01 0.000E+00

     total cpu time spent up to now is     9789.0 secs

     total energy              =  -12734.54478700 Ry
     Harris-Foulkes estimate   =  -12734.61347941 Ry
     estimated scf accuracy    <       0.45082251 Ry

     iteration # 28     ecut=    80.00 Ry     beta=0.70
     Davidson diagonalization with overlap
     ethr =  3.46E-05,  avg # of iterations =  8.3

     negative rho (up, down):  5.451E-01 0.000E+00

     total cpu time spent up to now is    10055.6 secs

     total energy              =  -12734.54152634 Ry
     Harris-Foulkes estimate   =  -12734.57030905 Ry
     estimated scf accuracy    <       0.15473421 Ry

     iteration # 29     ecut=    80.00 Ry     beta=0.70
     Davidson diagonalization with overlap
     c_bands:  1 eigenvalues not converged
     ethr =  1.19E-05,  avg # of iterations = 14.5

     negative rho (up, down):  3.630E-01 0.000E+00

     total cpu time spent up to now is    10397.3 secs

     total energy              =  -12734.53566638 Ry
     Harris-Foulkes estimate   =  -12734.54966082 Ry
     estimated scf accuracy    <       0.10959536 Ry

     iteration # 30     ecut=    80.00 Ry     beta=0.70
     Davidson diagonalization with overlap
     ethr =  8.40E-06,  avg # of iterations =  7.7

     negative rho (up, down):  2.315E-01 0.000E+00

     total cpu time spent up to now is    10664.0 secs

     total energy              =  -12734.53424771 Ry
     Harris-Foulkes estimate   =  -12734.54169956 Ry
     estimated scf accuracy    <       0.03976705 Ry

     iteration # 31     ecut=    80.00 Ry     beta=0.70
     Davidson diagonalization with overlap
     c_bands:  3 eigenvalues not converged
     c_bands:  1 eigenvalues not converged
     ethr =  3.05E-06,  avg # of iterations = 16.7

     negative rho (up, down):  1.649E-01 0.000E+00

     total cpu time spent up to now is    11049.5 secs

     total energy              =  -12734.53181506 Ry
     Harris-Foulkes estimate   =  -12734.53655432 Ry
     estimated scf accuracy    <       0.02004883 Ry

     iteration # 32     ecut=    80.00 Ry     beta=0.70
     Davidson diagonalization with overlap
     c_bands:  2 eigenvalues not converged
     ethr =  1.54E-06,  avg # of iterations = 14.2

     negative rho (up, down):  7.257E-02 0.000E+00

     total cpu time spent up to now is    11396.7 secs

     total energy              =  -12734.52775980 Ry
     Harris-Foulkes estimate   =  -12734.53318145 Ry
     estimated scf accuracy    <       0.01132647 Ry

     iteration # 33     ecut=    80.00 Ry     beta=0.70
     Davidson diagonalization with overlap
     c_bands:  1 eigenvalues not converged
     ethr =  8.69E-07,  avg # of iterations = 15.8

     negative rho (up, down):  2.239E-02 0.000E+00

     total cpu time spent up to now is    11787.5 secs

     total energy              =  -12734.52762507 Ry
     Harris-Foulkes estimate   =  -12734.52852900 Ry
     estimated scf accuracy    <       0.00346265 Ry

     iteration # 34     ecut=    80.00 Ry     beta=0.70
     Davidson diagonalization with overlap
     ethr =  2.66E-07,  avg # of iterations = 14.0

     negative rho (up, down):  1.908E-02 0.000E+00

     total cpu time spent up to now is    12146.1 secs

     total energy              =  -12734.52765817 Ry
     Harris-Foulkes estimate   =  -12734.52788802 Ry
     estimated scf accuracy    <       0.00108685 Ry

     iteration # 35     ecut=    80.00 Ry     beta=0.70
     Davidson diagonalization with overlap
     ethr =  8.33E-08,  avg # of iterations =  8.0

     negative rho (up, down):  1.210E-02 0.000E+00

     total cpu time spent up to now is    12414.8 secs

     total energy              =  -12734.52756497 Ry
     Harris-Foulkes estimate   =  -12734.52776320 Ry
     estimated scf accuracy    <       0.00040071 Ry

     iteration # 36     ecut=    80.00 Ry     beta=0.70
     Davidson diagonalization with overlap
     ethr =  3.07E-08,  avg # of iterations =  7.0

     negative rho (up, down):  8.242E-03 0.000E+00

     total cpu time spent up to now is    12664.7 secs

     total energy              =  -12734.52750773 Ry
     Harris-Foulkes estimate   =  -12734.52760829 Ry
     estimated scf accuracy    <       0.00017879 Ry

     iteration # 37     ecut=    80.00 Ry     beta=0.70
     Davidson diagonalization with overlap
     ethr =  1.37E-08,  avg # of iterations =  5.8

     negative rho (up, down):  4.862E-03 0.000E+00

     total cpu time spent up to now is    12900.6 secs

     total energy              =  -12734.52746759 Ry
     Harris-Foulkes estimate   =  -12734.52752454 Ry
     estimated scf accuracy    <       0.00005088 Ry

     iteration # 38     ecut=    80.00 Ry     beta=0.70
     Davidson diagonalization with overlap
     ethr =  3.90E-09,  avg # of iterations = 10.5

     negative rho (up, down):  2.459E-03 0.000E+00

     total cpu time spent up to now is    13203.3 secs

     total energy              =  -12734.52744181 Ry
     Harris-Foulkes estimate   =  -12734.52747408 Ry
     estimated scf accuracy    <       0.00002922 Ry

     iteration # 39     ecut=    80.00 Ry     beta=0.70
     Davidson diagonalization with overlap
     ethr =  2.24E-09,  avg # of iterations =  7.3

     negative rho (up, down):  1.802E-03 0.000E+00

     total cpu time spent up to now is    13455.8 secs

     total energy              =  -12734.52744232 Ry
     Harris-Foulkes estimate   =  -12734.52744396 Ry
     estimated scf accuracy    <       0.00000421 Ry

     iteration # 40     ecut=    80.00 Ry     beta=0.70
     Davidson diagonalization with overlap
     ethr =  3.23E-10,  avg # of iterations =  2.5

     negative rho (up, down):  1.661E-03 0.000E+00

     total cpu time spent up to now is    13652.4 secs

     total energy              =  -12734.52744251 Ry
     Harris-Foulkes estimate   =  -12734.52744284 Ry
     estimated scf accuracy    <       0.00000172 Ry

     iteration # 41     ecut=    80.00 Ry     beta=0.70
     Davidson diagonalization with overlap
     ethr =  1.32E-10,  avg # of iterations =  2.0

     negative rho (up, down):  1.777E-03 0.000E+00

     total cpu time spent up to now is    13841.7 secs

     total energy              =  -12734.52744272 Ry
     Harris-Foulkes estimate   =  -12734.52744271 Ry
     estimated scf accuracy    <       0.00000046 Ry

     iteration # 42     ecut=    80.00 Ry     beta=0.70
     Davidson diagonalization with overlap
     ethr =  3.55E-11,  avg # of iterations =  2.3

     negative rho (up, down):  1.761E-03 0.000E+00

     total cpu time spent up to now is    14041.4 secs

     total energy              =  -12734.52744277 Ry
     Harris-Foulkes estimate   =  -12734.52744279 Ry
     estimated scf accuracy    <       0.00000019 Ry

     iteration # 43     ecut=    80.00 Ry     beta=0.70
     Davidson diagonalization with overlap
     ethr =  1.42E-11,  avg # of iterations =  2.0

     negative rho (up, down):  1.789E-03 0.000E+00

     total cpu time spent up to now is    14229.4 secs

     total energy              =  -12734.52744277 Ry
     Harris-Foulkes estimate   =  -12734.52744279 Ry
     estimated scf accuracy    <       0.00000005 Ry

     iteration # 44     ecut=    80.00 Ry     beta=0.70
     Davidson diagonalization with overlap
     ethr =  3.72E-12,  avg # of iterations =  3.0

     negative rho (up, down):  1.807E-03 0.000E+00

     total cpu time spent up to now is    14454.5 secs

     total energy              =  -12734.52744278 Ry
     Harris-Foulkes estimate   =  -12734.52744278 Ry
     estimated scf accuracy    <       0.00000001 Ry

     iteration # 45     ecut=    80.00 Ry     beta=0.70
     Davidson diagonalization with overlap
     ethr =  9.65E-13,  avg # of iterations =  2.8

     negative rho (up, down):  1.833E-03 0.000E+00

     total cpu time spent up to now is    14647.0 secs

     End of self-consistent calculation

          k = 0.0000 0.0000 0.0000 (256287 PWs)   bands (ev):

   -16.9244 -15.9224 -15.7244 -15.0889 -14.7260 -14.4418 -14.3316 -13.9419
   -13.8934 -13.7711 -13.7612 -13.1731 -13.0308 -12.8353 -12.8137 -12.7693
   -12.7637 -12.3632 -11.4156 -11.2357 -11.2116 -11.1023 -11.0029 -10.0215
    -9.5198  -9.4841  -9.3243  -9.2593  -8.6591  -8.4826  -8.3332  -8.2587
    -8.0818  -7.7720  -7.5898  -7.5193  -7.3624  -7.2694  -7.2477  -7.2107
    -7.1788  -6.0971  -6.0858  -5.8882  -5.8499  -5.7359  -5.6826  -5.6374
    -5.6177  -5.6063  -5.4051  -5.3647  -5.2430  -5.0616  -4.8142  -4.6190
    -4.5812  -4.4600  -4.3729  -4.2783  -4.2495  -4.1406  -3.8881  -3.8559
    -3.8077  -3.7638  -3.6921  -3.6673  -3.3739  -3.3618  -3.2744  -3.2732
    -3.2718  -3.1845  -3.1582  -3.1403  -3.0501  -2.9361  -2.9140  -2.8876
    -2.8815  -2.8795  -2.8699  -2.7789  -2.7636  -2.7235  -2.6664  -2.6332
    -2.6177  -2.5889  -2.5410  -2.5221  -2.5103  -2.4067  -2.4003  -2.3533
    -2.2049  -2.1875  -2.1672  -2.1372  -2.0856  -2.0844  -2.0621  -2.0379
    -2.0340  -2.0330  -2.0273  -1.9671  -1.9175  -1.9080  -1.9047  -1.8788
    -1.8769  -1.8520  -1.8288  -1.7835  -1.6994  -1.6852  -1.6563  -1.6549
    -1.6500  -1.6181  -1.6137  -1.5985  -1.5924  -1.5806  -1.5482  -1.5262
    -1.5225  -1.5201  -1.4844  -1.4525  -1.4439  -1.4413  -1.4372  -1.4316
    -1.4298  -1.4189  -1.4031  -1.3984  -1.3979  -1.3902  -1.3312  -1.3234
    -1.2882  -1.2564  -1.2430  -1.2299  -1.2171  -1.1839  -1.1776  -1.1623
    -1.1585  -1.1484  -1.1226  -1.1039  -1.1025  -1.0943  -1.0766  -1.0661
    -1.0435  -1.0320  -1.0266  -1.0006  -0.9524  -0.9500  -0.9493  -0.9322
    -0.9309  -0.9218  -0.9208  -0.9135  -0.9041  -0.9019  -0.8994  -0.8810
    -0.8802  -0.8738  -0.8681  -0.8632  -0.8595  -0.8398  -0.8276  -0.8202
    -0.8115  -0.8050  -0.7894  -0.7860  -0.7801  -0.7710  -0.7509  -0.7484
    -0.7374  -0.7348  -0.7339  -0.7292  -0.7281  -0.7215  -0.7208  -0.7178
    -0.7155  -0.7149  -0.7081  -0.7031  -0.6886  -0.6654  -0.6563  -0.6498
    -0.6384  -0.6104  -0.5908  -0.5782  -0.5781  -0.5685  -0.5534  -0.5486
    -0.5325  -0.5236  -0.5185  -0.5182  -0.5002  -0.4897  -0.4884  -0.4778
    -0.4692  -0.4605  -0.4517  -0.4486  -0.4457  -0.4402  -0.4399  -0.4310
    -0.4239  -0.4208  -0.4162  -0.3971  -0.3780  -0.3732  -0.3655  -0.3498
    -0.3381  -0.3202  -0.3084  -0.2999  -0.2967  -0.2897  -0.2872  -0.2869
    -0.2831  -0.2826  -0.2798  -0.2784  -0.2748  -0.2705  -0.2664  -0.2617
    -0.2588  -0.2386  -0.2321  -0.2242  -0.2174  -0.1961  -0.1946  -0.1883
    -0.1670  -0.1637  -0.1626  -0.1622  -0.1487  -0.1456  -0.1366  -0.1306
    -0.1289  -0.1232  -0.1215  -0.1139  -0.1111  -0.1107  -0.1025  -0.0983
    -0.0945  -0.0929  -0.0876  -0.0693  -0.0676  -0.0670  -0.0661  -0.0585
    -0.0509  -0.0370  -0.0297  -0.0263  -0.0125  -0.0044   0.0026   0.0168
     0.0207   0.0245   0.0276   0.0347   0.0438   0.0591   0.0619   0.0661
     0.0667   0.0728   0.0781   0.0811   0.0924   0.0954   0.1044   0.1242
     0.1270   0.1324   0.1351   0.1431   0.1465   0.1508   0.1518   0.1630
     0.1645   0.1665   0.1770   0.1807   0.1827   0.1859   0.1876   0.1986
     0.2026   0.2104   0.2128   0.2245   0.2266   0.2369   0.2424   0.2478
     0.2501   0.2601   0.2674   0.2756   0.2850   0.2868   0.2924   0.3265
     0.3269   0.3318   0.3348   0.3393   0.3703   0.3716   0.3812   0.3885
     0.3962   0.4003   0.4137   0.4161   0.4209   0.4396   0.4492   0.4614
     0.4632   0.4723   0.4801   0.4824   0.4861   0.4914   0.4961   0.5040
     0.5129   0.5142   0.5156   0.5248   0.5339   0.5387   0.5390   0.5471
     0.5486   0.5780   0.5810   0.5891   0.5915   0.5990   0.6038   0.6057
     0.6082   0.6137   0.6228   0.6270   0.6398   0.6404   0.6520   0.6568
     0.6571   0.6624   0.6647   0.6665   0.6725   0.6783   0.6860   0.6866
     0.6878   0.6892   0.6909   0.6969   0.7046   0.7095   0.7230   0.7260
     0.7279   0.7303   0.7364   0.7458   0.7460   0.7581   0.7646   0.7666
     0.7693   0.7718   0.7828   0.7913   0.7934   0.8007   0.8036   0.8054
     0.8065   0.8105   0.8124   0.8213   0.8331   0.8355   0.8384   0.8398
     0.8482   0.8524   0.8588   0.8631   0.8677   0.8688   0.8696   0.8711
     0.8749   0.8882   0.8950   0.8998   0.9047   0.9164   0.9169   0.9238
     0.9402   0.9475   0.9602   0.9606   0.9656   0.9664   0.9698   0.9706
     0.9754   0.9814   0.9875   0.9971   0.9980   1.0021   1.0120   1.0126
     1.0167   1.0176   1.0281   1.0320   1.0334   1.0447   1.0493   1.0519
     1.0565   1.0618   1.0709   1.0792   1.0879   1.0958   1.0986   1.1014
     1.1068   1.1076   1.1126   1.1133   1.1201   1.1289   1.1310   1.1352
     1.1375   1.1409   1.1411   1.1426   1.1522   1.1585   1.1621   1.1623
     1.1669   1.1689   1.1731   1.1760   1.1842   1.1851   1.1877   1.1978
     1.1995   1.2063   1.2075   1.2168   1.2171   1.2251   1.2333   1.2339
     1.2402   1.2404   1.2415   1.2432   1.2488   1.2494   1.2549   1.2572
     1.2667   1.2704   1.2737   1.2855   1.2910   1.2978   1.3080   1.3122
     1.3147   1.3217   1.3246   1.3293   1.3368   1.3446   1.3453   1.3514
     1.3542   1.3545   1.3644   1.3648   1.3691   1.3727   1.3800   1.3805
     1.3820   1.3866   1.3901   1.3924   1.3946   1.3961   1.4048   1.4104
     1.4107   1.4152   1.4242   1.4272   1.4280   1.4304   1.4309   1.4330
     1.4345   1.4393   1.4412   1.4450   1.4461   1.4555   1.4562   1.4620
     1.4687   1.4699   1.4723   1.4878   1.4900   1.4907   1.4945   1.5082
     1.5135   1.5165   1.5193   1.5253   1.5299   1.5313   1.5331   1.5347
     1.5433   1.5444   1.5479   1.5523   1.5529   1.5552   1.5567   1.5608
     1.5634   1.5642   1.5730   1.5753   1.5796   1.5833   1.5862   1.5891
     1.5964   1.5971   1.6038   1.6095   1.6323   1.6386   1.6395   1.6431
     1.6499   1.6702   1.6751   1.6753   1.6823   1.6868   1.7080   1.7245
     1.7291   1.7335   1.7409   1.7445   1.7526   1.7547   1.7571   1.7696
     1.7762   1.9057   2.0074   2.0773   2.2106   2.2116   2.2172   2.2704
     2.2958   2.3116   2.3173   2.3208   2.3279   2.3420   2.3463   2.4084
     2.4904   2.4972   2.5465   2.5474   2.5698   2.5716   2.5981   2.7341
     2.7577   2.8158   2.8599   2.9254   2.9579   3.1719   3.2241   3.2719
     3.2850   3.6077   3.6913   3.7749   3.8557   3.8916   3.9165   3.9732
     3.9819   3.9931   4.0507   4.0635   4.0759   4.0867   4.1132   4.1177
     4.1298   4.1348   4.2454   4.2880   4.3016   4.3097   4.3988   4.5832
     4.8047   4.8633   4.9342   5.0744   5.1237   5.1504   5.3098   5.4026
     5.4361   5.5418   5.6055   5.7292   5.7490   5.9248   6.0333   6.1213
     6.1396   6.3449   6.3563   6.3599   6.4842   6.5034   6.5234   6.5812
     6.6160   6.7062   6.7748   6.7778   6.8201   6.8457   6.8670   6.8760
     6.9242   6.9550   6.9586   7.1064   7.1408   7.1554   7.2106   7.2419
     7.4032   7.4846   7.5412   7.5915   7.6544   7.7205   7.7342   7.7979
     7.8760   7.9678   8.0458   8.0942   8.1500   8.1959   8.2381   8.2602
     8.2938   8.3774   8.4062   8.4208   8.4233   8.4345   8.4444   8.4701
     8.5617   8.6415   8.6487   8.7153   8.7166   8.7248   8.7348   8.7748
     8.7904   8.8959   8.8989   8.9295   9.0047   9.0175   9.0250   9.1074
     9.1126   9.1298   9.2090   9.2640   9.2767   9.3468   9.4282   9.4448
     9.4509   9.5116   9.5808   9.6219   9.6890   9.7677   9.7818   9.8278
     9.8817   9.9521   9.9709  10.0965  10.1545  10.2131

          k = 0.0000-0.2165 0.0000 (256176 PWs)   bands (ev):

   -16.9239 -15.9758 -15.5466 -15.3280 -14.7203 -14.3187 -14.0285 -14.0111
   -13.9485 -13.9257 -13.4903 -13.4353 -13.3807 -13.3643 -12.3808 -12.3109
   -12.1303 -12.0810 -12.0109 -11.8763 -11.8287 -10.3817 -10.2833 -10.2619
   -10.1333  -9.1888  -9.1128  -9.0070  -8.8250  -8.6861  -8.6476  -8.0953
    -8.0757  -7.9594  -7.8795  -7.8175  -7.1774  -7.0391  -6.7178  -6.6903
    -6.6088  -6.5873  -6.5530  -6.5279  -6.0001  -5.9046  -5.7627  -5.7481
    -5.3099  -5.2559  -5.1451  -5.0493  -4.9652  -4.9005  -4.7327  -4.7084
    -4.7017  -4.6785  -4.6350  -4.5288  -4.4255  -4.4114  -4.2315  -3.8592
    -3.6604  -3.6352  -3.5854  -3.4463  -3.4450  -3.3446  -3.1790  -3.1775
    -3.1647  -3.1645  -2.9993  -2.9788  -2.9775  -2.9063  -2.8886  -2.8623
    -2.8413  -2.8110  -2.7794  -2.7245  -2.7149  -2.6968  -2.6802  -2.6480
    -2.6332  -2.5882  -2.4635  -2.4589  -2.4496  -2.4369  -2.3696  -2.3518
    -2.3465  -2.3288  -2.2958  -2.2371  -2.2367  -2.1762  -2.1211  -2.0613
    -2.0547  -2.0236  -2.0221  -2.0096  -2.0015  -1.9712  -1.9411  -1.8668
    -1.8590  -1.8565  -1.8385  -1.8376  -1.8024  -1.7697  -1.7301  -1.6673
    -1.6422  -1.6393  -1.6268  -1.6234  -1.6146  -1.6020  -1.5862  -1.5674
    -1.5432  -1.5398  -1.5372  -1.5250  -1.5092  -1.4739  -1.4200  -1.3779
    -1.3691  -1.3462  -1.3121  -1.2996  -1.2529  -1.2485  -1.2368  -1.2269
    -1.2164  -1.2029  -1.1984  -1.1922  -1.1886  -1.1719  -1.1659  -1.1614
    -1.1521  -1.1416  -1.1354  -1.1327  -1.1243  -1.1123  -1.1110  -1.1001
    -1.0930  -1.0743  -1.0717  -1.0588  -1.0505  -1.0415  -1.0355  -1.0026
    -0.9709  -0.9686  -0.9571  -0.9427  -0.9402  -0.9306  -0.9275  -0.9191
    -0.9046  -0.8790  -0.8703  -0.8613  -0.8544  -0.8482  -0.8472  -0.8454
    -0.8417  -0.8126  -0.8008  -0.8004  -0.7968  -0.7930  -0.7825  -0.7761
    -0.7632  -0.7546  -0.7389  -0.7276  -0.7221  -0.7092  -0.7057  -0.6962
    -0.6950  -0.6829  -0.6650  -0.6616  -0.6513  -0.6510  -0.6362  -0.6304
    -0.6276  -0.6035  -0.5678  -0.5649  -0.5394  -0.5202  -0.5139  -0.5028
    -0.5027  -0.4980  -0.4931  -0.4920  -0.4858  -0.4838  -0.4791  -0.4655
    -0.4606  -0.4482  -0.4321  -0.4286  -0.4274  -0.4191  -0.4097  -0.4096
    -0.4078  -0.3964  -0.3731  -0.3660  -0.3654  -0.3631  -0.3611  -0.3564
    -0.3405  -0.3366  -0.3319  -0.3288  -0.3252  -0.3241  -0.2944  -0.2812
    -0.2801  -0.2721  -0.2452  -0.2449  -0.2134  -0.2040  -0.2008  -0.1979
    -0.1965  -0.1872  -0.1854  -0.1851  -0.1839  -0.1833  -0.1792  -0.1790
    -0.1623  -0.1531  -0.1478  -0.1388  -0.1348  -0.1337  -0.1288  -0.1260
    -0.1237  -0.1212  -0.1170  -0.1069  -0.1032  -0.1023  -0.0951  -0.0930
    -0.0777  -0.0761  -0.0748  -0.0729  -0.0710  -0.0519  -0.0376  -0.0321
    -0.0230  -0.0144  -0.0045  -0.0038  -0.0011   0.0029   0.0107   0.0169
     0.0288   0.0290   0.0326   0.0378   0.0473   0.0516   0.0591   0.0606
     0.0656   0.0684   0.0704   0.0792   0.0862   0.0958   0.1042   0.1132
     0.1196   0.1232   0.1334   0.1449   0.1474   0.1522   0.1586   0.1633
     0.1637   0.1693   0.1751   0.1786   0.1842   0.1862   0.1975   0.1990
     0.2007   0.2038   0.2175   0.2181   0.2302   0.2334   0.2431   0.2471
     0.2502   0.2534   0.2631   0.2652   0.2669   0.2738   0.2739   0.2830
     0.2923   0.3096   0.3136   0.3220   0.3254   0.3274   0.3417   0.3542
     0.3562   0.3671   0.3822   0.4028   0.4060   0.4124   0.4138   0.4293
     0.4533   0.4726   0.4737   0.4776   0.4957   0.5069   0.5148   0.5174
     0.5286   0.5400   0.5442   0.5502   0.5508   0.5602   0.5648   0.5655
     0.5730   0.5805   0.5839   0.5900   0.5962   0.6027   0.6047   0.6062
     0.6092   0.6177   0.6190   0.6209   0.6343   0.6359   0.6370   0.6425
     0.6454   0.6505   0.6510   0.6555   0.6578   0.6603   0.6651   0.6660
     0.6749   0.6780   0.6792   0.6877   0.6886   0.6907   0.6942   0.7021
     0.7052   0.7072   0.7102   0.7181   0.7234   0.7288   0.7382   0.7404
     0.7454   0.7465   0.7492   0.7657   0.7707   0.7818   0.7823   0.7905
     0.7910   0.7962   0.7988   0.7994   0.8027   0.8125   0.8162   0.8173
     0.8210   0.8325   0.8374   0.8485   0.8516   0.8620   0.8698   0.8716
     0.8828   0.8850   0.8898   0.8999   0.9042   0.9073   0.9109   0.9150
     0.9192   0.9205   0.9509   0.9545   0.9655   0.9920   0.9998   1.0005
     1.0067   1.0099   1.0104   1.0137   1.0167   1.0203   1.0266   1.0338
     1.0379   1.0403   1.0421   1.0429   1.0476   1.0524   1.0549   1.0572
     1.0588   1.0606   1.0638   1.0726   1.0815   1.0843   1.0852   1.0856
     1.0861   1.0971   1.1027   1.1054   1.1063   1.1088   1.1095   1.1128
     1.1171   1.1182   1.1255   1.1283   1.1287   1.1334   1.1362   1.1386
     1.1493   1.1527   1.1531   1.1562   1.1591   1.1617   1.1621   1.1654
     1.1689   1.1746   1.1945   1.2007   1.2028   1.2133   1.2377   1.2395
     1.2499   1.2541   1.2596   1.2649   1.2771   1.2867   1.2916   1.2965
     1.2987   1.3026   1.3047   1.3067   1.3086   1.3097   1.3128   1.3139
     1.3142   1.3232   1.3239   1.3244   1.3256   1.3373   1.3384   1.3415
     1.3446   1.3492   1.3502   1.3505   1.3532   1.3580   1.3667   1.3740
     1.3755   1.3804   1.3862   1.3879   1.3910   1.3925   1.4001   1.4080
     1.4104   1.4128   1.4157   1.4254   1.4261   1.4280   1.4329   1.4356
     1.4429   1.4430   1.4482   1.4499   1.4531   1.4586   1.4681   1.4723
     1.4795   1.4854   1.4912   1.4915   1.4999   1.5014   1.5027   1.5057
     1.5100   1.5109   1.5199   1.5219   1.5255   1.5274   1.5449   1.5483
     1.5486   1.5546   1.5616   1.5666   1.5689   1.5698   1.5700   1.5709
     1.5777   1.5819   1.5922   1.6001   1.6016   1.6072   1.6076   1.6152
     1.6160   1.6164   1.6275   1.6321   1.6362   1.6375   1.6417   1.6487
     1.6829   1.6886   1.6951   1.6956   1.7033   1.7132   1.7815   1.7998
     1.8126   1.8476   1.8626   1.8643   1.8645   1.8702   1.8912   1.9082
     1.9246   1.9259   1.9358   1.9399   1.9437   1.9547   1.9923   2.0076
     2.1757   2.1798   2.2351   2.2636   2.4930   2.4964   2.5318   2.5528
     2.5847   2.6056   2.6111   2.6432   2.6868   2.7068   2.7163   2.7169
     2.8266   2.8297   2.8361   2.8488   2.9133   3.0347   3.0402   3.1193
     3.1595   3.2878   3.2897   3.2954   3.4206   3.6439   3.7972   3.8218
     3.8730   4.0458   4.1011   4.1232   4.1939   4.2021   4.2192   4.2374
     4.3226   4.4004   4.4203   4.4542   4.5397   4.6092   4.6434   4.7608
     4.8492   5.0470   5.0608   5.2128   5.2478   5.3541   5.3923   5.4163
     5.4565   5.4668   5.5065   5.6228   5.7635   5.7929   5.8801   5.9220
     5.9719   6.0075   6.0512   6.3598   6.3815   6.4146   6.4179   6.4945
     6.5089   6.6589   6.6881   6.7718   6.8465   6.9097   6.9661   7.0863
     7.1145   7.1417   7.1574   7.1587   7.1656   7.2206   7.2450   7.3274
     7.3501   7.3539   7.4253   7.4572   7.4714   7.5151   7.6690   7.7044
     7.7512   7.7715   7.8265   7.9117   8.2219   8.2500   8.2874   8.3775
     8.3963   8.4023   8.4099   8.4410   8.4827   8.5051   8.5214   8.5571
     8.5920   8.6093   8.7086   8.7647   8.7885   8.7996   8.8156   8.8330
     8.9126   8.9697   8.9964   9.1094   9.1432   9.1517   9.1709   9.2506
     9.2848   9.3051   9.3393   9.3549   9.3929   9.4104   9.4339   9.4684
     9.4900   9.5314   9.5339   9.5390   9.6066   9.6106   9.6205   9.6784
     9.8951   9.9110   9.9428   9.9920  10.0066  10.0168

          k = 0.2500 0.0000 0.0000 (256240 PWs)   bands (ev):

   -16.8733 -15.8109 -15.6016 -15.3078 -14.8263 -14.6565 -14.6277 -14.5603
   -13.7864 -13.6345 -13.4229 -12.9510 -12.8764 -12.7951 -12.6853 -12.3650
   -12.0669 -11.9380 -11.8302 -11.7623 -11.0232 -10.8233 -10.4730 -10.3665
   -10.1612  -9.8979  -9.6371  -9.5874  -9.1752  -8.9360  -8.8427  -8.4867
    -8.0977  -7.7418  -7.5374  -7.4603  -7.2968  -7.2754  -7.1663  -6.7765
    -6.6473  -6.0573  -5.9354  -5.7509  -5.7082  -5.6574  -5.6081  -5.3229
    -5.2260  -5.1948  -5.1380  -5.0675  -4.9779  -4.6557  -4.6425  -4.3436
    -4.3332  -4.3124  -4.2918  -4.2166  -4.1067  -4.1053  -3.9978  -3.8886
    -3.8718  -3.8673  -3.7475  -3.7121  -3.7098  -3.6769  -3.6301  -3.5546
    -3.3899  -3.3848  -3.3600  -3.2709  -3.2560  -3.2335  -3.2268  -3.1305
    -3.0305  -3.0108  -2.9810  -2.9690  -2.8574  -2.8412  -2.8272  -2.7290
    -2.6787  -2.6733  -2.6477  -2.6238  -2.5165  -2.4730  -2.3746  -2.3225
    -2.2737  -2.1994  -2.1809  -2.1570  -2.1479  -2.0167  -1.9708  -1.9679
    -1.9570  -1.9513  -1.8822  -1.8742  -1.8199  -1.7976  -1.7812  -1.7155
    -1.7054  -1.6893  -1.6794  -1.6760  -1.6729  -1.6579  -1.6516  -1.6366
    -1.6257  -1.6099  -1.5715  -1.5497  -1.5273  -1.5206  -1.5109  -1.4985
    -1.4736  -1.4643  -1.4570  -1.4495  -1.4487  -1.4459  -1.4365  -1.4229
    -1.3969  -1.3867  -1.3814  -1.3729  -1.3670  -1.2796  -1.2691  -1.2396
    -1.2073  -1.1989  -1.1872  -1.1605  -1.1358  -1.1294  -1.1242  -1.1158
    -1.1088  -1.1015  -1.0810  -1.0773  -1.0640  -1.0627  -1.0558  -1.0502
    -1.0471  -1.0357  -1.0121  -1.0102  -1.0073  -0.9944  -0.9860  -0.9839
    -0.9802  -0.9732  -0.9702  -0.9478  -0.9375  -0.9167  -0.9134  -0.9087
    -0.9034  -0.8979  -0.8940  -0.8916  -0.8892  -0.8801  -0.8768  -0.8724
    -0.8679  -0.8666  -0.8560  -0.8519  -0.8490  -0.8431  -0.8396  -0.8363
    -0.8210  -0.7977  -0.7942  -0.7874  -0.7734  -0.7690  -0.7525  -0.7413
    -0.7269  -0.7091  -0.7001  -0.6906  -0.6877  -0.6724  -0.6577  -0.6470
    -0.6386  -0.6290  -0.6267  -0.6242  -0.6139  -0.6123  -0.5978  -0.5890
    -0.5624  -0.5471  -0.5280  -0.5014  -0.4828  -0.4686  -0.4611  -0.4566
    -0.4517  -0.4409  -0.4359  -0.4319  -0.4303  -0.4173  -0.4094  -0.4065
    -0.3983  -0.3940  -0.3896  -0.3714  -0.3613  -0.3586  -0.3556  -0.3540
    -0.3494  -0.3458  -0.3443  -0.3392  -0.3272  -0.3003  -0.2872  -0.2803
    -0.2743  -0.2715  -0.2651  -0.2605  -0.2565  -0.2528  -0.2503  -0.2411
    -0.2366  -0.2237  -0.2163  -0.2074  -0.1871  -0.1863  -0.1835  -0.1776
    -0.1759  -0.1756  -0.1678  -0.1658  -0.1588  -0.1493  -0.1431  -0.1336
    -0.1304  -0.1228  -0.1087  -0.1022  -0.0902  -0.0858  -0.0801  -0.0784
    -0.0754  -0.0597  -0.0573  -0.0552  -0.0415  -0.0404  -0.0366  -0.0316
    -0.0183  -0.0060  -0.0036   0.0030   0.0109   0.0146   0.0173   0.0368
     0.0416   0.0488   0.0579   0.0673   0.0707   0.0827   0.0958   0.0973
     0.1001   0.1070   0.1108   0.1158   0.1185   0.1234   0.1273   0.1359
     0.1387   0.1433   0.1446   0.1476   0.1525   0.1543   0.1598   0.1714
     0.1737   0.1764   0.1799   0.1821   0.1888   0.2020   0.2099   0.2140
     0.2236   0.2268   0.2292   0.2423   0.2444   0.2516   0.2572   0.2583
     0.2685   0.2737   0.2781   0.2964   0.3048   0.3120   0.3351   0.3373
     0.3463   0.3551   0.3643   0.3748   0.3848   0.3856   0.3935   0.3971
     0.4052   0.4077   0.4128   0.4164   0.4194   0.4235   0.4317   0.4336
     0.4389   0.4406   0.4444   0.4559   0.4583   0.4644   0.4695   0.4731
     0.4775   0.4843   0.4863   0.4998   0.5041   0.5119   0.5148   0.5270
     0.5345   0.5425   0.5490   0.5548   0.5582   0.5617   0.5705   0.5728
     0.5810   0.5840   0.5930   0.5978   0.6050   0.6119   0.6129   0.6159
     0.6236   0.6252   0.6279   0.6321   0.6426   0.6486   0.6574   0.6585
     0.6650   0.6691   0.6708   0.6779   0.6806   0.6873   0.6932   0.7016
     0.7037   0.7066   0.7107   0.7160   0.7219   0.7250   0.7363   0.7460
     0.7486   0.7536   0.7546   0.7572   0.7621   0.7678   0.7717   0.7774
     0.7794   0.7812   0.7887   0.7966   0.8071   0.8185   0.8249   0.8330
     0.8376   0.8444   0.8571   0.8605   0.8620   0.8641   0.8693   0.8796
     0.8873   0.8899   0.8914   0.8978   0.9032   0.9107   0.9157   0.9246
     0.9320   0.9352   0.9430   0.9446   0.9536   0.9669   0.9718   0.9732
     0.9789   0.9813   0.9900   0.9972   0.9988   1.0022   1.0037   1.0112
     1.0146   1.0156   1.0200   1.0261   1.0313   1.0417   1.0429   1.0466
     1.0558   1.0622   1.0658   1.0800   1.0842   1.0918   1.0989   1.1014
     1.1071   1.1115   1.1144   1.1186   1.1225   1.1288   1.1316   1.1321
     1.1359   1.1374   1.1386   1.1408   1.1470   1.1479   1.1529   1.1543
     1.1583   1.1688   1.1718   1.1778   1.1792   1.1819   1.1847   1.1871
     1.1915   1.1938   1.2013   1.2062   1.2085   1.2106   1.2176   1.2233
     1.2261   1.2286   1.2314   1.2362   1.2402   1.2415   1.2464   1.2477
     1.2539   1.2569   1.2588   1.2637   1.2678   1.2782   1.2909   1.3017
     1.3046   1.3074   1.3104   1.3131   1.3238   1.3322   1.3414   1.3445
     1.3521   1.3612   1.3633   1.3653   1.3693   1.3716   1.3752   1.3805
     1.3819   1.3839   1.3897   1.3905   1.3956   1.4022   1.4053   1.4079
     1.4107   1.4159   1.4178   1.4215   1.4240   1.4267   1.4289   1.4320
     1.4342   1.4393   1.4452   1.4474   1.4507   1.4564   1.4574   1.4693
     1.4715   1.4734   1.4804   1.4864   1.4900   1.4940   1.5000   1.5012
     1.5103   1.5139   1.5190   1.5212   1.5251   1.5269   1.5334   1.5344
     1.5407   1.5439   1.5474   1.5505   1.5557   1.5588   1.5595   1.5653
     1.5675   1.5701   1.5729   1.5775   1.5808   1.5847   1.5869   1.5906
     1.5991   1.6012   1.6050   1.6103   1.6125   1.6149   1.6201   1.6237
     1.6267   1.6371   1.6422   1.6645   1.6685   1.6694   1.6785   1.6925
     1.6970   1.7383   1.7395   1.7471   1.7537   1.7596   1.7961   1.8557
     1.8701   1.8784   1.8862   1.8940   1.9576   1.9962   2.0178   2.1035
     2.1483   2.1592   2.1716   2.1863   2.2119   2.2496   2.2932   2.3142
     2.5659   2.6513   2.6657   2.6837   2.8383   3.0870   3.0923   3.1110
     3.2964   3.3019   3.3321   3.3331   3.3412   3.4071   3.4710   3.5101
     3.5696   3.6324   3.7205   3.7676   3.7898   3.7964   3.8038   3.8441
     3.8700   3.9113   3.9736   3.9839   4.0815   4.0999   4.2008   4.3118
     4.3307   4.4310   4.5602   4.6266   4.6928   4.7712   4.8031   4.8333
     4.9283   5.1174   5.1903   5.2998   5.3266   5.3444   5.4157   5.4369
     5.5044   5.5500   5.5588   5.5913   5.6083   5.6315   5.6382   5.7153
     5.8166   5.8262   5.8575   5.9211   5.9883   6.0055   6.1011   6.1285
     6.1457   6.4000   6.4983   6.5420   6.7505   6.8020   6.8161   6.8359
     6.8652   6.8769   6.9086   6.9508   7.0138   7.1176   7.1467   7.1727
     7.2016   7.2390   7.2548   7.3102   7.4258   7.4814   7.4871   7.5541
     7.6153   7.6821   7.7058   7.7330   7.7776   7.8361   8.0181   8.0986
     8.1303   8.1438   8.1703   8.2103   8.2138   8.2702   8.3019   8.3123
     8.3459   8.3997   8.4416   8.4874   8.5554   8.5885   8.7524   8.8176
     8.9350   9.0271   9.0647   9.0685   9.0895   9.1135   9.1898   9.2263
     9.2384   9.2441   9.3123   9.3308   9.3915   9.3972   9.4279   9.4711
     9.5235   9.5431   9.5465   9.5818   9.6514   9.6807   9.7373   9.7695
     9.8419   9.8497   9.8741   9.9073   9.9509  10.0470

          k = 0.2500-0.2165 0.0000 (256316 PWs)   bands (ev):

   -16.8730 -15.8517 -15.5144 -15.2079 -15.1094 -14.8627 -14.3748 -14.2316
   -13.9454 -13.8116 -13.3682 -12.9472 -12.9353 -12.8569 -12.4311 -12.3715
   -12.3203 -11.8993 -11.7748 -11.2017 -11.1211 -11.0146 -10.8742 -10.6213
   -10.2979  -9.5257  -9.4489  -9.1311  -9.1005  -8.8685  -8.7973  -8.4005
    -8.3381  -8.1802  -8.1322  -8.0865  -6.9637  -6.7533  -6.5643  -6.3897
    -6.3152  -6.2018  -6.1218  -6.0551  -5.8783  -5.8407  -5.5846  -5.5718
    -5.2892  -5.1314  -4.9997  -4.9537  -4.8208  -4.6937  -4.5666  -4.5422
    -4.5211  -4.4676  -4.3075  -4.2218  -4.2068  -4.2008  -4.0829  -3.9535
    -3.9120  -3.8384  -3.7717  -3.5639  -3.5197  -3.4993  -3.4769  -3.3775
    -3.3537  -3.3390  -3.3294  -3.3143  -3.2313  -3.2027  -3.1683  -3.0928
    -3.0771  -2.9329  -2.8787  -2.8591  -2.8493  -2.8454  -2.8092  -2.7850
    -2.7661  -2.7343  -2.7292  -2.5902  -2.4992  -2.4899  -2.4678  -2.3865
    -2.2093  -2.1956  -2.1793  -2.1229  -2.0879  -2.0688  -2.0523  -2.0451
    -2.0049  -1.9097  -1.8884  -1.8874  -1.8796  -1.8524  -1.8084  -1.7546
    -1.7381  -1.7159  -1.7002  -1.6957  -1.6929  -1.6585  -1.6396  -1.6134
    -1.5978  -1.5938  -1.5802  -1.5783  -1.5749  -1.5657  -1.5560  -1.5497
    -1.5476  -1.5456  -1.5312  -1.5256  -1.4823  -1.4675  -1.4418  -1.3914
    -1.3520  -1.3411  -1.2848  -1.2657  -1.2351  -1.2107  -1.1963  -1.1669
    -1.1638  -1.1568  -1.1559  -1.1491  -1.1447  -1.1407  -1.1346  -1.1250
    -1.1174  -1.1098  -1.1070  -1.1054  -1.0928  -1.0900  -1.0788  -1.0720
    -1.0626  -1.0563  -1.0473  -1.0403  -1.0242  -1.0204  -1.0084  -0.9921
    -0.9856  -0.9853  -0.9817  -0.9686  -0.9484  -0.9411  -0.9354  -0.9233
    -0.9097  -0.9053  -0.9008  -0.8806  -0.8777  -0.8735  -0.8664  -0.8626
    -0.8529  -0.8435  -0.8402  -0.8336  -0.8278  -0.8165  -0.8130  -0.8047
    -0.7996  -0.7916  -0.7876  -0.7751  -0.7589  -0.7398  -0.7352  -0.7216
    -0.7175  -0.6999  -0.6871  -0.6819  -0.6804  -0.6639  -0.6354  -0.6251
    -0.6193  -0.6140  -0.6024  -0.5907  -0.5887  -0.5811  -0.5789  -0.5723
    -0.5585  -0.5496  -0.5221  -0.5116  -0.5046  -0.4976  -0.4851  -0.4743
    -0.4637  -0.4565  -0.4458  -0.4413  -0.4308  -0.4261  -0.4173  -0.4064
    -0.4030  -0.3831  -0.3771  -0.3735  -0.3695  -0.3685  -0.3575  -0.3546
    -0.3351  -0.3207  -0.3190  -0.3085  -0.3036  -0.2960  -0.2956  -0.2864
    -0.2774  -0.2743  -0.2686  -0.2672  -0.2624  -0.2523  -0.2503  -0.2457
    -0.2400  -0.2373  -0.2301  -0.2260  -0.2182  -0.2148  -0.2019  -0.1992
    -0.1895  -0.1884  -0.1746  -0.1654  -0.1619  -0.1471  -0.1423  -0.1402
    -0.1300  -0.1217  -0.1184  -0.1150  -0.1035  -0.0978  -0.0864  -0.0847
    -0.0695  -0.0591  -0.0544  -0.0448  -0.0370  -0.0315  -0.0145  -0.0116
     0.0057   0.0102   0.0146   0.0222   0.0236   0.0284   0.0306   0.0482
     0.0540   0.0566   0.0599   0.0699   0.0746   0.0799   0.0880   0.0903
     0.0960   0.1050   0.1094   0.1113   0.1137   0.1164   0.1189   0.1209
     0.1276   0.1291   0.1316   0.1333   0.1363   0.1461   0.1496   0.1579
     0.1675   0.1764   0.1865   0.1877   0.1896   0.1967   0.2015   0.2044
     0.2165   0.2361   0.2374   0.2478   0.2545   0.2619   0.2675   0.2697
     0.2798   0.2822   0.2839   0.2925   0.2939   0.3021   0.3034   0.3070
     0.3132   0.3281   0.3310   0.3474   0.3555   0.3767   0.3785   0.3864
     0.3904   0.3956   0.4036   0.4074   0.4163   0.4259   0.4287   0.4316
     0.4372   0.4537   0.4546   0.4597   0.4614   0.4666   0.4685   0.4837
     0.4902   0.4928   0.4960   0.4975   0.5075   0.5233   0.5281   0.5304
     0.5356   0.5412   0.5443   0.5601   0.5653   0.5694   0.5784   0.5813
     0.5874   0.5939   0.5976   0.6009   0.6076   0.6116   0.6173   0.6207
     0.6235   0.6294   0.6357   0.6477   0.6515   0.6545   0.6739   0.6825
     0.6897   0.6992   0.7020   0.7061   0.7112   0.7151   0.7212   0.7249
     0.7267   0.7338   0.7362   0.7416   0.7438   0.7494   0.7547   0.7603
     0.7666   0.7742   0.7762   0.7812   0.7853   0.7895   0.7906   0.7943
     0.7967   0.7985   0.8034   0.8077   0.8123   0.8137   0.8175   0.8227
     0.8265   0.8338   0.8353   0.8398   0.8403   0.8433   0.8497   0.8577
     0.8596   0.8655   0.8769   0.8833   0.8873   0.8883   0.8970   0.9093
     0.9199   0.9270   0.9318   0.9409   0.9456   0.9498   0.9517   0.9557
     0.9599   0.9699   0.9730   0.9737   0.9754   0.9779   0.9799   0.9840
     0.9967   1.0024   1.0097   1.0119   1.0158   1.0240   1.0261   1.0312
     1.0333   1.0352   1.0499   1.0516   1.0582   1.0642   1.0712   1.0774
     1.0814   1.0849   1.0888   1.0950   1.1073   1.1161   1.1181   1.1228
     1.1261   1.1388   1.1487   1.1495   1.1566   1.1676   1.1748   1.1846
     1.1876   1.1975   1.2022   1.2023   1.2038   1.2074   1.2110   1.2157
     1.2175   1.2201   1.2216   1.2239   1.2253   1.2271   1.2337   1.2343
     1.2391   1.2442   1.2543   1.2572   1.2580   1.2676   1.2728   1.2803
     1.2870   1.2916   1.2943   1.2969   1.2987   1.2999   1.3047   1.3113
     1.3145   1.3152   1.3169   1.3207   1.3248   1.3257   1.3316   1.3342
     1.3359   1.3367   1.3448   1.3464   1.3488   1.3543   1.3582   1.3624
     1.3662   1.3761   1.3848   1.3864   1.3896   1.3916   1.3941   1.3960
     1.4003   1.4097   1.4132   1.4223   1.4276   1.4351   1.4419   1.4442
     1.4481   1.4493   1.4522   1.4539   1.4578   1.4623   1.4659   1.4665
     1.4718   1.4797   1.4856   1.4864   1.4904   1.4942   1.4967   1.5014
     1.5045   1.5082   1.5131   1.5157   1.5200   1.5241   1.5257   1.5284
     1.5290   1.5320   1.5349   1.5397   1.5430   1.5514   1.5523   1.5560
     1.5607   1.5640   1.5661   1.5738   1.5781   1.5792   1.5897   1.5959
     1.5972   1.5987   1.6053   1.6097   1.6215   1.6236   1.6291   1.6299
     1.6373   1.6382   1.6471   1.6652   1.6666   1.6676   1.6830   1.6890
     1.6964   1.7089   1.7576   1.7707   1.7780   1.8052   1.8268   1.8579
     1.8641   1.8767   1.8812   1.8855   1.8917   1.9015   1.9236   1.9328
     1.9894   2.2287   2.2349   2.2579   2.2679   2.3190   2.3795   2.4501
     2.6827   2.6984   2.8429   2.8690   2.8747   2.8770   2.8946   2.9054
     2.9681   3.0520   3.0802   3.1089   3.1245   3.3228   3.5827   3.5979
     3.6593   3.6770   3.7004   3.8329   3.8857   3.9498   3.9654   3.9998
     4.0251   4.1019   4.1559   4.1928   4.2300   4.2669   4.2871   4.4351
     4.4729   4.5127   4.6218   4.6605   4.6968   4.7015   4.7566   4.8278
     4.8743   4.9351   5.0015   5.0126   5.0523   5.1144   5.1752   5.2662
     5.2787   5.3413   5.4563   5.4625   5.5289   5.5490   5.6151   5.7285
     5.8021   5.8581   5.8919   5.9476   6.0295   6.0940   6.1941   6.2380
     6.3121   6.5724   6.6652   6.7084   6.7857   6.8282   6.8598   6.9281
     6.9449   6.9814   7.0099   7.0425   7.1133   7.1355   7.1802   7.2330
     7.2855   7.3134   7.3286   7.3572   7.3877   7.4653   7.4939   7.5040
     7.5201   7.5989   7.6798   7.6976   7.8261   7.8488   7.9061   7.9215
     7.9338   8.0403   8.2350   8.2432   8.2593   8.3255   8.3678   8.4551
     8.5568   8.6318   8.6511   8.6748   8.6930   8.6964   8.7230   8.7780
     8.8007   8.8253   8.8783   8.8916   8.9991   9.0376   9.0863   9.1230
     9.1684   9.2068   9.2350   9.2386   9.2660   9.2843   9.3239   9.3705
     9.3811   9.4082   9.4374   9.4633   9.5328   9.5474   9.5713   9.6527
     9.6957   9.7030   9.8412   9.8815  10.0162  10.0201

          k =-0.5000 0.0000 0.0000 (256496 PWs)   bands (ev):

   -16.8126 -15.6471 -15.4304 -15.3007 -15.2659 -15.1954 -14.4892 -14.3019
   -14.1919 -14.1611 -12.9197 -12.6216 -12.4841 -12.4148 -12.3572 -12.1086
   -12.0731 -11.5951 -11.5793 -11.4394 -11.4323 -10.9312 -10.8892 -10.7910
   -10.5704 -10.0050  -9.9809  -9.7451  -9.4293  -8.8772  -8.8755  -8.6829
    -8.6571  -8.1065  -7.5968  -7.4340  -7.3894  -7.1940  -7.1372  -7.1165
    -5.9551  -5.9292  -5.5031  -5.2863  -5.1907  -5.1682  -5.0454  -4.8806
    -4.8679  -4.6679  -4.6626  -4.6619  -4.6608  -4.6284  -4.5825  -4.4953
    -4.4722  -4.4221  -4.3920  -4.3691  -4.3033  -4.2905  -4.1528  -4.1464
    -4.1381  -4.1371  -3.7964  -3.7794  -3.6935  -3.6465  -3.6298  -3.5950
    -3.5395  -3.4548  -3.3893  -3.3809  -3.3224  -3.3005  -3.2945  -3.2909
    -3.2777  -3.2414  -3.1918  -3.1433  -3.1340  -3.1226  -2.7896  -2.6605
    -2.6511  -2.6406  -2.5883  -2.5562  -2.5495  -2.5175  -2.5038  -2.5015
    -2.4623  -2.4129  -2.3094  -2.2606  -2.2527  -2.2110  -2.0609  -2.0573
    -1.9422  -1.8060  -1.7680  -1.7650  -1.7598  -1.7502  -1.7499  -1.7453
    -1.6577  -1.6534  -1.6531  -1.6185  -1.5965  -1.5542  -1.5386  -1.5382
    -1.5239  -1.5022  -1.4923  -1.4833  -1.4723  -1.4672  -1.4473  -1.4077
    -1.3818  -1.3801  -1.3667  -1.3113  -1.3071  -1.3070  -1.3054  -1.2919
    -1.2865  -1.2838  -1.2832  -1.2763  -1.2678  -1.2351  -1.2338  -1.2268
    -1.2193  -1.2180  -1.2162  -1.2123  -1.2048  -1.1838  -1.1810  -1.1722
    -1.1685  -1.1511  -1.1480  -1.1457  -1.1437  -1.1409  -1.1131  -1.0863
    -1.0845  -1.0637  -1.0623  -1.0543  -1.0509  -1.0493  -1.0429  -1.0231
    -1.0165  -1.0099  -1.0015  -0.9873  -0.9846  -0.9796  -0.9720  -0.9663
    -0.9555  -0.9512  -0.9468  -0.9430  -0.9243  -0.9022  -0.8820  -0.8725
    -0.8642  -0.8588  -0.8528  -0.8448  -0.8415  -0.8369  -0.8289  -0.8162
    -0.8127  -0.8094  -0.8076  -0.8036  -0.7993  -0.7959  -0.7928  -0.7906
    -0.7802  -0.7567  -0.7442  -0.7242  -0.7122  -0.7014  -0.6861  -0.6714
    -0.6614  -0.6595  -0.5969  -0.5872  -0.5867  -0.5850  -0.5584  -0.5537
    -0.5517  -0.5499  -0.5419  -0.5415  -0.5079  -0.4994  -0.4971  -0.4903
    -0.4865  -0.4805  -0.4804  -0.4779  -0.4726  -0.4621  -0.4598  -0.4465
    -0.4420  -0.4140  -0.3952  -0.3590  -0.3486  -0.3392  -0.3213  -0.3180
    -0.3146  -0.2914  -0.2911  -0.2886  -0.2844  -0.2835  -0.2768  -0.2696
    -0.2549  -0.2527  -0.2489  -0.2488  -0.2440  -0.2422  -0.2269  -0.2235
    -0.2133  -0.2129  -0.2070  -0.2046  -0.1907  -0.1857  -0.1794  -0.1753
    -0.1647  -0.1625  -0.1592  -0.1418  -0.1311  -0.1260  -0.1247  -0.1211
    -0.1173  -0.1072  -0.1059  -0.1001  -0.0809  -0.0716  -0.0461  -0.0448
    -0.0371  -0.0368  -0.0198  -0.0188  -0.0126  -0.0118  -0.0014   0.0041
     0.0057   0.0176   0.0302   0.0478   0.0548   0.0818   0.0828   0.0838
     0.0910   0.0938   0.0998   0.1019   0.1032   0.1033   0.1052   0.1073
     0.1219   0.1236   0.1522   0.1681   0.1714   0.1740   0.1755   0.1770
     0.1831   0.1847   0.1892   0.1936   0.1941   0.1968   0.2046   0.2084
     0.2102   0.2103   0.2172   0.2182   0.2202   0.2255   0.2257   0.2332
     0.2338   0.2432   0.2438   0.2479   0.2515   0.2543   0.2576   0.2612
     0.2665   0.2814   0.2828   0.2908   0.2917   0.2939   0.2984   0.3019
     0.3063   0.3114   0.3229   0.3274   0.3463   0.3723   0.3790   0.3878
     0.3989   0.4092   0.4139   0.4288   0.4356   0.4394   0.4435   0.4540
     0.4549   0.4658   0.4700   0.4750   0.4851   0.4885   0.4929   0.4958
     0.4986   0.5018   0.5034   0.5048   0.5125   0.5168   0.5180   0.5251
     0.5274   0.5295   0.5346   0.5357   0.5448   0.5476   0.5546   0.5639
     0.5924   0.6020   0.6083   0.6091   0.6150   0.6233   0.6263   0.6360
     0.6369   0.6371   0.6421   0.6484   0.6545   0.6576   0.6626   0.6639
     0.6643   0.6675   0.6683   0.6706   0.6767   0.6829   0.6862   0.6871
     0.6945   0.6956   0.6996   0.7052   0.7123   0.7126   0.7187   0.7283
     0.7361   0.7508   0.7516   0.7538   0.7595   0.7602   0.7649   0.7665
     0.7701   0.7729   0.7763   0.7796   0.7799   0.7827   0.7831   0.7861
     0.7970   0.7993   0.8044   0.8165   0.8198   0.8285   0.8314   0.8339
     0.8424   0.8445   0.8475   0.8499   0.8559   0.8561   0.8736   0.8858
     0.8917   0.8932   0.8991   0.9069   0.9235   0.9337   0.9371   0.9395
     0.9460   0.9505   0.9516   0.9526   0.9594   0.9610   0.9635   0.9636
     0.9656   0.9794   0.9846   0.9856   0.9882   1.0014   1.0015   1.0037
     1.0064   1.0149   1.0185   1.0199   1.0237   1.0318   1.0347   1.0379
     1.0562   1.0619   1.0629   1.0716   1.0808   1.1124   1.1224   1.1266
     1.1331   1.1379   1.1402   1.1499   1.1548   1.1567   1.1739   1.1751
     1.1778   1.1846   1.1920   1.1958   1.1996   1.2010   1.2029   1.2093
     1.2110   1.2178   1.2301   1.2345   1.2370   1.2372   1.2386   1.2449
     1.2471   1.2485   1.2504   1.2509   1.2530   1.2582   1.2609   1.2636
     1.2705   1.2710   1.2801   1.2853   1.2920   1.2934   1.2959   1.3006
     1.3123   1.3129   1.3187   1.3235   1.3300   1.3302   1.3386   1.3418
     1.3507   1.3508   1.3573   1.3588   1.3597   1.3618   1.3648   1.3674
     1.3684   1.3709   1.3767   1.3795   1.3930   1.4101   1.4134   1.4153
     1.4193   1.4197   1.4232   1.4245   1.4256   1.4271   1.4299   1.4329
     1.4336   1.4393   1.4405   1.4416   1.4430   1.4465   1.4511   1.4516
     1.4568   1.4586   1.4595   1.4617   1.4674   1.4688   1.4717   1.4744
     1.4747   1.4867   1.4897   1.4963   1.4992   1.5051   1.5091   1.5100
     1.5142   1.5155   1.5263   1.5302   1.5306   1.5372   1.5409   1.5452
     1.5458   1.5473   1.5497   1.5611   1.5630   1.5647   1.5658   1.5673
     1.5746   1.5806   1.5863   1.5920   1.5965   1.5981   1.6002   1.6006
     1.6019   1.6109   1.6198   1.6287   1.6321   1.6343   1.6367   1.6372
     1.6398   1.6458   1.6564   1.6863   1.6932   1.7054   1.7128   1.7210
     1.7222   1.7250   1.7358   1.8727   2.1125   2.1420   2.1595   2.2108
     2.2843   2.3275   2.3478   2.3867   2.3985   2.4022   2.4058   2.4620
     2.6677   2.6752   2.6991   2.8831   2.9114   2.9425   2.9475   3.2049
     3.2283   3.2921   3.3067   3.3153   3.5034   3.5850   3.7823   3.8330
     3.8559   3.9006   3.9261   3.9908   4.0137   4.0534   4.1109   4.1633
     4.1780   4.1850   4.1928   4.2224   4.4519   4.6448   4.6748   4.6997
     4.7185   4.7428   4.7679   4.8437   4.9073   4.9274   4.9537   5.0142
     5.0350   5.0711   5.1046   5.1192   5.1443   5.1513   5.1693   5.1759
     5.1794   5.2562   5.2723   5.3533   5.4464   5.4582   5.5118   5.5601
     5.5894   5.6290   5.6425   5.6678   5.8851   5.9341   5.9730   6.0080
     6.0518   6.0737   6.0839   6.0925   6.1634   6.3303   6.3389   6.3536
     6.4078   6.4442   6.5542   6.5635   6.5952   6.6971   6.7672   7.1423
     7.1780   7.1943   7.2068   7.3115   7.3694   7.5784   7.6607   7.6813
     7.6940   7.6941   7.7093   7.7729   7.8357   7.8797   7.9040   7.9524
     7.9641   8.0119   8.0250   8.0593   8.0904   8.1041   8.1165   8.1243
     8.2272   8.2493   8.2526   8.4764   8.6743   8.7208   8.7359   8.7725
     8.8781   8.9053   8.9085   8.9328   8.9456   9.0087   9.0664   9.0666
     9.1151   9.1447   9.1472   9.3265   9.3601   9.4018   9.4349   9.4568
     9.5004   9.5059   9.5174   9.5424   9.5651   9.5716   9.5726   9.5743
     9.6384   9.7359   9.7616   9.8706   9.9068   9.9387

          k =-0.5000-0.2165 0.0000 (256328 PWs)   bands (ev):

   -16.8125 -15.6076 -15.4912 -15.4698 -15.0439 -14.8912 -14.8190 -14.7775
   -13.7552 -13.5376 -13.4037 -13.3700 -12.3789 -12.3192 -12.0940 -11.6884
   -11.6636 -11.6400 -11.4972 -11.4032 -11.3538 -11.2080 -11.1961 -11.1018
   -11.0833  -9.7207  -9.7115  -9.4728  -9.4323  -8.9703  -8.6534  -8.5291
    -8.5076  -8.1071  -8.0087  -7.9771  -7.7852  -7.7700  -6.3218  -5.9947
    -5.9206  -5.7330  -5.6069  -5.3685  -5.2868  -5.0922  -5.0862  -5.0473
    -5.0458  -5.0393  -5.0337  -5.0332  -4.8934  -4.8253  -4.6635  -4.6521
    -4.1689  -4.0859  -4.0828  -4.0755  -4.0643  -4.0633  -4.0531  -4.0455
    -3.9913  -3.9524  -3.9339  -3.8976  -3.8306  -3.6879  -3.6554  -3.6412
    -3.6209  -3.6154  -3.4957  -3.4647  -3.4447  -3.4236  -3.4107  -3.3721
    -3.2297  -3.2120  -3.1361  -3.1097  -3.0731  -2.8971  -2.8415  -2.8281
    -2.5580  -2.5263  -2.4598  -2.4552  -2.4519  -2.4461  -2.4253  -2.4231
    -2.3999  -2.3559  -2.3525  -2.2093  -2.1551  -2.0834  -1.9648  -1.9580
    -1.9569  -1.9396  -1.9264  -1.9193  -1.8982  -1.8919  -1.8425  -1.8074
    -1.7633  -1.7029  -1.6794  -1.6793  -1.6635  -1.6251  -1.5971  -1.4836
    -1.4768  -1.4676  -1.4388  -1.4125  -1.4084  -1.3801  -1.3733  -1.3684
    -1.3605  -1.3565  -1.3346  -1.3213  -1.3108  -1.2921  -1.2913  -1.2813
    -1.2781  -1.2748  -1.2663  -1.2578  -1.2554  -1.2545  -1.2504  -1.2465
    -1.2451  -1.2361  -1.2341  -1.2319  -1.2254  -1.2042  -1.1923  -1.1869
    -1.1719  -1.1633  -1.1425  -1.1225  -1.0957  -1.0929  -1.0775  -1.0772
    -1.0676  -1.0669  -1.0637  -1.0590  -1.0383  -1.0342  -1.0217  -1.0212
    -1.0149  -1.0115  -1.0005  -0.9975  -0.9938  -0.9928  -0.9780  -0.9737
    -0.9587  -0.9558  -0.9554  -0.9495  -0.9430  -0.9407  -0.9343  -0.9333
    -0.9171  -0.9164  -0.9031  -0.8994  -0.8973  -0.8943  -0.8767  -0.8719
    -0.8640  -0.8441  -0.7960  -0.7820  -0.7603  -0.7486  -0.7406  -0.7389
    -0.7373  -0.7297  -0.7165  -0.6790  -0.6668  -0.6505  -0.6465  -0.6450
    -0.6414  -0.6348  -0.6345  -0.6303  -0.6258  -0.6193  -0.5979  -0.5824
    -0.5778  -0.5755  -0.5702  -0.5685  -0.5593  -0.5505  -0.5490  -0.5448
    -0.5438  -0.5089  -0.5077  -0.4758  -0.4365  -0.4355  -0.4258  -0.4216
    -0.4174  -0.4172  -0.3979  -0.3785  -0.3730  -0.3705  -0.3533  -0.3383
    -0.3376  -0.3258  -0.3219  -0.3194  -0.3034  -0.3025  -0.2988  -0.2956
    -0.2724  -0.2718  -0.2687  -0.2630  -0.2622  -0.2621  -0.2219  -0.2081
    -0.1985  -0.1950  -0.1863  -0.1837  -0.1496  -0.1488  -0.1317  -0.1291
    -0.1289  -0.1282  -0.1266  -0.1207  -0.1201  -0.1179  -0.1023  -0.0996
    -0.0732  -0.0651  -0.0502  -0.0453  -0.0443  -0.0425  -0.0387  -0.0378
    -0.0343  -0.0304  -0.0276  -0.0252  -0.0087  -0.0035   0.0052   0.0070
     0.0080   0.0089   0.0160   0.0171   0.0194   0.0283   0.0337   0.0422
     0.0474   0.0614   0.0820   0.0921   0.0974   0.1134   0.1184   0.1353
     0.1483   0.1706   0.1723   0.1726   0.1754   0.1759   0.1820   0.1857
     0.1870   0.1937   0.1952   0.2015   0.2104   0.2129   0.2162   0.2180
     0.2200   0.2244   0.2268   0.2291   0.2342   0.2384   0.2419   0.2443
     0.2455   0.2493   0.2496   0.2549   0.2658   0.2687   0.2758   0.2769
     0.2812   0.2898   0.2940   0.3006   0.3011   0.3051   0.3129   0.3213
     0.3281   0.3291   0.3374   0.3476   0.3552   0.3636   0.3667   0.3731
     0.3766   0.4089   0.4139   0.4311   0.4324   0.4366   0.4593   0.4629
     0.4668   0.4786   0.4840   0.4850   0.4941   0.5079   0.5093   0.5112
     0.5121   0.5130   0.5186   0.5222   0.5292   0.5296   0.5332   0.5362
     0.5475   0.5578   0.5661   0.5675   0.5705   0.5762   0.5808   0.5862
     0.5871   0.5910   0.5912   0.5951   0.5953   0.5989   0.6000   0.6038
     0.6113   0.6150   0.6222   0.6337   0.6453   0.6480   0.6565   0.6574
     0.6635   0.6683   0.6688   0.6746   0.6749   0.6809   0.6850   0.6888
     0.6909   0.6956   0.6989   0.7035   0.7066   0.7150   0.7152   0.7212
     0.7229   0.7257   0.7298   0.7380   0.7396   0.7410   0.7445   0.7643
     0.7698   0.7735   0.7776   0.7811   0.7865   0.7980   0.7984   0.7993
     0.8081   0.8084   0.8179   0.8181   0.8189   0.8269   0.8343   0.8387
     0.8437   0.8446   0.8449   0.8505   0.8555   0.8591   0.8608   0.8661
     0.8685   0.8709   0.8977   0.8989   0.9052   0.9059   0.9137   0.9195
     0.9320   0.9332   0.9405   0.9410   0.9457   0.9554   0.9706   0.9719
     0.9865   0.9898   0.9913   0.9917   0.9973   0.9975   1.0103   1.0153
     1.0361   1.0503   1.0547   1.0580   1.0606   1.0836   1.0928   1.0963
     1.1056   1.1126   1.1160   1.1174   1.1295   1.1316   1.1347   1.1404
     1.1408   1.1481   1.1490   1.1521   1.1530   1.1562   1.1620   1.1621
     1.1635   1.1656   1.1672   1.1674   1.1726   1.1743   1.1805   1.1830
     1.1879   1.1950   1.1966   1.1969   1.2020   1.2027   1.2084   1.2100
     1.2204   1.2211   1.2290   1.2393   1.2423   1.2450   1.2478   1.2511
     1.2581   1.2595   1.2667   1.2668   1.2707   1.2723   1.2861   1.3033
     1.3046   1.3057   1.3120   1.3158   1.3192   1.3238   1.3260   1.3293
     1.3319   1.3329   1.3389   1.3405   1.3491   1.3603   1.3631   1.3710
     1.3717   1.3833   1.3871   1.3872   1.3905   1.3955   1.3963   1.3980
     1.4002   1.4020   1.4032   1.4071   1.4074   1.4286   1.4419   1.4494
     1.4506   1.4545   1.4630   1.4664   1.4704   1.4705   1.4714   1.4737
     1.4752   1.4767   1.4769   1.4784   1.4819   1.4819   1.4875   1.4910
     1.4926   1.4929   1.4984   1.4999   1.5055   1.5079   1.5120   1.5124
     1.5159   1.5185   1.5207   1.5212   1.5213   1.5236   1.5306   1.5362
     1.5413   1.5527   1.5543   1.5586   1.5599   1.5639   1.5642   1.5777
     1.5848   1.5862   1.5875   1.5888   1.6002   1.6154   1.6169   1.6241
     1.6265   1.6406   1.6487   1.6533   1.6598   1.6614   1.6824   1.6845
     1.6912   1.6969   1.7077   1.7144   1.7148   1.7170   1.7196   1.7262
     1.7283   1.7347   1.7348   1.7374   1.7383   1.8889   1.9431   1.9527
     1.9595   2.0986   2.3977   2.3980   2.4207   2.5786   2.6266   2.6641
     2.6741   2.6887   2.8594   2.8977   2.9194   2.9697   3.1436   3.1703
     3.1992   3.5162   3.5165   3.5653   3.5683   3.6033   3.6636   3.7320
     3.7345   3.8191   4.0029   4.0454   4.0456   4.0533   4.2302   4.2875
     4.3052   4.3089   4.3229   4.3366   4.3552   4.3563   4.4359   4.4550
     4.6258   4.6550   4.6995   4.7257   4.7730   4.8047   4.9370   4.9658
     5.0016   5.0473   5.0882   5.0910   5.1574   5.1957   5.2248   5.2460
     5.2568   5.2837   5.3336   5.3497   5.3529   5.3978   5.4431   5.4481
     5.4718   5.6850   5.7337   5.7491   5.7880   5.7947   5.8288   5.8328
     5.8360   5.8589   5.8871   5.9064   5.9113   6.3485   6.3559   6.7204
     6.7715   7.0485   7.0572   7.0896   7.1252   7.1840   7.2047   7.2143
     7.2344   7.2345   7.2628   7.2847   7.2988   7.3933   7.3987   7.4579
     7.4909   7.5172   7.5734   7.5751   7.6020   7.7049   7.7669   7.8616
     7.9687   7.9740   8.0295   8.0350   8.0659   8.1798   8.2536   8.3071
     8.3210   8.3966   8.4026   8.4159   8.4293   8.4784   8.8661   8.9438
     8.9554   8.9695   8.9830   8.9838   8.9893   9.0075   9.0620   9.0817
     9.1277   9.1620   9.1816   9.1854   9.2033   9.2322   9.2954   9.3028
     9.3687   9.3758   9.4123   9.4679   9.5332   9.5442   9.5495   9.5675
     9.5761   9.6997   9.8688   9.9430  10.0035  10.0421

     the Fermi energy is     3.4415 ev

!    total energy              =  -12734.52744276 Ry
     Harris-Foulkes estimate   =  -12734.52744279 Ry
     estimated scf accuracy    <          4.2E-09 Ry

     The total energy is the sum of the following terms:

     one-electron contribution = -104203.80736779 Ry
     hartree contribution      =   53473.62508103 Ry
     xc contribution           =   -4456.84918302 Ry
     ewald contribution        =   42458.79917817 Ry
     Dispersion Correction     =      -2.93421543 Ry
     smearing contrib. (-TS)   =      -3.36093572 Ry

     convergence has been achieved in  45 iterations

     Writing output data file gc.save
 
     init_run     :     99.31s CPU    107.06s WALL (       1 calls)
     electrons    :  13618.54s CPU  14539.89s WALL (       1 calls)

     Called by init_run:
     wfcinit      :     96.98s CPU    104.31s WALL (       1 calls)
     potinit      :      0.42s CPU      0.43s WALL (       1 calls)

     Called by electrons:
     c_bands      :  12620.37s CPU  13441.44s WALL (      45 calls)
     sum_band     :    827.03s CPU    899.37s WALL (      45 calls)
     v_of_rho     :      2.95s CPU      3.62s WALL (      46 calls)
     newd         :      8.28s CPU     14.37s WALL (      46 calls)
     mix_rho      :    159.78s CPU    181.04s WALL (      45 calls)

     Called by c_bands:
     init_us_2    :     37.18s CPU     37.60s WALL (     546 calls)
     cegterg      :  12455.89s CPU  13270.89s WALL (     283 calls)

     Called by sum_band:
     sum_band:bec :      4.65s CPU      5.28s WALL (     270 calls)
     addusdens    :      8.07s CPU     14.00s WALL (      45 calls)

     Called by *egterg:
     h_psi        :   4372.46s CPU   4732.55s WALL (    2052 calls)
     s_psi        :   1043.75s CPU   1056.18s WALL (    2052 calls)
     g_psi        :     11.40s CPU     11.39s WALL (    1763 calls)
     cdiaghg      :   3803.98s CPU   3948.08s WALL (    2038 calls)

     Called by h_psi:
     add_vuspsi   :   1047.66s CPU   1062.31s WALL (    2052 calls)

     General routines
     calbec       :   1467.61s CPU   1478.84s WALL (    2322 calls)
     fft          :      3.50s CPU      4.05s WALL (     597 calls)
     ffts         :     93.19s CPU    105.62s WALL (   25022 calls)
     fftw         :   2510.75s CPU   2794.28s WALL ( 1401650 calls)
     davcio       :      0.21s CPU      3.78s WALL (       6 calls)
 
     Parallel routines
     fft_scatter  :   1611.20s CPU   1766.50s WALL ( 1427269 calls)
 
     PWSCF        :     3h48m CPU        4h 4m WALL

 
   This run was terminated on:  22:31:38  26Apr2017            

=------------------------------------------------------------------------------=
   JOB DONE.
=------------------------------------------------------------------------------=
