mpirun: INFO: switching to OpenMPI runtime version 1.10.2

     Program PWSCF v.5.4.0 starts on  5Oct2017 at  7:12:12 

     This program is part of the open-source Quantum ESPRESSO suite
     for quantum simulation of materials; please cite
         "P. Giannozzi et al., J. Phys.:Condens. Matter 21 395502 (2009);
          URL http://www.quantum-espresso.org", 
     in publications or presentations arising from this work. More details at
     http://www.quantum-espresso.org/quote

     Parallel version (MPI & OpenMP), running on      28 processor cores
     Number of MPI processes:                28
     Threads/MPI process:                     1
     R & G space division:  proc/nbgrp/npool/nimage =      28
     Waiting for input...
     Reading input from standard input
Warning: card &IONS ignored
Warning: card / ignored

     Current dimensions of program PWSCF are:
     Max number of different atomic species (ntypx) = 10
     Max number of k-points (npk) =  40000
     Max angular momentum in pseudopotentials (lmaxx) =  3
     WARNING: atomic wfc #  2 for atom type 4 has zero norm
     WARNING: atomic wfc #  4 for atom type 4 has zero norm
     WARNING: atomic wfc #  5 for atom type 4 has zero norm

     -------------------------------------
     Parameters for Dispersion Correction:
     -------------------------------------
       atom      VdW radius       C_6     

        Cu         2.952        374.666
        C_h        2.744         60.710
        C          2.744         60.710
        O          2.536         24.284

     Subspace diagonalization in iterative solution of the eigenvalue problem:
     one sub-group per band group will be used
     scalapack distributed-memory algorithm (size of sub-group:  3*  3 procs)

 
     Parallelization info
     --------------------
     sticks:   dense  smooth     PW     G-vecs:    dense   smooth      PW
     Min         408     408    108                73226    73226    9928
     Max         410     410    109                73231    73231    9931
     Sum       11433   11433   3039              2050409  2050409  278033
 


     bravais-lattice index     =            0
     lattice parameter (alat)  =      13.9425  a.u.
     unit-cell volume          =   21209.0878 (a.u.)^3
     number of atoms/cell      =          150
     number of atomic types    =            4
     number of electrons       =      1302.00
     number of Kohn-Sham states=          781
     kinetic-energy cutoff     =      80.0000  Ry
     charge density cutoff     =     320.0000  Ry
     convergence threshold     =      1.0E-08
     mixing beta               =       0.7000
     number of iterations used =            8  local-TF  mixing
     Exchange-correlation      =  SLA  PW   PBX  PBC ( 1  4  3  4 0 0)

     celldm(1)=  13.942539  celldm(2)=   0.000000  celldm(3)=   0.000000
     celldm(4)=   0.000000  celldm(5)=   0.000000  celldm(6)=   0.000000

     crystal axes: (cart. coord. in units of alat)
               a(1) = (   1.000000   0.000000   0.000000 )  
               a(2) = (   0.000000   2.309401   0.000000 )  
               a(3) = (   0.000000   0.000000   3.388418 )  

     reciprocal axes: (cart. coord. in units 2 pi/alat)
               b(1) = (  1.000000  0.000000  0.000000 )  
               b(2) = (  0.000000  0.433013  0.000000 )  
               b(3) = (  0.000000  0.000000  0.295123 )  


     PseudoPot. # 1 for Cu read from file:
     /home/549/hxw549/Short/pseudopotentials/Cu.pbe-n-van_ak.UPF
     MD5 check sum: 601f7c30f7467666bec936e0661ce3e1
     Pseudo is Ultrasoft + core correction, Zval = 11.0
     Generated by new atomic code, or converted to UPF format
     Using radial grid of  867 points,  6 beta functions with: 
                l(1) =   0
                l(2) =   0
                l(3) =   1
                l(4) =   1
                l(5) =   2
                l(6) =   2
     Q(r) pseudized with  8 coefficients,  rinner =    1.400   1.400   1.400
                                                       1.400   1.400

     PseudoPot. # 2 for C  read from file:
     /home/549/hxw549/Short/pseudopotentials/C.star1s-pbe-mt_gipaw.UPF
     MD5 check sum: ef0cb3dee31bd9e4ba2a832a2c716264
     Pseudo is Norm-conserving, Zval =  5.0
     Generated by new atomic code, or converted to UPF format
     Using radial grid of 1073 points,  1 beta functions with: 
                l(1) =   0

     PseudoPot. # 3 for C  read from file:
     /home/549/hxw549/Short/pseudopotentials/C.pbe-mt_gipaw.UPF
     MD5 check sum: 5ac2f21f2c440b14befe521540822c15
     Pseudo is Norm-conserving, Zval =  4.0
     Generated by new atomic code, or converted to UPF format
     Using radial grid of 1073 points,  1 beta functions with: 
                l(1) =   0

     PseudoPot. # 4 for O  read from file:
     /home/549/hxw549/Short/pseudopotentials/O.pbe-van_gipaw.UPF
     MD5 check sum: 5ce2a047509d4f331db576c963e74b29
     Pseudo is Ultrasoft, Zval =  6.0
     Generated by new atomic code, or converted to UPF format
     Using radial grid of 1095 points,  4 beta functions with: 
                l(1) =   0
                l(2) =   0
                l(3) =   1
                l(4) =   1
     Q(r) pseudized with 0 coefficients 


     atomic species   valence    mass     pseudopotential
        Cu            11.00    63.54600     Cu( 1.00)
        C_h            5.00    12.01070     C ( 1.00)
        C              4.00    12.01070     C ( 1.00)
        O              6.00    15.99940     O ( 1.00)

     No symmetry found



   Cartesian axes

     site n.     atom                  positions (alat units)
         1           Cu  tau(   1) = (   0.0007746  -0.0017263   0.9974341  )
         2           Cu  tau(   2) = (   0.2507737   0.2258138   0.9973260  )
         3           Cu  tau(   3) = (   0.5008760  -0.0022365   0.9966779  )
         4           Cu  tau(   4) = (   0.7508471   0.2263841   0.9980016  )
         5           Cu  tau(   5) = (   0.0008392   0.4565406   0.9985792  )
         6           Cu  tau(   6) = (   0.2509427   0.6897855   0.9999657  )
         7           Cu  tau(   7) = (   0.5008379   0.4568514   0.9990575  )
         8           Cu  tau(   8) = (   0.7507194   0.6897031   0.9999838  )
         9           Cu  tau(   9) = (   0.0006685   0.9241902   1.0001491  )
        10           Cu  tau(  10) = (   0.2508199   1.1585893   0.9994315  )
        11           Cu  tau(  11) = (   0.5008540   0.9240586   1.0006399  )
        12           Cu  tau(  12) = (   0.7507433   1.1584370   0.9997064  )
        13           Cu  tau(  13) = (   0.0007724   1.3915619   0.9981007  )
        14           Cu  tau(  14) = (   0.2507485   1.6225299   0.9965829  )
        15           Cu  tau(  15) = (   0.5008122   1.3916616   0.9979961  )
        16           Cu  tau(  16) = (   0.7508119   1.6227756   0.9965609  )
        17           Cu  tau(  17) = (   0.0009883   1.8518082   0.9959401  )
        18           Cu  tau(  18) = (   0.2507237   2.0803995   0.9968330  )
        19           Cu  tau(  19) = (   0.5006394   1.8518782   0.9959625  )
        20           Cu  tau(  20) = (   0.7509541   2.0796587   0.9956860  )
        21           Cu  tau(  21) = (   0.0010190   0.2258085   1.2493909  )
        22           Cu  tau(  22) = (   0.2504775  -0.0015663   1.2511192  )
        23           Cu  tau(  23) = (   0.5007592   0.2244625   1.2474139  )
        24           Cu  tau(  24) = (   0.7511204  -0.0032534   1.2489893  )
        25           Cu  tau(  25) = (   0.0011318   0.6883266   1.2442935  )
        26           Cu  tau(  26) = (   0.2506634   0.4550101   1.2457739  )
        27           Cu  tau(  27) = (   0.5010434   0.6889459   1.2455869  )
        28           Cu  tau(  28) = (   0.7513247   0.4551755   1.2463317  )
        29           Cu  tau(  29) = (   0.0009417   1.1597158   1.2443880  )
        30           Cu  tau(  30) = (   0.2512312   0.9241298   1.2444880  )
        31           Cu  tau(  31) = (   0.5007499   1.1593901   1.2450686  )
        32           Cu  tau(  32) = (   0.7508296   0.9240397   1.2450130  )
        33           Cu  tau(  33) = (   0.0007793   1.6243336   1.2463775  )
        34           Cu  tau(  34) = (   0.2504282   1.3930798   1.2451551  )
        35           Cu  tau(  35) = (   0.5008090   1.6252398   1.2451280  )
        36           Cu  tau(  36) = (   0.7512192   1.3936504   1.2446248  )
        37           Cu  tau(  37) = (   0.0010877   2.0797516   1.2492188  )
        38           Cu  tau(  38) = (   0.2507223   1.8528469   1.2475014  )
        39           Cu  tau(  39) = (   0.5004398   2.0799192   1.2488390  )
        40           Cu  tau(  40) = (   0.7508180   1.8531203   1.2475507  )
        41           Cu  tau(  41) = (   0.0016658  -0.0022985   1.5045196  )
        42           Cu  tau(  42) = (   0.2503972   0.2291600   1.5050437  )
        43           Cu  tau(  43) = (   0.5000117  -0.0022562   1.5036487  )
        44           Cu  tau(  44) = (   0.7517889   0.2249026   1.5000298  )
        45           Cu  tau(  45) = (   0.0021806   0.4573907   1.4979107  )
        46           Cu  tau(  46) = (   0.2515336   0.6876551   1.4914913  )
        47           Cu  tau(  47) = (   0.5009200   0.4538841   1.4935295  )
        48           Cu  tau(  48) = (   0.7528141   0.6875879   1.4907110  )
        49           Cu  tau(  49) = (   0.0033450   0.9232828   1.4888842  )
        50           Cu  tau(  50) = (   0.2503503   1.1598614   1.4909692  )
        51           Cu  tau(  51) = (   0.5011269   0.9241898   1.4909779  )
        52           Cu  tau(  52) = (   0.7519249   1.1613568   1.4891627  )
        53           Cu  tau(  53) = (   0.0011131   1.3942307   1.4938872  )
        54           Cu  tau(  54) = (   0.2503927   1.6255964   1.4976503  )
        55           Cu  tau(  55) = (   0.5006234   1.3972544   1.4901219  )
        56           Cu  tau(  56) = (   0.7512735   1.6255407   1.4977139  )
        57           Cu  tau(  57) = (   0.0005637   1.8528289   1.5024635  )
        58           Cu  tau(  58) = (   0.2506219   2.0792198   1.5045906  )
        59           Cu  tau(  59) = (   0.5009250   1.8529925   1.5021785  )
        60           Cu  tau(  60) = (   0.7508082   2.0800280   1.5044375  )
        61           Cu  tau(  61) = (   0.0038475   0.2303557   1.7544175  )
        62           Cu  tau(  62) = (   0.2510972  -0.0016110   1.7589938  )
        63           Cu  tau(  63) = (   0.4999193   0.2298937   1.7528921  )
        64           Cu  tau(  64) = (   0.7511849   0.0002495   1.7583826  )
        65           Cu  tau(  65) = (   0.0060098   0.6915091   1.7456589  )
        66           Cu  tau(  66) = (   0.2526343   0.4668484   1.7573948  )
        67           Cu  tau(  67) = (   0.5044723   0.6882987   1.7340652  )
        68           Cu  tau(  68) = (   0.7534858   0.4575929   1.7448602  )
        69           Cu  tau(  69) = (   0.0030806   1.1601133   1.7386452  )
        70           Cu  tau(  70) = (   0.2518379   0.9215057   1.7366438  )
        71           Cu  tau(  71) = (   0.5015939   1.1634386   1.7317629  )
        72           Cu  tau(  72) = (   0.7569360   0.9256709   1.7318463  )
        73           Cu  tau(  73) = (   0.0006284   1.6228987   1.7514313  )
        74           Cu  tau(  74) = (   0.2495296   1.3943295   1.7430802  )
        75           Cu  tau(  75) = (   0.5008934   1.6219922   1.7510664  )
        76           Cu  tau(  76) = (   0.7524006   1.3939441   1.7423004  )
        77           Cu  tau(  77) = (   0.0004462   2.0792281   1.7605390  )
        78           Cu  tau(  78) = (   0.2505914   1.8507081   1.7580746  )
        79           Cu  tau(  79) = (   0.5012530   2.0794473   1.7601117  )
        80           Cu  tau(  80) = (   0.7509891   1.8507123   1.7576061  )
        81           Cu  tau(  81) = (   0.0008286   0.0033963   2.0092933  )
        82           Cu  tau(  82) = (   0.2531685   0.2321805   2.0065704  )
        83           Cu  tau(  83) = (   0.5029616   0.0032808   2.0095555  )
        84           Cu  tau(  84) = (   0.7539833   0.2369850   2.0035455  )
        85           Cu  tau(  85) = (   0.0065270   0.4656567   2.0017021  )
        86           Cu  tau(  86) = (   0.2464865   0.6933756   2.0151552  )
        87           Cu  tau(  87) = (   0.5030727   0.4630537   1.9968478  )
        88           Cu  tau(  88) = (   0.7554598   0.6904527   1.9839067  )
        89           Cu  tau(  89) = (  -0.0046798   0.9283144   1.9874394  )
        90           Cu  tau(  90) = (   0.2487659   1.1590837   1.9772863  )
        91           Cu  tau(  91) = (   0.5151132   0.9293281   1.9559442  )
        92           Cu  tau(  92) = (   0.7550174   1.1625438   1.9831995  )
        93           Cu  tau(  93) = (   0.0028197   1.3884207   1.9964466  )
        94           Cu  tau(  94) = (   0.2520994   1.6161203   2.0043589  )
        95           Cu  tau(  95) = (   0.5000456   1.3851001   1.9926923  )
        96           Cu  tau(  96) = (   0.7493302   1.6156245   2.0040319  )
        97           Cu  tau(  97) = (   0.0005987   1.8456515   2.0105564  )
        98           Cu  tau(  98) = (   0.2507723   2.0792808   2.0122620  )
        99           Cu  tau(  99) = (   0.5009208   1.8468742   2.0092992  )
       100           Cu  tau( 100) = (   0.7514130   2.0792294   2.0116684  )
       101           C   tau( 101) = (   0.0000041   0.1004607   2.4706174  )
       102           C   tau( 102) = (   0.0000464   0.2911966   2.5077514  )
       103           C   tau( 103) = (   0.1667510   0.0039812   2.4555312  )
       104           C   tau( 104) = (   0.1667002   0.3869974   2.5272644  )
       105           C   tau( 105) = (   0.3333424   0.1007420   2.4699883  )
       106           C   tau( 106) = (   0.3334363   0.2919992   2.5051734  )
       107           C_h tau( 107) = (   0.5000066   0.0039836   2.4560683  )
       108           C   tau( 108) = (   0.4999469   0.3882212   2.5232037  )
       109           C   tau( 109) = (   0.6666958   0.1005847   2.4714172  )
       110           C   tau( 110) = (   0.6665358   0.2920099   2.5054082  )
       111           C   tau( 111) = (   0.8332310   0.0038601   2.4560699  )
       112           C   tau( 112) = (   0.8332509   0.3869252   2.5270840  )
       113           C   tau( 113) = (  -0.0001934   0.6737688   2.5777695  )
       114           C   tau( 114) = (  -0.0001856   0.8672651   2.5944491  )
       115           C   tau( 115) = (   0.1667594   0.5776866   2.5647008  )
       116           C   tau( 116) = (   0.1666435   0.9646073   2.6006922  )
       117           C   tau( 117) = (   0.3331110   0.6740993   2.5851705  )
       118           C   tau( 118) = (   0.3329710   0.8670446   2.6096596  )
       119           C   tau( 119) = (   0.4997466   0.5783682   2.5647021  )
       120           C   tau( 120) = (   0.4999838   0.9653277   2.6122075  )
       121           C   tau( 121) = (   0.6664953   0.6742678   2.5820520  )
       122           C   tau( 122) = (   0.6663998   0.8673954   2.6037964  )
       123           C   tau( 123) = (   0.8331008   0.5776885   2.5641855  )
       124           C   tau( 124) = (   0.8332477   0.9647019   2.5973254  )
       125           C   tau( 125) = (   0.0000710   1.2537597   2.5618756  )
       126           C   tau( 126) = (   0.0001158   1.4445822   2.5252882  )
       127           C   tau( 127) = (   0.1668448   1.1579586   2.5811571  )
       128           C   tau( 128) = (   0.1667803   1.5400959   2.5059542  )
       129           C   tau( 129) = (   0.3335356   1.2546126   2.5695193  )
       130           C   tau( 130) = (   0.3335027   1.4444043   2.5269442  )
       131           C   tau( 131) = (   0.5000824   1.1587316   2.5904068  )
       132           C   tau( 132) = (   0.5000760   1.5393962   2.5038670  )
       133           C   tau( 133) = (   0.6665019   1.2546303   2.5687975  )
       134           C   tau( 134) = (   0.6665495   1.4443316   2.5269178  )
       135           C   tau( 135) = (   0.8334671   1.1581306   2.5807843  )
       136           C   tau( 136) = (   0.8333255   1.5402118   2.5066151  )
       137           C   tau( 137) = (   0.0000004   1.8277352   2.4539580  )
       138           C   tau( 138) = (  -0.0000015   2.0216453   2.4380816  )
       139           C   tau( 139) = (   0.1667979   1.7311224   2.4699837  )
       140           C   tau( 140) = (   0.1667608   2.1194820   2.4391038  )
       141           C   tau( 141) = (   0.3334638   1.8277274   2.4563194  )
       142           C   tau( 142) = (   0.3334790   2.0215976   2.4405198  )
       143           C   tau( 143) = (   0.4999842   1.7306087   2.4686680  )
       144           C   tau( 144) = (   0.5000116   2.1195299   2.4408306  )
       145           C   tau( 145) = (   0.6666293   1.8276257   2.4559927  )
       146           C   tau( 146) = (   0.6665863   2.0215855   2.4403438  )
       147           C   tau( 147) = (   0.8331931   1.7310805   2.4699489  )
       148           C   tau( 148) = (   0.8332380   2.1195278   2.4386194  )
       149           C   tau( 149) = (   0.3726381   0.8371666   2.1777400  )
       150           O   tau( 150) = (   0.4493068   0.9396855   2.2775618  )

     number of k points=     6  gaussian smearing, width (Ry)=  0.1000
                       cart. coord. in units 2pi/alat
        k(    1) = (   0.0000000   0.0000000   0.0000000), wk =   0.2500000
        k(    2) = (   0.0000000  -0.2165064   0.0000000), wk =   0.2500000
        k(    3) = (   0.2500000   0.0000000   0.0000000), wk =   0.5000000
        k(    4) = (   0.2500000  -0.2165064   0.0000000), wk =   0.5000000
        k(    5) = (  -0.5000000   0.0000000   0.0000000), wk =   0.2500000
        k(    6) = (  -0.5000000  -0.2165064   0.0000000), wk =   0.2500000

     Dense  grid:  2050409 G-vectors     FFT dimensions: (  80, 192, 270)

     Largest allocated arrays     est. size (Mb)     dimensions
        Kohn-Sham Wavefunctions       109.29 Mb     (    9171,  781)
        NL pseudopotentials           259.87 Mb     (    9171, 1857)
        Each V/rho on FFT grid          2.34 Mb     (  153600)
        Each G-vector array             0.56 Mb     (   73230)
        G-vector shells                 0.27 Mb     (   35784)
     Largest temporary arrays     est. size (Mb)     dimensions
        Auxiliary wavefunctions       437.17 Mb     (    9171, 3124)
        Each subspace H/S matrix       16.54 Mb     (    1041, 1041)
        Each <psi_i|beta_j> matrix     22.13 Mb     (    1857,  781)
        Arrays for rho mixing          18.75 Mb     (  153600,    8)

     Initial potential from superposition of free atoms
     Check: negative starting charge=   -0.001514

     starting charge 1276.31751, renormalised to 1302.00000

     negative rho (up, down):  1.545E-03 0.000E+00
     Starting wfc are 1296 randomized atomic wfcs

     total cpu time spent up to now is      202.3 secs

     Self-consistent Calculation

     iteration #  1     ecut=    80.00 Ry     beta=0.70
     Davidson diagonalization with overlap
     c_bands:  5 eigenvalues not converged
     c_bands:  3 eigenvalues not converged
     c_bands:  4 eigenvalues not converged
     c_bands:  5 eigenvalues not converged
     ethr =  1.00E-04,  avg # of iterations = 41.7

     negative rho (up, down):  2.457E+01 0.000E+00

     total cpu time spent up to now is     4718.8 secs

     total energy              =  -10017.06033787 Ry
     Harris-Foulkes estimate   =  -18221.78606103 Ry
     estimated scf accuracy    <  209598.13464415 Ry

     iteration #  2     ecut=    80.00 Ry     beta=0.70
     Davidson diagonalization with overlap
     ethr =  1.00E-02,  avg # of iterations = 14.2

     negative rho (up, down):  3.207E+01 0.000E+00

     total cpu time spent up to now is     6757.3 secs

     total energy              =  -11789.39275881 Ry
     Harris-Foulkes estimate   =  -13824.26519434 Ry
     estimated scf accuracy    <   37622.14567421 Ry

     iteration #  3     ecut=    80.00 Ry     beta=0.70
     Davidson diagonalization with overlap
     ethr =  1.00E-02,  avg # of iterations = 19.5

     negative rho (up, down):  3.111E+01 0.000E+00

     total cpu time spent up to now is     8793.4 secs

     total energy              =  -12122.75652403 Ry
     Harris-Foulkes estimate   =  -13773.39453455 Ry
     estimated scf accuracy    <    6907.90925837 Ry

     iteration #  4     ecut=    80.00 Ry     beta=0.70
     Davidson diagonalization with overlap
     ethr =  1.00E-02,  avg # of iterations =  4.2

     negative rho (up, down):  2.140E+01 0.000E+00

     total cpu time spent up to now is     9770.3 secs

     total energy              =  -12883.30854998 Ry
     Harris-Foulkes estimate   =  -13095.53082787 Ry
     estimated scf accuracy    <     854.32472385 Ry

     iteration #  5     ecut=    80.00 Ry     beta=0.70
     Davidson diagonalization with overlap
     ethr =  1.00E-02,  avg # of iterations =  2.0

     negative rho (up, down):  1.665E+01 0.000E+00

     total cpu time spent up to now is    10233.8 secs

     total energy              =  -12881.44301230 Ry
     Harris-Foulkes estimate   =  -12941.33459962 Ry
     estimated scf accuracy    <    1157.24610278 Ry

     iteration #  6     ecut=    80.00 Ry     beta=0.70
     Davidson diagonalization with overlap
     ethr =  1.00E-02,  avg # of iterations =  2.0

     negative rho (up, down):  1.162E+01 0.000E+00

     total cpu time spent up to now is    10575.4 secs

     total energy              =  -12844.64562720 Ry
     Harris-Foulkes estimate   =  -12902.08775113 Ry
     estimated scf accuracy    <     561.69679275 Ry

     iteration #  7     ecut=    80.00 Ry     beta=0.70
     Davidson diagonalization with overlap
     ethr =  1.00E-02,  avg # of iterations =  2.0

     negative rho (up, down):  7.419E+00 0.000E+00

     total cpu time spent up to now is    10921.4 secs

     total energy              =  -12831.47198595 Ry
     Harris-Foulkes estimate   =  -12869.19787524 Ry
     estimated scf accuracy    <     350.15179712 Ry

     iteration #  8     ecut=    80.00 Ry     beta=0.70
     Davidson diagonalization with overlap
     ethr =  1.00E-02,  avg # of iterations =  1.0

     negative rho (up, down):  6.001E+00 0.000E+00

     total cpu time spent up to now is    11242.8 secs

     total energy              =  -12820.97391832 Ry
     Harris-Foulkes estimate   =  -12837.99390040 Ry
     estimated scf accuracy    <     277.57537765 Ry

     iteration #  9     ecut=    80.00 Ry     beta=0.70
     Davidson diagonalization with overlap
     ethr =  1.00E-02,  avg # of iterations =  1.0

     negative rho (up, down):  4.387E+00 0.000E+00

     total cpu time spent up to now is    11565.0 secs

     total energy              =  -12809.16021901 Ry
     Harris-Foulkes estimate   =  -12825.21860455 Ry
     estimated scf accuracy    <     186.39168955 Ry

     iteration # 10     ecut=    80.00 Ry     beta=0.70
     Davidson diagonalization with overlap
     ethr =  1.00E-02,  avg # of iterations =  1.0

     negative rho (up, down):  4.551E-01 0.000E+00

     total cpu time spent up to now is    11888.9 secs

     total energy              =  -12775.16557848 Ry
     Harris-Foulkes estimate   =  -12811.03901135 Ry
     estimated scf accuracy    <     133.73061789 Ry

     iteration # 11     ecut=    80.00 Ry     beta=0.70
     Davidson diagonalization with overlap
     ethr =  1.00E-02,  avg # of iterations =  1.8

     negative rho (up, down):  1.066E+00 0.000E+00

     total cpu time spent up to now is    12229.5 secs

     total energy              =  -12764.85635031 Ry
     Harris-Foulkes estimate   =  -12781.48417610 Ry
     estimated scf accuracy    <     137.15989191 Ry

     iteration # 12     ecut=    80.00 Ry     beta=0.70
     Davidson diagonalization with overlap
     ethr =  1.00E-02,  avg # of iterations =  2.0

     negative rho (up, down):  1.126E+00 0.000E+00

     total cpu time spent up to now is    12575.7 secs

     total energy              =  -12764.38342091 Ry
     Harris-Foulkes estimate   =  -12772.57178292 Ry
     estimated scf accuracy    <      47.37873692 Ry

     iteration # 13     ecut=    80.00 Ry     beta=0.70
     Davidson diagonalization with overlap
     ethr =  3.64E-03,  avg # of iterations =  3.5

     negative rho (up, down):  4.347E+00 0.000E+00

     total cpu time spent up to now is    12950.9 secs

     total energy              =  -12758.30471248 Ry
     Harris-Foulkes estimate   =  -12766.97133012 Ry
     estimated scf accuracy    <      40.39661008 Ry

     iteration # 14     ecut=    80.00 Ry     beta=0.70
     Davidson diagonalization with overlap
     ethr =  3.10E-03,  avg # of iterations =  3.2

     negative rho (up, down):  4.793E+00 0.000E+00

     total cpu time spent up to now is    13319.9 secs

     total energy              =  -12755.67934709 Ry
     Harris-Foulkes estimate   =  -12760.87098338 Ry
     estimated scf accuracy    <      43.64613478 Ry

     iteration # 15     ecut=    80.00 Ry     beta=0.70
     Davidson diagonalization with overlap
     ethr =  3.10E-03,  avg # of iterations =  2.0

     negative rho (up, down):  4.803E+00 0.000E+00

     total cpu time spent up to now is    13665.7 secs

     total energy              =  -12755.29582339 Ry
     Harris-Foulkes estimate   =  -12758.89695415 Ry
     estimated scf accuracy    <      21.25346585 Ry

     iteration # 16     ecut=    80.00 Ry     beta=0.70
     Davidson diagonalization with overlap
     ethr =  1.63E-03,  avg # of iterations =  4.2

     negative rho (up, down):  4.751E+00 0.000E+00

     total cpu time spent up to now is    14056.4 secs

     total energy              =  -12755.79011383 Ry
     Harris-Foulkes estimate   =  -12756.65330077 Ry
     estimated scf accuracy    <      12.41000762 Ry

     iteration # 17     ecut=    80.00 Ry     beta=0.70
     Davidson diagonalization with overlap
     ethr =  9.53E-04,  avg # of iterations =  4.8

     negative rho (up, down):  3.315E+00 0.000E+00

     total cpu time spent up to now is    14459.4 secs

     total energy              =  -12754.85548872 Ry
     Harris-Foulkes estimate   =  -12756.01487263 Ry
     estimated scf accuracy    <       9.04007561 Ry

     iteration # 18     ecut=    80.00 Ry     beta=0.70
     Davidson diagonalization with overlap
     ethr =  6.94E-04,  avg # of iterations =  5.2

     negative rho (up, down):  2.656E+00 0.000E+00

     total cpu time spent up to now is    14871.0 secs

     total energy              =  -12754.04509343 Ry
     Harris-Foulkes estimate   =  -12755.09912980 Ry
     estimated scf accuracy    <       7.03061332 Ry

     iteration # 19     ecut=    80.00 Ry     beta=0.70
     Davidson diagonalization with overlap
     ethr =  5.40E-04,  avg # of iterations =  3.2

     negative rho (up, down):  1.345E+00 0.000E+00

     total cpu time spent up to now is    15240.1 secs

     total energy              =  -12752.32627120 Ry
     Harris-Foulkes estimate   =  -12754.21744098 Ry
     estimated scf accuracy    <       5.84777682 Ry

     iteration # 20     ecut=    80.00 Ry     beta=0.70
     Davidson diagonalization with overlap
     ethr =  4.49E-04,  avg # of iterations =  7.7

     negative rho (up, down):  9.432E-01 0.000E+00

     total cpu time spent up to now is    15719.4 secs

     total energy              =  -12752.27768658 Ry
     Harris-Foulkes estimate   =  -12752.56333345 Ry
     estimated scf accuracy    <       8.09772691 Ry

     iteration # 21     ecut=    80.00 Ry     beta=0.70
     Davidson diagonalization with overlap
     ethr =  4.49E-04,  avg # of iterations =  3.3

     negative rho (up, down):  3.568E-01 0.000E+00

     total cpu time spent up to now is    16091.1 secs

     total energy              =  -12751.18022709 Ry
     Harris-Foulkes estimate   =  -12752.41930532 Ry
     estimated scf accuracy    <       4.70541144 Ry

     iteration # 22     ecut=    80.00 Ry     beta=0.70
     Davidson diagonalization with overlap
     ethr =  3.61E-04,  avg # of iterations =  7.7

     negative rho (up, down):  1.079E-01 0.000E+00

     total cpu time spent up to now is    16566.2 secs

     total energy              =  -12750.96304041 Ry
     Harris-Foulkes estimate   =  -12751.43819032 Ry
     estimated scf accuracy    <      11.87459917 Ry

     iteration # 23     ecut=    80.00 Ry     beta=0.70
     Davidson diagonalization with overlap
     ethr =  3.61E-04,  avg # of iterations =  8.0

     negative rho (up, down):  1.073E-01 0.000E+00

     total cpu time spent up to now is    17038.2 secs

     total energy              =  -12751.01085946 Ry
     Harris-Foulkes estimate   =  -12751.25167353 Ry
     estimated scf accuracy    <       4.11027817 Ry

     iteration # 24     ecut=    80.00 Ry     beta=0.70
     Davidson diagonalization with overlap
     ethr =  3.16E-04,  avg # of iterations =  2.5

     negative rho (up, down):  1.353E-01 0.000E+00

     total cpu time spent up to now is    17392.2 secs

     total energy              =  -12750.82180352 Ry
     Harris-Foulkes estimate   =  -12751.05253394 Ry
     estimated scf accuracy    <       2.63168879 Ry

     iteration # 25     ecut=    80.00 Ry     beta=0.70
     Davidson diagonalization with overlap
     ethr =  2.02E-04,  avg # of iterations =  1.8

     negative rho (up, down):  1.028E-01 0.000E+00

     total cpu time spent up to now is    17735.7 secs

     total energy              =  -12750.45463382 Ry
     Harris-Foulkes estimate   =  -12750.85529514 Ry
     estimated scf accuracy    <       2.45292851 Ry

     iteration # 26     ecut=    80.00 Ry     beta=0.70
     Davidson diagonalization with overlap
     ethr =  1.88E-04,  avg # of iterations =  5.8

     negative rho (up, down):  1.021E-02 0.000E+00

     total cpu time spent up to now is    18166.7 secs

     total energy              =  -12750.16858437 Ry
     Harris-Foulkes estimate   =  -12750.62383414 Ry
     estimated scf accuracy    <       4.27812923 Ry

     iteration # 27     ecut=    80.00 Ry     beta=0.70
     Davidson diagonalization with overlap
     ethr =  1.88E-04,  avg # of iterations =  2.5

     negative rho (up, down):  3.451E-02 0.000E+00

     total cpu time spent up to now is    18525.1 secs

     total energy              =  -12750.20823144 Ry
     Harris-Foulkes estimate   =  -12750.44429313 Ry
     estimated scf accuracy    <       0.95344995 Ry

     iteration # 28     ecut=    80.00 Ry     beta=0.70
     Davidson diagonalization with overlap
     ethr =  7.32E-05,  avg # of iterations =  7.3

     negative rho (up, down):  4.884E-06 0.000E+00

     total cpu time spent up to now is    19017.0 secs

     total energy              =  -12750.21359703 Ry
     Harris-Foulkes estimate   =  -12750.27620200 Ry
     estimated scf accuracy    <       0.43631489 Ry

     iteration # 29     ecut=    80.00 Ry     beta=0.70
     Davidson diagonalization with overlap
     ethr =  3.35E-05,  avg # of iterations = 10.0

     negative rho (up, down):  1.299E-01 0.000E+00

     total cpu time spent up to now is    19542.4 secs

     total energy              =  -12750.17701360 Ry
     Harris-Foulkes estimate   =  -12750.25584064 Ry
     estimated scf accuracy    <       0.35138194 Ry

     iteration # 30     ecut=    80.00 Ry     beta=0.70
     Davidson diagonalization with overlap
     ethr =  2.70E-05,  avg # of iterations =  7.3

     negative rho (up, down):  9.887E-02 0.000E+00

     total cpu time spent up to now is    20048.8 secs

     total energy              =  -12750.19664488 Ry
     Harris-Foulkes estimate   =  -12750.19941846 Ry
     estimated scf accuracy    <       0.04521007 Ry

     iteration # 31     ecut=    80.00 Ry     beta=0.70
     Davidson diagonalization with overlap
     ethr =  3.47E-06,  avg # of iterations =  8.3

     negative rho (up, down):  8.211E-02 0.000E+00

     total cpu time spent up to now is    20545.1 secs

     total energy              =  -12750.19779039 Ry
     Harris-Foulkes estimate   =  -12750.20105623 Ry
     estimated scf accuracy    <       0.03180758 Ry

     iteration # 32     ecut=    80.00 Ry     beta=0.70
     Davidson diagonalization with overlap
     c_bands:  1 eigenvalues not converged
     ethr =  2.44E-06,  avg # of iterations = 10.3

     negative rho (up, down):  4.367E-02 0.000E+00

     total cpu time spent up to now is    21097.9 secs

     total energy              =  -12750.19854815 Ry
     Harris-Foulkes estimate   =  -12750.19954856 Ry
     estimated scf accuracy    <       0.00951991 Ry

     iteration # 33     ecut=    80.00 Ry     beta=0.70
     Davidson diagonalization with overlap
     c_bands:  1 eigenvalues not converged
     ethr =  7.31E-07,  avg # of iterations = 11.5

     negative rho (up, down):  4.169E-02 0.000E+00

     total cpu time spent up to now is    21692.5 secs

     total energy              =  -12750.19887718 Ry
     Harris-Foulkes estimate   =  -12750.19917542 Ry
     estimated scf accuracy    <       0.00550943 Ry

     iteration # 34     ecut=    80.00 Ry     beta=0.70
     Davidson diagonalization with overlap
     ethr =  4.23E-07,  avg # of iterations =  6.7

     negative rho (up, down):  2.986E-02 0.000E+00

     total cpu time spent up to now is    22152.8 secs

     total energy              =  -12750.19882645 Ry
     Harris-Foulkes estimate   =  -12750.19912643 Ry
     estimated scf accuracy    <       0.00146889 Ry

     iteration # 35     ecut=    80.00 Ry     beta=0.70
     Davidson diagonalization with overlap
     c_bands:  1 eigenvalues not converged
     ethr =  1.13E-07,  avg # of iterations =  8.5

     negative rho (up, down):  1.616E-02 0.000E+00

     total cpu time spent up to now is    22667.8 secs

     total energy              =  -12750.19871452 Ry
     Harris-Foulkes estimate   =  -12750.19897364 Ry
     estimated scf accuracy    <       0.00079376 Ry

     iteration # 36     ecut=    80.00 Ry     beta=0.70
     Davidson diagonalization with overlap
     c_bands:  1 eigenvalues not converged
     ethr =  6.10E-08,  avg # of iterations = 10.8

     negative rho (up, down):  4.121E-03 0.000E+00

     total cpu time spent up to now is    23252.6 secs

     total energy              =  -12750.19853537 Ry
     Harris-Foulkes estimate   =  -12750.19878465 Ry
     estimated scf accuracy    <       0.00016215 Ry

     iteration # 37     ecut=    80.00 Ry     beta=0.70
     Davidson diagonalization with overlap
     c_bands:  3 eigenvalues not converged
     c_bands:  1 eigenvalues not converged
     ethr =  1.25E-08,  avg # of iterations = 16.3

     negative rho (up, down):  2.516E-03 0.000E+00

     total cpu time spent up to now is    23959.0 secs

     total energy              =  -12750.19852348 Ry
     Harris-Foulkes estimate   =  -12750.19855101 Ry
     estimated scf accuracy    <       0.00006419 Ry

     iteration # 38     ecut=    80.00 Ry     beta=0.70
     Davidson diagonalization with overlap
     c_bands:  1 eigenvalues not converged
     ethr =  4.93E-09,  avg # of iterations =  8.5

     negative rho (up, down):  2.026E-03 0.000E+00

     total cpu time spent up to now is    24464.0 secs

     total energy              =  -12750.19853047 Ry
     Harris-Foulkes estimate   =  -12750.19852953 Ry
     estimated scf accuracy    <       0.00001329 Ry

     iteration # 39     ecut=    80.00 Ry     beta=0.70
     Davidson diagonalization with overlap
     ethr =  1.02E-09,  avg # of iterations =  7.3

     negative rho (up, down):  1.672E-03 0.000E+00

     total cpu time spent up to now is    24945.6 secs

     total energy              =  -12750.19853083 Ry
     Harris-Foulkes estimate   =  -12750.19853163 Ry
     estimated scf accuracy    <       0.00000265 Ry

     iteration # 40     ecut=    80.00 Ry     beta=0.70
     Davidson diagonalization with overlap
     ethr =  2.04E-10,  avg # of iterations =  2.2

     negative rho (up, down):  1.657E-03 0.000E+00

     total cpu time spent up to now is    25320.8 secs

     total energy              =  -12750.19853147 Ry
     Harris-Foulkes estimate   =  -12750.19853111 Ry
     estimated scf accuracy    <       0.00000053 Ry

     iteration # 41     ecut=    80.00 Ry     beta=0.70
     Davidson diagonalization with overlap
     ethr =  4.10E-11,  avg # of iterations =  3.0

     negative rho (up, down):  1.657E-03 0.000E+00

     total cpu time spent up to now is    25828.3 secs

     total energy              =  -12750.19853178 Ry
     Harris-Foulkes estimate   =  -12750.19853160 Ry
     estimated scf accuracy    <       0.00000031 Ry

     iteration # 42     ecut=    80.00 Ry     beta=0.70
     Davidson diagonalization with overlap
     ethr =  2.38E-11,  avg # of iterations =  2.0

     negative rho (up, down):  1.648E-03 0.000E+00

     total cpu time spent up to now is    26189.1 secs

     total energy              =  -12750.19853184 Ry
     Harris-Foulkes estimate   =  -12750.19853180 Ry
     estimated scf accuracy    <       0.00000008 Ry

     iteration # 43     ecut=    80.00 Ry     beta=0.70
     Davidson diagonalization with overlap
     ethr =  6.06E-12,  avg # of iterations =  2.7

     negative rho (up, down):  1.651E-03 0.000E+00

     total cpu time spent up to now is    26567.6 secs

     total energy              =  -12750.19853184 Ry
     Harris-Foulkes estimate   =  -12750.19853184 Ry
     estimated scf accuracy    <       0.00000002 Ry

     iteration # 44     ecut=    80.00 Ry     beta=0.70
     Davidson diagonalization with overlap
     ethr =  1.29E-12,  avg # of iterations =  3.0

     negative rho (up, down):  1.683E-03 0.000E+00

     total cpu time spent up to now is    26967.5 secs

     End of self-consistent calculation

          k = 0.0000 0.0000 0.0000 (256287 PWs)   bands (ev):

   -20.2633 -16.9386 -15.7550 -15.6590 -15.0244 -14.6333 -14.4006 -14.3116
   -13.7726 -13.7291 -13.7105 -13.6869 -13.0790 -12.9431 -12.7391 -12.7208
   -12.6779 -12.6729 -11.3176 -11.1595 -11.1231 -11.0134 -10.9237  -9.9529
    -9.4360  -9.4239  -9.2629  -9.2003  -8.5649  -8.3805  -8.2612  -8.1830
    -7.7139  -7.4766  -7.4369  -7.2630  -7.1915  -7.1719  -7.1390  -7.1060
    -6.7940  -6.0058  -6.0037  -5.8936  -5.7631  -5.6543  -5.5976  -5.5596
    -5.5410  -5.5204  -5.3718  -5.3632  -4.8863  -4.7293  -4.5207  -4.5028
    -4.4244  -4.3732  -4.3095  -4.2229  -4.1287  -4.0290  -3.8670  -3.8424
    -3.7915  -3.7158  -3.6202  -3.5497  -3.3745  -3.3191  -3.2929  -3.2904
    -3.2741  -3.2457  -3.1373  -3.1033  -3.0889  -2.9327  -2.9134  -2.9025
    -2.8961  -2.8900  -2.8839  -2.8212  -2.7256  -2.6300  -2.6201  -2.5524
    -2.5061  -2.4683  -2.4510  -2.4209  -2.4147  -2.4064  -2.3871  -2.2758
    -2.2018  -2.1947  -2.1767  -2.1646  -2.0903  -2.0840  -2.0590  -2.0556
    -2.0539  -2.0508  -2.0459  -1.9347  -1.9324  -1.9135  -1.9109  -1.8879
    -1.7586  -1.7536  -1.6827  -1.6556  -1.6443  -1.6417  -1.6399  -1.6286
    -1.6125  -1.6087  -1.5944  -1.5836  -1.5601  -1.5578  -1.5523  -1.5384
    -1.5178  -1.4893  -1.4864  -1.4845  -1.4755  -1.4712  -1.4565  -1.4478
    -1.4411  -1.4248  -1.4219  -1.4115  -1.3912  -1.3594  -1.3555  -1.3462
    -1.3222  -1.2619  -1.2318  -1.2107  -1.2072  -1.2040  -1.1853  -1.1761
    -1.1678  -1.1563  -1.1530  -1.1268  -1.1169  -1.1019  -1.1017  -1.0779
    -1.0671  -0.9953  -0.9803  -0.9719  -0.9709  -0.9619  -0.9570  -0.9546
    -0.9500  -0.9484  -0.9450  -0.9335  -0.9283  -0.9230  -0.9198  -0.9101
    -0.9095  -0.9079  -0.8903  -0.8631  -0.8612  -0.8572  -0.8520  -0.8362
    -0.8331  -0.8313  -0.8129  -0.7992  -0.7842  -0.7792  -0.7747  -0.7708
    -0.7703  -0.7640  -0.7612  -0.7601  -0.7592  -0.7578  -0.7554  -0.7536
    -0.7515  -0.7502  -0.7477  -0.7311  -0.6825  -0.6319  -0.6044  -0.6017
    -0.5978  -0.5937  -0.5805  -0.5772  -0.5762  -0.5606  -0.5521  -0.5468
    -0.5432  -0.5395  -0.5324  -0.5286  -0.5192  -0.5055  -0.4926  -0.4818
    -0.4787  -0.4772  -0.4739  -0.4701  -0.4672  -0.4576  -0.4337  -0.4261
    -0.4168  -0.4064  -0.3908  -0.3725  -0.3694  -0.3654  -0.3599  -0.3465
    -0.3462  -0.3365  -0.3351  -0.3302  -0.3289  -0.3258  -0.3219  -0.3210
    -0.3188  -0.3157  -0.3114  -0.3040  -0.3016  -0.2990  -0.2966  -0.2923
    -0.2832  -0.2613  -0.2547  -0.2473  -0.2346  -0.2284  -0.2135  -0.2074
    -0.2052  -0.1989  -0.1978  -0.1942  -0.1906  -0.1848  -0.1839  -0.1763
    -0.1638  -0.1603  -0.1564  -0.1548  -0.1537  -0.1457  -0.1453  -0.1406
    -0.1366  -0.1303  -0.1241  -0.1147  -0.1112  -0.1090  -0.1011  -0.1005
    -0.0933  -0.0787  -0.0653  -0.0543  -0.0436  -0.0401  -0.0275  -0.0193
    -0.0074  -0.0048   0.0036   0.0116   0.0168   0.0221   0.0256   0.0277
     0.0322   0.0359   0.0442   0.0624   0.0672   0.0730   0.0793   0.0855
     0.0877   0.0898   0.0997   0.1108   0.1142   0.1199   0.1218   0.1285
     0.1314   0.1342   0.1358   0.1419   0.1450   0.1502   0.1530   0.1677
     0.1710   0.1714   0.1777   0.1861   0.1897   0.1912   0.2181   0.2216
     0.2249   0.2334   0.2414   0.2443   0.2514   0.2731   0.2791   0.2870
     0.2953   0.3041   0.3161   0.3234   0.3360   0.3456   0.3479   0.3532
     0.3576   0.3647   0.3670   0.3790   0.3929   0.4003   0.4066   0.4105
     0.4136   0.4327   0.4364   0.4380   0.4434   0.4529   0.4577   0.4628
     0.4672   0.4789   0.4845   0.4866   0.4978   0.5092   0.5120   0.5152
     0.5245   0.5306   0.5331   0.5379   0.5567   0.5614   0.5651   0.5704
     0.5757   0.5779   0.5830   0.5983   0.6040   0.6041   0.6088   0.6111
     0.6161   0.6195   0.6215   0.6256   0.6272   0.6289   0.6329   0.6380
     0.6428   0.6456   0.6534   0.6581   0.6678   0.6703   0.6796   0.6870
     0.6908   0.6975   0.7021   0.7118   0.7142   0.7204   0.7245   0.7283
     0.7423   0.7430   0.7452   0.7491   0.7504   0.7535   0.7585   0.7595
     0.7622   0.7678   0.7689   0.7760   0.7831   0.7848   0.7928   0.7970
     0.8042   0.8089   0.8096   0.8099   0.8118   0.8238   0.8260   0.8282
     0.8358   0.8387   0.8439   0.8495   0.8653   0.8674   0.8787   0.8841
     0.8907   0.8979   0.9091   0.9120   0.9157   0.9227   0.9255   0.9400
     0.9414   0.9447   0.9500   0.9534   0.9562   0.9634   0.9740   0.9799
     0.9821   0.9883   0.9907   0.9923   0.9957   1.0019   1.0043   1.0055
     1.0120   1.0213   1.0283   1.0398   1.0421   1.0498   1.0573   1.0607
     1.0649   1.0680   1.0754   1.0766   1.0787   1.0810   1.0879   1.0916
     1.0932   1.0979   1.1007   1.1035   1.1082   1.1114   1.1138   1.1201
     1.1221   1.1293   1.1351   1.1403   1.1449   1.1522   1.1597   1.1616
     1.1647   1.1664   1.1706   1.1739   1.1774   1.1788   1.1798   1.1807
     1.1877   1.1897   1.1919   1.1945   1.2004   1.2036   1.2096   1.2211
     1.2215   1.2311   1.2321   1.2328   1.2471   1.2498   1.2565   1.2699
     1.2705   1.2726   1.2771   1.2835   1.2903   1.2992   1.3039   1.3079
     1.3109   1.3164   1.3189   1.3222   1.3258   1.3309   1.3350   1.3376
     1.3390   1.3408   1.3431   1.3454   1.3469   1.3565   1.3596   1.3629
     1.3690   1.3711   1.3730   1.3742   1.3775   1.3796   1.3806   1.3836
     1.3886   1.3945   1.4008   1.4030   1.4064   1.4095   1.4119   1.4183
     1.4217   1.4271   1.4324   1.4344   1.4404   1.4431   1.4526   1.4552
     1.4591   1.4672   1.4697   1.4731   1.4764   1.4808   1.4819   1.4827
     1.4868   1.4887   1.4920   1.4945   1.4958   1.4970   1.4988   1.5061
     1.5082   1.5184   1.5194   1.5227   1.5264   1.5290   1.5362   1.5392
     1.5446   1.5480   1.5541   1.5657   1.5699   1.5756   1.5828   1.6038
     1.6120   1.6171   1.6210   1.6253   1.6312   1.6584   1.6595   1.6780
     1.6820   1.6828   1.6893   1.6920   1.6950   1.7003   1.7149   1.7200
     1.8152   1.9709   2.0174   2.1223   2.1299   2.1430   2.2222   2.2529
     2.2624   2.2635   2.2672   2.2706   2.2840   2.2858   2.3135   2.4130
     2.4202   2.4671   2.4811   2.5011   2.5111   2.5301   2.6360   2.7175
     2.7488   2.7641   2.8158   3.0250   3.1873   3.2960   3.3254   3.3888
     3.4826   3.5490   3.7440   3.7707   3.8152   3.8469   3.8752   3.8952
     3.9062   3.9574   3.9761   4.0116   4.0512   4.0532   4.0654   4.0740
     4.0806   4.1035   4.1642   4.1861   4.2152   4.2552   4.6153   4.6959
     4.8246   5.0399   5.1593   5.1880   5.2162   5.2570   5.2790   5.3412
     5.4094   5.4906   5.5653   5.6503   5.6667   5.8839   5.9989   6.0224
     6.1337   6.2454   6.2566   6.4065   6.4207   6.4964   6.5241   6.5699
     6.6097   6.6571   6.6790   6.7075   6.8008   6.8282   6.9286   6.9572
     6.9647   7.0103   7.0492   7.0667   7.0793   7.1280   7.1627   7.1990
     7.3247   7.4203   7.4521   7.4847   7.5559   7.6452   7.7134   7.7562
     7.7961   7.9078   8.0550   8.0830   8.1219   8.1421   8.1653   8.1757
     8.2436   8.3352   8.3410   8.3662   8.3979   8.4118   8.4215   8.4839
     8.5276   8.5814   8.6046   8.6151   8.6480   8.6609   8.7375   8.7874
     8.7899   8.8336   8.8464   8.8550   8.8751   8.9016   8.9917   9.0388
     9.0558   9.1070   9.1579   9.2042   9.2799   9.3510   9.3976   9.4784
     9.4908   9.5071   9.5841   9.6120   9.6355   9.7390   9.7927   9.9009
     9.9702  10.0264  10.1130  10.1155  10.1482

          k = 0.0000-0.2165 0.0000 (256176 PWs)   bands (ev):

   -20.2633 -16.9384 -15.8331 -15.4627 -15.2325 -14.6901 -14.3052 -13.9232
   -13.8682 -13.8533 -13.8222 -13.3947 -13.3331 -13.2881 -13.2663 -12.2290
   -12.0521 -11.9900 -11.9164 -11.8170 -11.7149 -10.3088 -10.2016 -10.1986
   -10.0253  -9.1420  -9.1009  -8.9174  -8.7622  -8.5828  -8.5340  -7.9898
    -7.8693  -7.7841  -7.7370  -7.1545  -6.9795  -6.8077  -6.6010  -6.5916
    -6.5054  -6.4964  -6.4700  -6.4435  -5.9202  -5.8241  -5.7720  -5.7499
    -5.2005  -5.0812  -4.8732  -4.8387  -4.7780  -4.7583  -4.7250  -4.7015
    -4.6199  -4.5992  -4.4632  -4.3454  -4.3266  -4.1983  -4.1426  -3.7837
    -3.7054  -3.5810  -3.5338  -3.4411  -3.4145  -3.2661  -3.1982  -3.1903
    -3.1834  -3.1795  -3.1280  -3.0513  -2.9631  -2.9405  -2.9126  -2.8924
    -2.8244  -2.7568  -2.7236  -2.6256  -2.6123  -2.5511  -2.5416  -2.5329
    -2.5226  -2.5030  -2.4765  -2.4724  -2.4707  -2.4678  -2.3673  -2.3392
    -2.3228  -2.3093  -2.2637  -2.2132  -2.1712  -2.1497  -2.0984  -2.0838
    -2.0559  -2.0304  -2.0292  -2.0251  -2.0047  -1.8904  -1.8885  -1.8670
    -1.8658  -1.8223  -1.7648  -1.6994  -1.6863  -1.6824  -1.6675  -1.6603
    -1.6521  -1.6468  -1.6451  -1.6382  -1.6273  -1.6154  -1.5884  -1.5763
    -1.5710  -1.5633  -1.5583  -1.5459  -1.5392  -1.4158  -1.4119  -1.3930
    -1.3719  -1.2855  -1.2797  -1.2575  -1.2477  -1.2318  -1.2233  -1.2135
    -1.2023  -1.1970  -1.1965  -1.1856  -1.1838  -1.1799  -1.1711  -1.1663
    -1.1600  -1.1571  -1.1507  -1.1409  -1.1353  -1.1273  -1.1192  -1.1154
    -1.1110  -1.0801  -1.0750  -1.0413  -1.0301  -0.9999  -0.9970  -0.9959
    -0.9791  -0.9712  -0.9634  -0.9619  -0.9583  -0.9574  -0.9544  -0.9445
    -0.9181  -0.9010  -0.8960  -0.8955  -0.8869  -0.8831  -0.8807  -0.8498
    -0.8419  -0.8390  -0.8382  -0.8334  -0.8271  -0.8224  -0.8191  -0.8130
    -0.7950  -0.7679  -0.7617  -0.7574  -0.7492  -0.7390  -0.7319  -0.7272
    -0.7150  -0.7122  -0.7051  -0.6964  -0.6795  -0.6761  -0.6677  -0.6642
    -0.6613  -0.5913  -0.5850  -0.5508  -0.5489  -0.5440  -0.5428  -0.5418
    -0.5305  -0.5255  -0.5171  -0.5157  -0.5137  -0.5105  -0.5048  -0.4829
    -0.4726  -0.4672  -0.4576  -0.4528  -0.4481  -0.4426  -0.4416  -0.4369
    -0.4203  -0.4196  -0.4136  -0.4116  -0.4017  -0.3885  -0.3786  -0.3728
    -0.3708  -0.3689  -0.3639  -0.3622  -0.3300  -0.3207  -0.3171  -0.3075
    -0.2960  -0.2896  -0.2765  -0.2601  -0.2481  -0.2433  -0.2316  -0.2295
    -0.2274  -0.2263  -0.2244  -0.2219  -0.2128  -0.2073  -0.1993  -0.1970
    -0.1834  -0.1770  -0.1736  -0.1714  -0.1702  -0.1650  -0.1608  -0.1566
    -0.1541  -0.1439  -0.1369  -0.1298  -0.1277  -0.1229  -0.1193  -0.1106
    -0.0984  -0.0816  -0.0795  -0.0775  -0.0725  -0.0688  -0.0617  -0.0611
    -0.0570  -0.0519  -0.0476  -0.0416  -0.0334  -0.0309  -0.0186  -0.0145
    -0.0066  -0.0040   0.0011   0.0069   0.0099   0.0178   0.0209   0.0237
     0.0334   0.0470   0.0488   0.0570   0.0677   0.0736   0.0782   0.0831
     0.0889   0.0975   0.1009   0.1084   0.1162   0.1199   0.1265   0.1304
     0.1369   0.1382   0.1527   0.1544   0.1635   0.1654   0.1733   0.1788
     0.1853   0.1906   0.1959   0.1979   0.2073   0.2116   0.2152   0.2182
     0.2257   0.2351   0.2536   0.2620   0.2663   0.2703   0.2744   0.2798
     0.2823   0.2847   0.2949   0.3014   0.3119   0.3186   0.3284   0.3490
     0.3578   0.3633   0.3761   0.3802   0.3808   0.4010   0.4263   0.4287
     0.4350   0.4400   0.4535   0.4673   0.4691   0.4718   0.4813   0.4839
     0.4908   0.4941   0.4989   0.5050   0.5084   0.5208   0.5214   0.5261
     0.5336   0.5434   0.5475   0.5506   0.5532   0.5586   0.5624   0.5647
     0.5679   0.5722   0.5798   0.5814   0.5872   0.5895   0.5930   0.5968
     0.5975   0.5978   0.5999   0.6072   0.6095   0.6139   0.6160   0.6210
     0.6279   0.6327   0.6347   0.6426   0.6457   0.6482   0.6522   0.6576
     0.6615   0.6670   0.6692   0.6735   0.6813   0.6898   0.6969   0.7026
     0.7063   0.7091   0.7124   0.7198   0.7230   0.7276   0.7281   0.7366
     0.7434   0.7471   0.7534   0.7538   0.7579   0.7635   0.7676   0.7721
     0.7788   0.7915   0.7961   0.7979   0.7999   0.8075   0.8182   0.8247
     0.8278   0.8328   0.8403   0.8487   0.8564   0.8576   0.8608   0.8631
     0.8759   0.8949   0.9002   0.9026   0.9362   0.9409   0.9464   0.9497
     0.9593   0.9629   0.9668   0.9738   0.9757   0.9828   0.9859   0.9876
     0.9891   0.9930   0.9946   0.9978   0.9996   1.0029   1.0039   1.0102
     1.0179   1.0237   1.0261   1.0275   1.0280   1.0334   1.0347   1.0366
     1.0416   1.0464   1.0471   1.0490   1.0502   1.0536   1.0561   1.0606
     1.0636   1.0696   1.0754   1.0768   1.0823   1.0836   1.0934   1.0954
     1.0962   1.1001   1.1028   1.1058   1.1082   1.1103   1.1162   1.1201
     1.1255   1.1469   1.1505   1.1536   1.1585   1.1686   1.1903   1.1973
     1.1979   1.2105   1.2154   1.2201   1.2276   1.2378   1.2401   1.2444
     1.2450   1.2476   1.2526   1.2559   1.2611   1.2618   1.2642   1.2650
     1.2686   1.2702   1.2742   1.2760   1.2827   1.2836   1.2886   1.2888
     1.2904   1.2946   1.2990   1.3013   1.3056   1.3067   1.3156   1.3237
     1.3260   1.3270   1.3328   1.3371   1.3382   1.3441   1.3483   1.3557
     1.3561   1.3589   1.3640   1.3702   1.3714   1.3746   1.3777   1.3825
     1.3903   1.3948   1.3983   1.4003   1.4019   1.4177   1.4232   1.4272
     1.4296   1.4368   1.4381   1.4419   1.4461   1.4481   1.4527   1.4544
     1.4594   1.4644   1.4665   1.4681   1.4710   1.4908   1.4948   1.4993
     1.5039   1.5064   1.5096   1.5120   1.5132   1.5153   1.5179   1.5214
     1.5286   1.5399   1.5450   1.5470   1.5524   1.5556   1.5562   1.5589
     1.5712   1.5740   1.5758   1.5767   1.5827   1.5923   1.5956   1.6262
     1.6298   1.6323   1.6358   1.6412   1.6450   1.7154   1.7241   1.7286
     1.7934   1.8009   1.8226   1.8299   1.8308   1.8312   1.8459   1.8632
     1.8788   1.8822   1.8867   1.8980   1.9029   1.9306   2.0538   2.0849
     2.3066   2.3235   2.3723   2.4162   2.4201   2.4536   2.4783   2.5444
     2.5656   2.5710   2.5819   2.6016   2.6440   2.6501   2.6561   2.7350
     2.7639   2.7723   2.7824   2.8080   2.9157   2.9866   2.9935   3.1585
     3.1849   3.2311   3.2319   3.2654   3.5815   3.7112   3.7375   3.9110
     3.9814   4.0138   4.0389   4.1449   4.2349   4.2558   4.2787   4.3038
     4.3378   4.3512   4.3668   4.4203   4.4333   4.5152   4.6096   4.6643
     5.0235   5.0844   5.1313   5.1796   5.2704   5.3479   5.3659   5.4117
     5.4255   5.4464   5.5252   5.7009   5.7578   5.8182   5.9254   5.9612
     6.0963   6.1539   6.1793   6.2451   6.2652   6.2818   6.2926   6.4563
     6.5064   6.6146   6.6314   6.7245   6.7826   6.8192   6.8279   6.9742
     7.0224   7.0910   7.1070   7.1210   7.1490   7.1749   7.1950   7.2198
     7.2540   7.3389   7.3606   7.4010   7.4355   7.5424   7.6196   7.6662
     7.7694   7.8910   7.9398   7.9498   8.0310   8.1607   8.1946   8.2343
     8.2466   8.4115   8.4189   8.4262   8.4417   8.4848   8.5178   8.5659
     8.6447   8.6810   8.7009   8.7214   8.7257   8.7630   8.7670   8.7838
     8.8293   8.8531   8.9510   9.0251   9.0830   9.0985   9.1303   9.2107
     9.2430   9.3261   9.3516   9.3696   9.3879   9.4284   9.4334   9.4471
     9.4521   9.4782   9.4883   9.4906   9.5450   9.5501   9.5694   9.7157
     9.8638   9.8658   9.9576   9.9598  10.0047

          k = 0.2500 0.0000 0.0000 (256240 PWs)   bands (ev):

   -20.2633 -16.8891 -15.6564 -15.5368 -15.2678 -14.6909 -14.5847 -14.5055
   -14.4720 -13.7047 -13.5440 -13.3885 -12.8552 -12.7829 -12.6499 -12.6175
   -11.9757 -11.8574 -11.7397 -11.6727 -10.9342 -10.7985 -10.3878 -10.2130
   -10.0734  -9.8306  -9.5656  -9.5451  -9.1008  -8.8350  -8.7417  -8.3860
    -7.6698  -7.4508  -7.4001  -7.2285  -7.1957  -7.0930  -6.8011  -6.6996
    -6.6013  -5.9578  -5.8309  -5.7174  -5.6561  -5.5896  -5.5079  -5.1990
    -5.1947  -5.1299  -4.9928  -4.7520  -4.6313  -4.5713  -4.3891  -4.3034
    -4.2829  -4.2459  -4.2339  -4.1632  -4.0696  -4.0278  -3.9653  -3.8843
    -3.8557  -3.8440  -3.7240  -3.7065  -3.6753  -3.6254  -3.5450  -3.4940
    -3.3808  -3.3446  -3.3294  -3.3083  -3.1650  -3.1251  -3.0826  -3.0793
    -3.0640  -2.9920  -2.9711  -2.9094  -2.8927  -2.8101  -2.7811  -2.6931
    -2.6916  -2.6166  -2.5767  -2.5034  -2.4480  -2.3729  -2.2924  -2.2496
    -2.2233  -2.2115  -2.1846  -2.1378  -2.0827  -1.9992  -1.9940  -1.9829
    -1.9742  -1.9520  -1.8518  -1.8230  -1.7806  -1.7686  -1.7157  -1.7102
    -1.7079  -1.7055  -1.7001  -1.6966  -1.6796  -1.6700  -1.6649  -1.6487
    -1.6273  -1.5973  -1.5504  -1.5411  -1.5385  -1.5242  -1.4923  -1.4854
    -1.4816  -1.4794  -1.4781  -1.4733  -1.4666  -1.4514  -1.4291  -1.4161
    -1.4131  -1.4089  -1.4040  -1.3895  -1.2848  -1.2689  -1.2359  -1.2324
    -1.2220  -1.2015  -1.1667  -1.1626  -1.1535  -1.1500  -1.1460  -1.1430
    -1.1266  -1.1095  -1.1029  -1.1001  -1.0945  -1.0908  -1.0863  -1.0830
    -1.0575  -1.0470  -1.0454  -1.0377  -1.0318  -1.0220  -1.0194  -1.0151
    -0.9943  -0.9871  -0.9649  -0.9530  -0.9439  -0.9398  -0.9363  -0.9293
    -0.9268  -0.9226  -0.9200  -0.9170  -0.9140  -0.9108  -0.9091  -0.9081
    -0.8990  -0.8924  -0.8901  -0.8816  -0.8797  -0.8750  -0.8712  -0.8614
    -0.8435  -0.8168  -0.8119  -0.8085  -0.7719  -0.7655  -0.7269  -0.7252
    -0.7229  -0.7098  -0.7049  -0.6992  -0.6900  -0.6869  -0.6764  -0.6627
    -0.6582  -0.6554  -0.6500  -0.6421  -0.6364  -0.5903  -0.5479  -0.5374
    -0.5271  -0.5226  -0.5023  -0.4938  -0.4876  -0.4813  -0.4748  -0.4674
    -0.4656  -0.4600  -0.4560  -0.4448  -0.4413  -0.4321  -0.4293  -0.4234
    -0.4147  -0.4105  -0.4047  -0.4034  -0.3990  -0.3930  -0.3870  -0.3826
    -0.3757  -0.3577  -0.3412  -0.3392  -0.3259  -0.3226  -0.3154  -0.3050
    -0.3019  -0.2978  -0.2942  -0.2841  -0.2756  -0.2740  -0.2671  -0.2640
    -0.2629  -0.2407  -0.2350  -0.2299  -0.2249  -0.2128  -0.2090  -0.2067
    -0.2036  -0.1992  -0.1890  -0.1830  -0.1781  -0.1715  -0.1687  -0.1640
    -0.1500  -0.1372  -0.1337  -0.1312  -0.1278  -0.1195  -0.1117  -0.1084
    -0.1016  -0.0969  -0.0914  -0.0850  -0.0823  -0.0664  -0.0660  -0.0584
    -0.0493  -0.0427  -0.0370  -0.0277  -0.0200  -0.0131  -0.0048   0.0036
     0.0125   0.0186   0.0332   0.0416   0.0450   0.0526   0.0574   0.0588
     0.0614   0.0658   0.0693   0.0773   0.0855   0.0884   0.0921   0.0945
     0.0975   0.1007   0.1012   0.1060   0.1140   0.1175   0.1250   0.1281
     0.1365   0.1436   0.1461   0.1571   0.1650   0.1701   0.1752   0.1827
     0.1925   0.1969   0.2010   0.2098   0.2129   0.2151   0.2247   0.2278
     0.2344   0.2484   0.2551   0.2781   0.2934   0.3069   0.3150   0.3189
     0.3285   0.3383   0.3399   0.3487   0.3497   0.3571   0.3600   0.3661
     0.3680   0.3707   0.3739   0.3782   0.3811   0.3922   0.3961   0.3985
     0.4016   0.4041   0.4123   0.4192   0.4244   0.4301   0.4370   0.4393
     0.4465   0.4522   0.4630   0.4719   0.4783   0.4904   0.4948   0.4987
     0.5081   0.5121   0.5156   0.5208   0.5296   0.5329   0.5409   0.5442
     0.5474   0.5533   0.5571   0.5663   0.5695   0.5747   0.5772   0.5800
     0.5824   0.5836   0.5903   0.5954   0.6029   0.6101   0.6172   0.6227
     0.6255   0.6299   0.6323   0.6382   0.6460   0.6473   0.6535   0.6573
     0.6609   0.6624   0.6721   0.6752   0.6783   0.6858   0.6907   0.6989
     0.7014   0.7061   0.7095   0.7126   0.7131   0.7183   0.7265   0.7282
     0.7351   0.7372   0.7497   0.7597   0.7706   0.7771   0.7840   0.7943
     0.7999   0.8105   0.8125   0.8159   0.8228   0.8281   0.8303   0.8330
     0.8382   0.8410   0.8500   0.8534   0.8576   0.8645   0.8812   0.8886
     0.8927   0.9009   0.9061   0.9123   0.9169   0.9195   0.9246   0.9284
     0.9307   0.9417   0.9464   0.9497   0.9538   0.9564   0.9572   0.9656
     0.9715   0.9734   0.9781   0.9816   0.9848   0.9878   0.9939   1.0037
     1.0079   1.0202   1.0288   1.0335   1.0381   1.0446   1.0525   1.0541
     1.0602   1.0694   1.0729   1.0749   1.0783   1.0811   1.0824   1.0840
     1.0868   1.0890   1.0953   1.0985   1.1013   1.1042   1.1093   1.1125
     1.1158   1.1230   1.1250   1.1281   1.1314   1.1358   1.1374   1.1400
     1.1452   1.1500   1.1556   1.1597   1.1643   1.1675   1.1731   1.1762
     1.1796   1.1826   1.1847   1.1877   1.1885   1.1918   1.1940   1.1955
     1.2024   1.2061   1.2130   1.2232   1.2277   1.2363   1.2500   1.2521
     1.2548   1.2561   1.2606   1.2694   1.2748   1.2819   1.2880   1.2943
     1.3028   1.3073   1.3141   1.3167   1.3185   1.3228   1.3236   1.3298
     1.3361   1.3369   1.3415   1.3433   1.3462   1.3550   1.3566   1.3609
     1.3633   1.3640   1.3686   1.3706   1.3735   1.3746   1.3777   1.3811
     1.3839   1.3914   1.3930   1.3947   1.4041   1.4082   1.4108   1.4166
     1.4177   1.4239   1.4315   1.4343   1.4402   1.4456   1.4549   1.4668
     1.4682   1.4707   1.4775   1.4814   1.4851   1.4856   1.4880   1.4921
     1.4950   1.4978   1.4993   1.5004   1.5048   1.5061   1.5109   1.5139
     1.5163   1.5197   1.5211   1.5231   1.5321   1.5360   1.5390   1.5440
     1.5450   1.5471   1.5531   1.5568   1.5623   1.5652   1.5681   1.5712
     1.5833   1.5894   1.5926   1.6075   1.6233   1.6300   1.6391   1.6719
     1.6823   1.6838   1.6944   1.6962   1.7155   1.7200   1.7800   1.8020
     1.8232   1.8331   1.8554   1.8980   1.9123   2.0738   2.0894   2.0950
     2.1003   2.1160   2.1500   2.1622   2.2197   2.2306   2.2673   2.4579
     2.6011   2.6047   2.6143   2.6932   3.0015   3.0451   3.0470   3.2221
     3.2420   3.2545   3.2773   3.2856   3.2875   3.3895   3.4702   3.5232
     3.5849   3.6116   3.6784   3.7278   3.7332   3.7416   3.7666   3.8343
     3.8604   3.8757   3.9472   3.9573   3.9949   4.0638   4.3158   4.3548
     4.3718   4.3807   4.6414   4.6837   4.7938   4.8503   4.8733   4.9126
     4.9977   5.1106   5.1722   5.2766   5.3037   5.3349   5.3660   5.4393
     5.4682   5.4898   5.5208   5.5359   5.5741   5.6264   5.6654   5.6932
     5.7104   5.7574   5.8608   5.9603   6.0195   6.0539   6.0792   6.0933
     6.1383   6.3337   6.4117   6.6771   6.7122   6.7499   6.7738   6.8169
     6.8411   6.8837   6.9734   6.9972   7.0584   7.0776   7.0963   7.1149
     7.1261   7.1597   7.1807   7.2044   7.2756   7.3352   7.4044   7.5172
     7.5798   7.6121   7.6701   7.7200   7.7419   7.7974   7.9032   8.0145
     8.0681   8.1163   8.1325   8.2087   8.2242   8.2498   8.2617   8.2908
     8.3233   8.3508   8.4216   8.4546   8.4838   8.5112   8.6330   8.6941
     8.9088   9.0130   9.0162   9.0256   9.0377   9.0608   9.1124   9.1351
     9.1797   9.1962   9.2481   9.2683   9.2992   9.3136   9.3912   9.4491
     9.5027   9.5263   9.5538   9.5575   9.6509   9.6656   9.6817   9.7479
     9.8004   9.8481   9.8741   9.8887   9.9338

          k = 0.2500-0.2165 0.0000 (256316 PWs)   bands (ev):

   -20.2633 -16.8889 -15.7097 -15.4634 -15.1146 -15.0515 -14.7196 -14.2806
   -14.1375 -13.8579 -13.7206 -13.3486 -12.8593 -12.7982 -12.7646 -12.3328
   -12.2342 -11.8370 -11.6615 -11.1359 -11.0400 -10.9507 -10.7597 -10.5819
   -10.1475  -9.4662  -9.4102  -9.0810  -9.0017  -8.7400  -8.6965  -8.3486
    -8.2397  -8.0857  -8.0376  -6.9447  -6.8031  -6.7020  -6.4996  -6.3005
    -6.2359  -6.1309  -5.9741  -5.9390  -5.7993  -5.7610  -5.5947  -5.5769
    -5.0726  -4.8836  -4.7393  -4.7192  -4.6315  -4.6139  -4.5636  -4.5405
    -4.4563  -4.2832  -4.2579  -4.2309  -4.1459  -4.1074  -4.0634  -3.8949
    -3.8301  -3.7810  -3.6882  -3.6172  -3.5196  -3.4532  -3.4431  -3.3816
    -3.3418  -3.3342  -3.2470  -3.2348  -3.2058  -3.1717  -3.0649  -3.0413
    -2.9655  -2.9486  -2.9006  -2.8139  -2.8035  -2.7946  -2.7846  -2.7634
    -2.6803  -2.6480  -2.6098  -2.5918  -2.5328  -2.4522  -2.3911  -2.2157
    -2.2016  -2.1615  -2.1148  -2.1025  -2.0721  -2.0707  -2.0592  -2.0425
    -1.9835  -1.9239  -1.9137  -1.9100  -1.8773  -1.8028  -1.7619  -1.7562
    -1.7183  -1.7149  -1.7098  -1.6572  -1.6322  -1.6224  -1.6189  -1.6118
    -1.6071  -1.6002  -1.5918  -1.5888  -1.5825  -1.5759  -1.5735  -1.5684
    -1.5538  -1.5443  -1.5265  -1.4962  -1.4764  -1.4672  -1.3990  -1.3751
    -1.3699  -1.3084  -1.2969  -1.2439  -1.2379  -1.2072  -1.1988  -1.1938
    -1.1872  -1.1759  -1.1732  -1.1709  -1.1634  -1.1616  -1.1590  -1.1556
    -1.1536  -1.1388  -1.1315  -1.1259  -1.1168  -1.1115  -1.1100  -1.1003
    -1.0931  -1.0800  -1.0740  -1.0501  -1.0479  -1.0449  -1.0366  -1.0217
    -1.0204  -1.0185  -1.0120  -0.9907  -0.9689  -0.9577  -0.9511  -0.9396
    -0.9334  -0.9256  -0.9146  -0.9084  -0.9043  -0.8940  -0.8829  -0.8811
    -0.8778  -0.8739  -0.8702  -0.8651  -0.8582  -0.8560  -0.8447  -0.8317
    -0.8303  -0.8156  -0.7951  -0.7763  -0.7721  -0.7541  -0.7228  -0.7112
    -0.7043  -0.7004  -0.6827  -0.6735  -0.6652  -0.6472  -0.6368  -0.6300
    -0.6253  -0.6217  -0.6201  -0.6122  -0.6082  -0.5989  -0.5682  -0.5625
    -0.5402  -0.5296  -0.5269  -0.5190  -0.5048  -0.4961  -0.4876  -0.4827
    -0.4791  -0.4744  -0.4680  -0.4599  -0.4556  -0.4347  -0.4267  -0.4176
    -0.4150  -0.4104  -0.4056  -0.3986  -0.3897  -0.3831  -0.3630  -0.3600
    -0.3502  -0.3434  -0.3357  -0.3342  -0.3313  -0.3186  -0.3154  -0.3107
    -0.3029  -0.3008  -0.2966  -0.2902  -0.2862  -0.2832  -0.2786  -0.2715
    -0.2659  -0.2566  -0.2510  -0.2444  -0.2372  -0.2316  -0.2170  -0.2118
    -0.2067  -0.1993  -0.1918  -0.1823  -0.1770  -0.1689  -0.1651  -0.1608
    -0.1579  -0.1501  -0.1447  -0.1406  -0.1328  -0.1249  -0.1092  -0.1029
    -0.0954  -0.0929  -0.0619  -0.0562  -0.0497  -0.0394  -0.0321  -0.0279
    -0.0263  -0.0234  -0.0208  -0.0106  -0.0068   0.0014   0.0077   0.0105
     0.0186   0.0258   0.0286   0.0351   0.0439   0.0477   0.0525   0.0579
     0.0629   0.0673   0.0698   0.0717   0.0739   0.0767   0.0787   0.0864
     0.0900   0.0936   0.0978   0.0995   0.1030   0.1074   0.1095   0.1218
     0.1330   0.1414   0.1489   0.1528   0.1551   0.1605   0.1751   0.1807
     0.1952   0.1993   0.2097   0.2148   0.2169   0.2250   0.2301   0.2320
     0.2375   0.2394   0.2438   0.2488   0.2571   0.2616   0.2678   0.2898
     0.3058   0.3112   0.3181   0.3309   0.3421   0.3462   0.3517   0.3545
     0.3627   0.3669   0.3736   0.3816   0.3840   0.3888   0.3936   0.3983
     0.4051   0.4103   0.4113   0.4172   0.4225   0.4271   0.4347   0.4412
     0.4430   0.4505   0.4533   0.4590   0.4674   0.4751   0.4873   0.4917
     0.4961   0.4967   0.5118   0.5134   0.5264   0.5319   0.5376   0.5444
     0.5499   0.5575   0.5604   0.5654   0.5687   0.5734   0.5771   0.5792
     0.5930   0.5953   0.6005   0.6079   0.6259   0.6316   0.6410   0.6459
     0.6534   0.6569   0.6588   0.6636   0.6677   0.6737   0.6818   0.6835
     0.6872   0.6903   0.6934   0.6964   0.7044   0.7110   0.7148   0.7224
     0.7260   0.7298   0.7317   0.7375   0.7397   0.7420   0.7445   0.7471
     0.7526   0.7550   0.7605   0.7636   0.7663   0.7713   0.7750   0.7778
     0.7800   0.7823   0.7893   0.7935   0.7990   0.8054   0.8182   0.8251
     0.8277   0.8320   0.8358   0.8450   0.8599   0.8651   0.8744   0.8810
     0.8844   0.8884   0.8966   0.8985   0.9033   0.9112   0.9132   0.9153
     0.9166   0.9223   0.9235   0.9262   0.9296   0.9330   0.9391   0.9457
     0.9557   0.9611   0.9670   0.9726   0.9782   0.9834   0.9865   0.9909
     0.9922   0.9962   0.9998   1.0064   1.0122   1.0184   1.0282   1.0317
     1.0348   1.0401   1.0441   1.0587   1.0623   1.0664   1.0712   1.0837
     1.0912   1.1014   1.1068   1.1115   1.1203   1.1284   1.1345   1.1429
     1.1459   1.1505   1.1534   1.1561   1.1603   1.1622   1.1653   1.1670
     1.1691   1.1707   1.1739   1.1766   1.1789   1.1823   1.1888   1.1935
     1.1991   1.2054   1.2118   1.2147   1.2189   1.2233   1.2250   1.2272
     1.2328   1.2360   1.2425   1.2432   1.2471   1.2490   1.2537   1.2551
     1.2589   1.2632   1.2660   1.2711   1.2725   1.2770   1.2794   1.2817
     1.2864   1.2875   1.2910   1.2929   1.2961   1.3003   1.3096   1.3145
     1.3259   1.3288   1.3311   1.3335   1.3359   1.3424   1.3453   1.3500
     1.3524   1.3653   1.3675   1.3749   1.3776   1.3806   1.3869   1.3919
     1.3949   1.3983   1.4021   1.4063   1.4086   1.4128   1.4187   1.4248
     1.4324   1.4334   1.4350   1.4389   1.4414   1.4452   1.4485   1.4519
     1.4566   1.4624   1.4676   1.4688   1.4738   1.4765   1.4816   1.4824
     1.4829   1.4889   1.4930   1.4958   1.4969   1.4991   1.5038   1.5089
     1.5138   1.5169   1.5191   1.5229   1.5238   1.5293   1.5394   1.5419
     1.5430   1.5479   1.5546   1.5671   1.5685   1.5707   1.5749   1.5806
     1.5830   1.5929   1.6056   1.6095   1.6132   1.6259   1.6434   1.6464
     1.6980   1.7128   1.7264   1.7565   1.7766   1.7861   1.7939   1.8043
     1.8074   1.8135   1.8213   1.8273   1.8332   1.8502   1.8765   2.1205
     2.1497   2.1874   2.1922   2.2116   2.2415   2.3152   2.3913   2.6439
     2.6502   2.7655   2.7896   2.8061   2.8146   2.8370   2.8522   2.8610
     2.9331   3.0195   3.0343   3.0407   3.1680   3.4871   3.5164   3.5258
     3.5601   3.5918   3.7887   3.8530   3.8844   3.8975   3.9502   4.0004
     4.0346   4.0717   4.1460   4.1627   4.2156   4.2269   4.3955   4.4138
     4.4725   4.5424   4.6361   4.6731   4.6862   4.7340   4.7612   4.8247
     4.8455   4.9510   5.0020   5.0607   5.1172   5.1316   5.1883   5.2116
     5.3620   5.3912   5.4069   5.4448   5.4953   5.5524   5.6750   5.7284
     5.8124   5.8341   5.8601   5.8998   6.0978   6.1341   6.2042   6.2314
     6.3529   6.4741   6.5243   6.6427   6.6912   6.7349   6.7642   6.8150
     6.8610   6.8970   6.9662   6.9986   7.0272   7.1353   7.1892   7.2172
     7.2492   7.3006   7.3152   7.3374   7.3706   7.4120   7.4477   7.4760
     7.5036   7.5547   7.6513   7.7260   7.7585   7.7832   7.8092   7.8564
     7.9245   7.9936   8.1444   8.2127   8.2567   8.3098   8.4126   8.4556
     8.5531   8.5680   8.5817   8.6078   8.6138   8.6587   8.6771   8.7258
     8.7501   8.8232   8.8386   8.8665   8.8935   8.9334   8.9791   9.0761
     9.1046   9.1636   9.1868   9.2252   9.2384   9.2513   9.2967   9.3104
     9.3265   9.3611   9.3898   9.4466   9.4538   9.5093   9.5198   9.5941
     9.6496   9.6544   9.8202   9.9377   9.9454

          k =-0.5000 0.0000 0.0000 (256496 PWs)   bands (ev):

   -20.2633 -16.8307 -15.6123 -15.2608 -15.1999 -15.1486 -15.1272 -14.3891
   -14.2052 -14.1008 -14.0698 -12.8405 -12.5374 -12.3997 -12.3313 -12.0905
   -12.0557 -11.4429 -11.4328 -11.3636 -11.3562 -10.8068 -10.7765 -10.6976
   -10.4852  -9.9366  -9.9297  -9.6833  -9.3461  -8.7821  -8.7804  -8.6065
    -8.5792  -7.5101  -7.3251  -7.2891  -7.1358  -7.0603  -7.0406  -6.7839
    -5.9428  -5.8847  -5.4621  -5.2000  -5.1901  -4.9299  -4.8209  -4.7206
    -4.6931  -4.6929  -4.6858  -4.5408  -4.5167  -4.5138  -4.4354  -4.3665
    -4.3491  -4.3357  -4.3008  -4.2821  -4.2086  -4.2037  -4.1763  -4.0703
    -4.0664  -4.0130  -3.9876  -3.7631  -3.6969  -3.6741  -3.6243  -3.5159
    -3.4716  -3.3644  -3.3099  -3.3093  -3.3013  -3.2867  -3.2610  -3.2371
    -3.1577  -3.1135  -3.0864  -3.0763  -3.0496  -3.0419  -2.8514  -2.5837
    -2.5814  -2.5691  -2.5646  -2.5480  -2.5417  -2.5323  -2.5123  -2.4932
    -2.4485  -2.2842  -2.2713  -2.2630  -2.1844  -2.1322  -1.9507  -1.9262
    -1.8861  -1.7878  -1.7850  -1.7817  -1.7787  -1.7783  -1.7696  -1.7037
    -1.6942  -1.6806  -1.6671  -1.5671  -1.5604  -1.5591  -1.5566  -1.5539
    -1.5380  -1.5140  -1.5115  -1.5009  -1.4935  -1.4508  -1.4318  -1.4157
    -1.4127  -1.3925  -1.3374  -1.3340  -1.3305  -1.3255  -1.3196  -1.3143
    -1.2884  -1.2808  -1.2717  -1.2612  -1.2605  -1.2581  -1.2555  -1.2484
    -1.2429  -1.2347  -1.2302  -1.2172  -1.2142  -1.2074  -1.1888  -1.1786
    -1.1769  -1.1758  -1.1738  -1.1661  -1.1365  -1.1235  -1.1218  -1.1168
    -1.0979  -1.0965  -1.0934  -1.0867  -1.0825  -1.0787  -1.0633  -1.0563
    -1.0443  -1.0357  -1.0243  -1.0223  -1.0173  -1.0086  -1.0067  -0.9889
    -0.9860  -0.9743  -0.9686  -0.9313  -0.9193  -0.9030  -0.8951  -0.8903
    -0.8874  -0.8778  -0.8750  -0.8715  -0.8635  -0.8429  -0.8409  -0.8390
    -0.8362  -0.8341  -0.8305  -0.8277  -0.8236  -0.8179  -0.8102  -0.7651
    -0.7559  -0.7472  -0.7447  -0.7432  -0.7149  -0.7095  -0.7019  -0.6389
    -0.6253  -0.6215  -0.6198  -0.6105  -0.5978  -0.5935  -0.5913  -0.5857
    -0.5813  -0.5776  -0.5593  -0.5474  -0.5371  -0.5341  -0.5333  -0.5236
    -0.5218  -0.5204  -0.5174  -0.5173  -0.5013  -0.4992  -0.4885  -0.4807
    -0.4246  -0.4014  -0.3873  -0.3780  -0.3633  -0.3593  -0.3506  -0.3474
    -0.3378  -0.3334  -0.3283  -0.3275  -0.3243  -0.3209  -0.3024  -0.3007
    -0.2958  -0.2924  -0.2821  -0.2637  -0.2596  -0.2564  -0.2507  -0.2459
    -0.2306  -0.2295  -0.2275  -0.2215  -0.2196  -0.2172  -0.2113  -0.2102
    -0.2068  -0.1992  -0.1761  -0.1716  -0.1619  -0.1600  -0.1498  -0.1301
    -0.1271  -0.1239  -0.1158  -0.0817  -0.0753  -0.0707  -0.0701  -0.0630
    -0.0603  -0.0587  -0.0528  -0.0370  -0.0314  -0.0300  -0.0234  -0.0113
    -0.0030   0.0087   0.0125   0.0207   0.0240   0.0331   0.0366   0.0400
     0.0446   0.0479   0.0494   0.0545   0.0568   0.0588   0.0617   0.0685
     0.0914   0.1128   0.1170   0.1303   0.1377   0.1407   0.1433   0.1462
     0.1484   0.1512   0.1527   0.1586   0.1589   0.1613   0.1640   0.1651
     0.1676   0.1709   0.1730   0.1774   0.1818   0.1851   0.1894   0.1906
     0.1923   0.1975   0.1984   0.2034   0.2051   0.2083   0.2160   0.2195
     0.2205   0.2272   0.2327   0.2358   0.2478   0.2586   0.2669   0.2720
     0.2797   0.2948   0.3254   0.3343   0.3396   0.3559   0.3630   0.3691
     0.3776   0.3895   0.3947   0.4028   0.4060   0.4108   0.4116   0.4205
     0.4239   0.4293   0.4303   0.4365   0.4394   0.4443   0.4500   0.4518
     0.4552   0.4590   0.4633   0.4656   0.4682   0.4718   0.4758   0.4765
     0.4795   0.4842   0.4891   0.4927   0.5074   0.5410   0.5460   0.5628
     0.5679   0.5722   0.5809   0.5814   0.5859   0.5906   0.5945   0.5976
     0.6029   0.6036   0.6075   0.6083   0.6123   0.6164   0.6180   0.6199
     0.6222   0.6246   0.6321   0.6325   0.6360   0.6391   0.6396   0.6515
     0.6549   0.6597   0.6725   0.6857   0.6874   0.6960   0.7013   0.7030
     0.7038   0.7072   0.7121   0.7132   0.7167   0.7178   0.7217   0.7231
     0.7272   0.7294   0.7303   0.7351   0.7415   0.7473   0.7588   0.7698
     0.7768   0.7822   0.7867   0.7931   0.7963   0.8004   0.8031   0.8042
     0.8170   0.8222   0.8316   0.8346   0.8450   0.8508   0.8548   0.8676
     0.8718   0.8801   0.8834   0.8917   0.8956   0.8967   0.8988   0.9001
     0.9011   0.9049   0.9161   0.9199   0.9226   0.9279   0.9330   0.9379
     0.9411   0.9436   0.9481   0.9498   0.9578   0.9605   0.9642   0.9665
     0.9747   0.9771   0.9825   0.9861   0.9885   0.9961   0.9988   1.0057
     1.0148   1.0347   1.0602   1.0701   1.0758   1.0780   1.0837   1.0865
     1.0903   1.0922   1.0997   1.1049   1.1093   1.1209   1.1288   1.1398
     1.1431   1.1453   1.1507   1.1514   1.1579   1.1601   1.1655   1.1725
     1.1744   1.1778   1.1795   1.1817   1.1875   1.1896   1.1914   1.1961
     1.1978   1.1999   1.2010   1.2048   1.2086   1.2105   1.2148   1.2185
     1.2197   1.2223   1.2254   1.2358   1.2369   1.2400   1.2415   1.2509
     1.2651   1.2674   1.2736   1.2760   1.2835   1.2887   1.2934   1.2948
     1.2961   1.3006   1.3013   1.3033   1.3053   1.3070   1.3073   1.3097
     1.3112   1.3152   1.3171   1.3480   1.3524   1.3554   1.3582   1.3621
     1.3628   1.3644   1.3671   1.3697   1.3713   1.3733   1.3739   1.3766
     1.3837   1.3869   1.3907   1.3926   1.3946   1.3966   1.3994   1.4009
     1.4021   1.4062   1.4075   1.4099   1.4158   1.4172   1.4195   1.4211
     1.4228   1.4252   1.4285   1.4375   1.4524   1.4560   1.4673   1.4681
     1.4715   1.4775   1.4783   1.4816   1.4841   1.4882   1.4930   1.4938
     1.4949   1.4993   1.5009   1.5035   1.5079   1.5119   1.5172   1.5225
     1.5255   1.5266   1.5280   1.5408   1.5452   1.5467   1.5496   1.5543
     1.5609   1.5660   1.5696   1.5710   1.5750   1.5752   1.5805   1.5856
     1.6072   1.6123   1.6289   1.6349   1.6370   1.6571   1.6609   1.6659
     1.6706   1.6809   1.7618   2.0442   2.0483   2.0609   2.1067   2.2314
     2.2648   2.2988   2.3309   2.3499   2.3515   2.3585   2.3769   2.5682
     2.5772   2.6027   2.8077   2.8703   2.8796   2.8875   3.0192   3.2409
     3.2548   3.2576   3.2688   3.4808   3.5225   3.6549   3.6991   3.7384
     3.7879   3.8794   3.8904   3.9521   3.9608   4.0389   4.0677   4.1177
     4.1255   4.1433   4.1917   4.2391   4.5506   4.5941   4.6128   4.7271
     4.7621   4.7789   4.8413   4.8748   4.8925   4.9302   4.9509   4.9724
     4.9781   5.0728   5.0787   5.0853   5.0993   5.1139   5.1232   5.1283
     5.1508   5.3064   5.3691   5.4171   5.4437   5.4742   5.4815   5.5265
     5.5724   5.6184   5.6398   5.7841   5.8479   5.9482   5.9782   6.0147
     6.0296   6.0444   6.0537   6.1090   6.1594   6.2234   6.2432   6.3014
     6.4086   6.4469   6.5620   6.6507   6.7001   6.7427   6.7664   7.0585
     7.0812   7.0969   7.1584   7.1924   7.3104   7.5601   7.5671   7.6113
     7.6221   7.6427   7.6473   7.6753   7.7269   7.8168   7.8462   7.9032
     7.9188   7.9458   7.9644   7.9784   7.9914   8.0339   8.0606   8.0774
     8.0806   8.2009   8.2157   8.3200   8.6826   8.7114   8.7219   8.7464
     8.7879   8.8142   8.8462   8.8624   8.8792   9.0002   9.0156   9.0216
     9.0266   9.0992   9.1638   9.2220   9.3189   9.3551   9.4346   9.4474
     9.4846   9.4977   9.5038   9.5152   9.5164   9.5200   9.5325   9.5881
     9.5905   9.6137   9.7620   9.8226   9.9058

          k =-0.5000-0.2165 0.0000 (256328 PWs)   bands (ev):

   -20.2633 -16.8306 -15.5942 -15.3535 -15.3245 -14.9481 -14.7883 -14.7207
   -14.6870 -13.6612 -13.4453 -13.3165 -13.2801 -12.3220 -12.0814 -11.6256
   -11.5371 -11.5086 -11.3866 -11.3523 -11.2311 -11.1316 -11.1284 -10.9671
   -10.9543  -9.6970  -9.6634  -9.3554  -9.3157  -8.9249  -8.5378  -8.4746
    -8.3971  -7.9593  -7.9268  -7.6640  -7.6464  -6.7890  -6.2576  -5.9923
    -5.8366  -5.6567  -5.5338  -5.3334  -5.0830  -5.0716  -5.0639  -5.0597
    -5.0554  -4.9384  -4.9306  -4.8255  -4.5460  -4.5273  -4.5215  -4.3979
    -4.1664  -4.0948  -4.0869  -4.0847  -4.0720  -4.0560  -4.0442  -3.9982
    -3.9677  -3.9221  -3.8493  -3.8096  -3.7573  -3.7448  -3.6613  -3.5926
    -3.5620  -3.4279  -3.4141  -3.4018  -3.3494  -3.2824  -3.2630  -3.2578
    -3.2479  -3.1591  -3.1443  -3.1148  -3.0565  -2.7380  -2.6619  -2.6414
    -2.5629  -2.4992  -2.4923  -2.4788  -2.4733  -2.4720  -2.4670  -2.4443
    -2.3733  -2.3475  -2.2865  -2.1454  -2.0820  -1.9837  -1.9831  -1.9813
    -1.9775  -1.9752  -1.9664  -1.9477  -1.8845  -1.8236  -1.7850  -1.7339
    -1.7204  -1.7046  -1.7040  -1.6880  -1.6490  -1.5161  -1.5076  -1.5039
    -1.4899  -1.4292  -1.4164  -1.4080  -1.4056  -1.4006  -1.3993  -1.3947
    -1.3697  -1.3543  -1.3497  -1.3487  -1.3357  -1.3149  -1.3049  -1.2995
    -1.2892  -1.2891  -1.2871  -1.2840  -1.2833  -1.2776  -1.2738  -1.2674
    -1.2634  -1.2603  -1.2201  -1.2173  -1.2069  -1.2049  -1.1882  -1.1791
    -1.1776  -1.1370  -1.1184  -1.1137  -1.1069  -1.1056  -1.0954  -1.0938
    -1.0905  -1.0785  -1.0679  -1.0638  -1.0619  -1.0558  -1.0548  -1.0457
    -1.0393  -1.0377  -1.0287  -1.0265  -1.0182  -1.0169  -0.9991  -0.9912
    -0.9832  -0.9820  -0.9754  -0.9720  -0.9657  -0.9618  -0.9534  -0.9514
    -0.9490  -0.9442  -0.9417  -0.9358  -0.9316  -0.9286  -0.8255  -0.8176
    -0.8130  -0.7865  -0.7806  -0.7777  -0.7642  -0.7642  -0.7639  -0.7222
    -0.7181  -0.7135  -0.7022  -0.6962  -0.6915  -0.6866  -0.6827  -0.6776
    -0.6756  -0.6694  -0.6692  -0.6662  -0.6642  -0.6227  -0.6212  -0.6147
    -0.6115  -0.6104  -0.6009  -0.5988  -0.5924  -0.5901  -0.5850  -0.5638
    -0.5562  -0.5229  -0.4944  -0.4786  -0.4706  -0.4670  -0.4612  -0.4566
    -0.4513  -0.4424  -0.4274  -0.4126  -0.4090  -0.3882  -0.3742  -0.3713
    -0.3668  -0.3615  -0.3549  -0.3450  -0.3406  -0.3345  -0.3272  -0.3184
    -0.3138  -0.3076  -0.3016  -0.2992  -0.2917  -0.2718  -0.2442  -0.2311
    -0.2257  -0.2241  -0.2049  -0.2001  -0.1873  -0.1793  -0.1765  -0.1739
    -0.1705  -0.1671  -0.1656  -0.1609  -0.1514  -0.1406  -0.1355  -0.1094
    -0.0975  -0.0956  -0.0933  -0.0849  -0.0817  -0.0771  -0.0751  -0.0739
    -0.0703  -0.0686  -0.0601  -0.0514  -0.0504  -0.0479  -0.0430  -0.0383
    -0.0313  -0.0304  -0.0257  -0.0204  -0.0151  -0.0057   0.0018   0.0123
     0.0370   0.0415   0.0499   0.0554   0.0633   0.0944   0.1000   0.1106
     0.1177   0.1227   0.1269   0.1300   0.1318   0.1328   0.1378   0.1460
     0.1507   0.1550   0.1582   0.1616   0.1661   0.1668   0.1728   0.1766
     0.1818   0.1853   0.1876   0.1885   0.1910   0.1917   0.1936   0.1960
     0.1993   0.2025   0.2068   0.2118   0.2202   0.2267   0.2348   0.2395
     0.2454   0.2501   0.2591   0.2656   0.2714   0.2802   0.2868   0.2906
     0.2973   0.3052   0.3130   0.3215   0.3248   0.3305   0.3330   0.3652
     0.3774   0.3918   0.3938   0.4010   0.4049   0.4198   0.4287   0.4319
     0.4343   0.4415   0.4461   0.4525   0.4568   0.4622   0.4635   0.4681
     0.4720   0.4757   0.4770   0.4848   0.4875   0.4996   0.5087   0.5139
     0.5197   0.5270   0.5290   0.5360   0.5361   0.5385   0.5406   0.5423
     0.5477   0.5525   0.5563   0.5610   0.5670   0.5702   0.5769   0.5798
     0.5864   0.5970   0.6058   0.6090   0.6179   0.6207   0.6228   0.6266
     0.6313   0.6347   0.6396   0.6452   0.6478   0.6482   0.6529   0.6571
     0.6597   0.6691   0.6751   0.6763   0.6792   0.6842   0.6858   0.6884
     0.6916   0.6987   0.7024   0.7097   0.7174   0.7261   0.7363   0.7444
     0.7455   0.7492   0.7506   0.7580   0.7634   0.7650   0.7693   0.7743
     0.7758   0.7827   0.7877   0.7941   0.7944   0.7987   0.8036   0.8049
     0.8077   0.8096   0.8154   0.8232   0.8290   0.8316   0.8459   0.8476
     0.8518   0.8738   0.8759   0.8791   0.8822   0.8824   0.8937   0.9112
     0.9150   0.9198   0.9234   0.9336   0.9348   0.9371   0.9388   0.9475
     0.9650   0.9833   0.9884   0.9952   0.9994   1.0045   1.0096   1.0163
     1.0219   1.0327   1.0360   1.0377   1.0447   1.0507   1.0546   1.0609
     1.0618   1.0684   1.0745   1.0788   1.0854   1.0914   1.0952   1.0981
     1.1025   1.1036   1.1050   1.1061   1.1070   1.1071   1.1108   1.1118
     1.1133   1.1176   1.1188   1.1201   1.1257   1.1283   1.1311   1.1373
     1.1429   1.1481   1.1502   1.1550   1.1571   1.1644   1.1670   1.1701
     1.1769   1.1776   1.1811   1.1845   1.1855   1.1884   1.1943   1.2000
     1.2027   1.2036   1.2116   1.2147   1.2199   1.2269   1.2480   1.2544
     1.2573   1.2601   1.2628   1.2641   1.2659   1.2684   1.2709   1.2753
     1.2810   1.2840   1.2853   1.2883   1.2914   1.2923   1.2930   1.2952
     1.3262   1.3322   1.3374   1.3381   1.3434   1.3452   1.3467   1.3477
     1.3490   1.3519   1.3526   1.3540   1.3726   1.3801   1.3898   1.3934
     1.3964   1.4043   1.4065   1.4129   1.4134   1.4149   1.4187   1.4202
     1.4218   1.4222   1.4232   1.4255   1.4263   1.4290   1.4320   1.4329
     1.4353   1.4381   1.4408   1.4473   1.4520   1.4546   1.4554   1.4571
     1.4593   1.4631   1.4637   1.4650   1.4700   1.4722   1.4770   1.4832
     1.4917   1.4990   1.5019   1.5027   1.5061   1.5104   1.5205   1.5243
     1.5261   1.5375   1.5381   1.5450   1.5613   1.5620   1.5634   1.5672
     1.5742   1.5883   1.5934   1.5944   1.5951   1.6216   1.6316   1.6336
     1.6380   1.6394   1.6433   1.6449   1.6537   1.6605   1.6643   1.6719
     1.6777   1.6829   1.6844   1.6876   1.8051   1.8836   1.8863   1.8902
     1.9797   2.2971   2.3022   2.3370   2.5051   2.6163   2.6224   2.6355
     2.6463   2.7932   2.8068   2.8165   2.8622   3.0404   3.0456   3.0847
     3.3261   3.5063   3.5191   3.5256   3.5364   3.6313   3.6703   3.6770
     3.7204   3.9809   3.9977   4.0036   4.0069   4.1419   4.1547   4.1904
     4.2100   4.2270   4.2665   4.2915   4.2968   4.3848   4.4771   4.4911
     4.5560   4.6326   4.6743   4.6913   4.7332   4.7507   4.9398   4.9878
     5.0297   5.0965   5.1669   5.1774   5.1894   5.2000   5.2194   5.2358
     5.2466   5.2602   5.3101   5.3201   5.3410   5.4124   5.4596   5.4946
     5.5587   5.6388   5.6411   5.7005   5.7603   5.7651   5.7769   5.7992
     5.8141   5.8247   5.9744   6.0771   6.1349   6.2529   6.3881   6.7572
     6.7834   6.9789   6.9995   7.0549   7.0602   7.0787   7.0883   7.1005
     7.1330   7.1513   7.1732   7.1772   7.2175   7.2946   7.3293   7.3977
     7.4154   7.4380   7.4641   7.4898   7.5093   7.6238   7.7542   7.8413
     7.9183   7.9364   8.0732   8.1042   8.1658   8.1821   8.2135   8.2471
     8.2664   8.3064   8.3584   8.3855   8.4052   8.4739   8.6986   8.8641
     8.8866   8.9044   8.9209   8.9424   8.9693   8.9786   8.9865   9.0108
     9.0293   9.1155   9.1188   9.1383   9.1639   9.1729   9.2420   9.3422
     9.3547   9.3608   9.3863   9.4220   9.4239   9.4344   9.4451   9.4892
     9.5041   9.6547   9.8366   9.8793   9.9761

     the Fermi energy is     3.3813 ev

!    total energy              =  -12750.19853179 Ry
     Harris-Foulkes estimate   =  -12750.19853185 Ry
     estimated scf accuracy    <          5.0E-09 Ry

     The total energy is the sum of the following terms:

     one-electron contribution = -100117.73918466 Ry
     hartree contribution      =   51429.01848507 Ry
     xc contribution           =   -4456.63407652 Ry
     ewald contribution        =   40401.33450164 Ry
     Dispersion Correction     =      -2.79637894 Ry
     smearing contrib. (-TS)   =      -3.38187838 Ry

     convergence has been achieved in  44 iterations

     Writing output data file gc.save
 
     init_run     :    189.28s CPU    201.81s WALL (       1 calls)
     electrons    :  25219.57s CPU  26765.65s WALL (       1 calls)

     Called by init_run:
     wfcinit      :    186.56s CPU    198.31s WALL (       1 calls)
     potinit      :      0.88s CPU      0.94s WALL (       1 calls)

     Called by electrons:
     c_bands      :  23154.00s CPU  24527.25s WALL (      44 calls)
     sum_band     :   1686.48s CPU   1804.57s WALL (      44 calls)
     v_of_rho     :      5.20s CPU      6.56s WALL (      45 calls)
     newd         :     15.23s CPU     27.76s WALL (      45 calls)
     mix_rho      :    358.60s CPU    399.50s WALL (      44 calls)

     Called by c_bands:
     init_us_2    :     80.31s CPU     81.84s WALL (     534 calls)
     cegterg      :  22825.14s CPU  24185.04s WALL (     273 calls)

     Called by sum_band:
     sum_band:bec :      4.68s CPU      5.27s WALL (     264 calls)
     addusdens    :     21.41s CPU     32.89s WALL (      44 calls)

     Called by *egterg:
     h_psi        :   8125.82s CPU   8708.71s WALL (    1980 calls)
     s_psi        :   2042.13s CPU   2054.91s WALL (    1980 calls)
     g_psi        :     21.61s CPU     21.68s WALL (    1701 calls)
     cdiaghg      :   6643.26s CPU   6966.59s WALL (    1966 calls)

     Called by h_psi:
     add_vuspsi   :   2046.53s CPU   2060.70s WALL (    1980 calls)

     General routines
     calbec       :   2750.64s CPU   2771.04s WALL (    2244 calls)
     fft          :      4.25s CPU      5.37s WALL (     584 calls)
     ffts         :    151.10s CPU    179.40s WALL (   23429 calls)
     fftw         :   3916.10s CPU   4438.09s WALL ( 1342018 calls)
     davcio       :      0.22s CPU      6.21s WALL (       6 calls)
 
     Parallel routines
     fft_scatter  :   1983.61s CPU   2274.82s WALL ( 1366031 calls)
 
     PWSCF        :     7h 3m CPU        7h29m WALL

 
   This run was terminated on:  14:41:51   5Oct2017            

=------------------------------------------------------------------------------=
   JOB DONE.
=------------------------------------------------------------------------------=
