
     Program BANDS v.5.4.0 starts on  7Feb2018 at 18:20:33 

     This program is part of the open-source Quantum ESPRESSO suite
     for quantum simulation of materials; please cite
         "P. Giannozzi et al., J. Phys.:Condens. Matter 21 395502 (2009);
          URL http://www.quantum-espresso.org", 
     in publications or presentations arising from this work. More details at
     http://www.quantum-espresso.org/quote

     Parallel version (MPI & OpenMP), running on       1 processor cores
     Number of MPI processes:                 1
     Threads/MPI process:                     1

     Reading data from directory:
     /short/y35/tjf502/QE-5.4.0-bw/tempdir/Pt.save

   Info: using nr1, nr2, nr3 values from input

   Info: using nr1, nr2, nr3 values from input

     IMPORTANT: XC functional enforced from input :
     Exchange-correlation      =  SLA  PZ   NOGX NOGC ( 1  1  0  0 0 0)
     Any further DFT definition will be discarded
     Please, verify this is what you really want

 
     G-vector sticks info
     --------------------
     sticks:   dense  smooth     PW     G-vecs:    dense   smooth      PW
     Sum         475     223     85                 6855     2229     459
 

     Check: negative/imaginary core charge=   -0.000004    0.000000
     high-symmetry point:  0.0000 0.0000 0.0000   x coordinate   0.0000
     high-symmetry point:  1.0000 0.0000 0.0000   x coordinate   0.1000
     high-symmetry point:  0.4000 0.2000 0.1000   x coordinate   0.1000
     high-symmetry point:  0.4000 0.4000 0.0000   x coordinate   0.3236
     high-symmetry point:  0.4000 0.4000 0.4000   x coordinate   0.7236
     high-symmetry point:  0.5000 0.5000 0.5000   x coordinate   0.8968
     high-symmetry point:  0.7500 0.7500 0.0000   x coordinate   1.5092

     Plottable bands written to file pt.band.gnu
     Bands written to file pt.band

 **************************************************************************

                    xk=(   0.00000,   0.00000,   0.00000  )

     double point group O_h (m-3m) 
     there are 16 classes and  6 irreducible representations
     the character table:

       E     -E    8C3   -8C3   3C2  6C4   -6C4   6C2' i     -i    8S6   -8S6 
                               -3C2              -6C2'                        
G_6+   2.00 -2.00  1.00 -1.00  0.00  1.41 -1.41  0.00  2.00 -2.00  1.00 -1.00
G_7+   2.00 -2.00  1.00 -1.00  0.00 -1.41  1.41  0.00  2.00 -2.00  1.00 -1.00
G_8+   4.00 -4.00 -1.00  1.00  0.00  0.00  0.00  0.00  4.00 -4.00 -1.00  1.00
G_6-   2.00 -2.00  1.00 -1.00  0.00  1.41 -1.41  0.00 -2.00  2.00 -1.00  1.00
G_7-   2.00 -2.00  1.00 -1.00  0.00 -1.41  1.41  0.00 -2.00  2.00 -1.00  1.00
G_8-   4.00 -4.00 -1.00  1.00  0.00  0.00  0.00  0.00 -4.00  4.00  1.00 -1.00

        3s_h 6S4   -6S4   6s_d
       -3s_h             -6s_d
G_6+   0.00  1.41 -1.41  0.00
G_7+   0.00 -1.41  1.41  0.00
G_8+   0.00  0.00  0.00  0.00
G_6-   0.00 -1.41  1.41  0.00
G_7-   0.00  1.41 -1.41  0.00
G_8-   0.00  0.00  0.00  0.00

     the symmetry operations in each class and the name of the first element:

     E             1
                                                                 
     -E           -1
                                                                 
     8C3          17   19   20   18   24   21   22   23
                                                                 
     -8C3        -17  -19  -20  -18  -24  -21  -22  -23
                                                                 
      3C2 -3C2     2   -2    4   -4    3   -3
                                                                 
     6C4           7    8   15   16   12   11
                                                                 
     -6C4         -7   -8  -15  -16  -12  -11
                                                                 
      6C2'-6C2'    5   -5    6   -6   14  -13  -14   13  -10   -9   10    9
                                                                 
     i            25
                                                                 
     -i          -25
                                                                 
     8S6          41   43   44   42   48   45   46   47
                                                                 
     -8S6        -41  -43  -44  -42  -48  -45  -46  -47
                                                                 
      3s_h-3s_h   26  -26   28  -28   27  -27
                                                                 
     6S4          31   32   39   40   36   35
                                                                 
     -6S4        -31  -32  -39  -40  -36  -35
                                                                 
      6s_d-6s_d   29  -29   30  -30   38  -37  -38   37  -34  -33   34   33
                                                                 

     Band symmetry, O_h (m-3m)  double point group:

     e(  1 -  2) =      7.27272  eV     2   --> G_6+           
     e(  3 -  6) =     13.29785  eV     4   --> G_8+           
     e(  7 -  8) =     14.29146  eV     2   --> G_7+           
     e(  9 - 12) =     16.11924  eV     4   --> G_8+           
     e( 13 - 14) =     34.84024  eV     2   --> G_7-           
     e( 15 - 16) =     38.36105  eV     2   --> G_6-           
     e( 17 - 18) =     39.65390  eV     2   -->   ?

 **************************************************************************

 **************************************************************************

                    xk=(   0.10000,   0.00000,   0.00000  )

     double point group C_4v (4mm) 
     there are  7 classes and  2 irreducible representations
     the character table:

       E     -E    2C4   -2C4   C2    2s_v  2s_d
                               -C2   -2s_v -2s_d
G_6    2.00 -2.00  1.41 -1.41  0.00  0.00  0.00
G_7    2.00 -2.00 -1.41  1.41  0.00  0.00  0.00

     the symmetry operations in each class and the name of the first element:

     E             1
                                                                 
     -E           -1
                                                                 
     2C4           3    4
                                                                 
     -2C4         -3   -4
                                                                 
      C2  -C2      2   -2
                                                                 
      2s_v-2s_v    5   -5    6   -6
                                                                 
      2s_d-2s_d    7   -7   -8    8
                                                                 

     Band symmetry, C_4v (4mm)  double point group:

     e(  1 -  2) =      7.40600  eV     2   --> G_6   D_6      
     e(  3 -  4) =     13.26585  eV     2   --> G_7   D_7      
     e(  5 -  6) =     13.35473  eV     2   --> G_6   D_6      
     e(  7 -  8) =     14.31524  eV     2   --> G_7   D_7      
     e(  9 - 10) =     16.03364  eV     2   --> G_6   D_6      
     e( 11 - 12) =     16.15073  eV     2   --> G_7   D_7      
     e( 13 - 14) =     35.02251  eV     2   --> G_7   D_7      
     e( 15 - 16) =     38.07544  eV     2   --> G_6   D_6      
     e( 17 - 18) =     39.12512  eV     2   --> G_6   D_6      

 **************************************************************************

 **************************************************************************

                    xk=(   1.00000,   0.00000,   0.00000  )

     double point group D_4h(4/mmm)
     there are 14 classes and  4 irreducible representations
     the character table:

       E     -E    2C4   -2C4   C2    2C2' 2C2'' i     -i    2S4   -2S4   s_h 
                               -C2   -2C2' -2C2'                         -s_h 
G_6+   2.00 -2.00  1.41 -1.41  0.00  0.00  0.00  2.00 -2.00  1.41 -1.41  0.00
G_7+   2.00 -2.00 -1.41  1.41  0.00  0.00  0.00  2.00 -2.00 -1.41  1.41  0.00
G_6-   2.00 -2.00  1.41 -1.41  0.00  0.00  0.00 -2.00  2.00 -1.41  1.41  0.00
G_7-   2.00 -2.00 -1.41  1.41  0.00  0.00  0.00 -2.00  2.00  1.41 -1.41  0.00

        2s_v  2s_d
       -2s_v -2s_d
G_6+   0.00  0.00
G_7+   0.00  0.00
G_6-   0.00  0.00
G_7-   0.00  0.00

     the symmetry operations in each class and the name of the first element:

     E             1
                                                                 
     -E           -1
                                                                 
     2C4           7    8
                                                                 
     -2C4         -7   -8
                                                                 
      C2  -C2      4   -4
                                                                 
      2C2'-2C2'    2   -2    3   -3
                                                                 
     2C2''-2C2'    5    6   -6   -5
                                                                 
     i             9
                                                                 
     -i           -9
                                                                 
     2S4          15   16
                                                                 
     -2S4        -15  -16
                                                                 
      s_h -s_h    12  -12
                                                                 
      2s_v-2s_v   10  -10   11  -11
                                                                 
      2s_d-2s_d   13   14  -14  -13
                                                                 

     Band symmetry, D_4h(4/mmm) double point group:

     e(  1 -  2) =     10.44178  eV     2   --> G_6+  M_6+     
     e(  3 -  4) =     10.87346  eV     2   --> G_7+  M_7+     
     e(  5 -  6) =     17.37445  eV     2   --> G_7+  M_7+     
     e(  7 -  8) =     17.67775  eV     2   --> G_6+  M_6+     
     e(  9 - 10) =     18.65959  eV     2   --> G_7+  M_7+     
     e( 11 - 12) =     19.10266  eV     2   --> G_6-  M_6-     
     e( 13 - 14) =     26.26903  eV     2   --> G_6+  M_6+     
     e( 15 - 16) =     28.73750  eV     2   --> G_6-  M_6-     
     e( 17 - 18) =     30.28069  eV     2   --> G_7-  M_7-     

 **************************************************************************

 **************************************************************************

                    xk=(   0.40000,   0.20000,   0.10000  )

     double point group C_1 (1)    
     there are  2 classes and  1 irreducible representations
     the character table:

       E     -E   
                  
G_2    1.00 -1.00

     the symmetry operations in each class and the name of the first element:

     E             1
                                                                 
     -E           -1
                                                                 

     Band symmetry, C_1 (1)     double point group:

     e(  1 -  2) =      9.65964  eV     2   -->   2 G_2            
     e(  3 -  4) =     12.67690  eV     2   -->   2 G_2            
     e(  5 -  6) =     13.67378  eV     2   -->   2 G_2            
     e(  7 -  8) =     14.94391  eV     2   -->   2 G_2            
     e(  9 - 10) =     15.71832  eV     2   -->   2 G_2            
     e( 11 - 12) =     16.93321  eV     2   -->   2 G_2            
     e( 13 - 14) =     32.05038  eV     2   -->   2 G_2            
     e( 15 - 16) =     35.78191  eV     2   -->   2 G_2            
     e( 17 - 18) =     37.60570  eV     2   -->   2 G_2            

 **************************************************************************

 **************************************************************************

                    xk=(   0.40000,   0.40000,   0.00000  )

     double point group C_2v (mm2) 
     there are  5 classes and  1 irreducible representations
     the character table:

       E     -E     C2    s_v   s_v'
                   -C2   -s_v  -s_v'
G_5    2.00 -2.00  0.00  0.00  0.00

     the symmetry operations in each class and the name of the first element:

     E             1
                                                                 
     -E           -1
                                                                 
      C2  -C2      2   -2
                                                                 
      s_v -s_v     3   -3
                                                                 
      s_v'-s_v'    4   -4
                                                                 

     Band symmetry, C_2v (mm2)  double point group:

     e(  1 -  2) =     10.63627  eV     2   --> G_5  D_5       
     e(  3 -  4) =     12.67774  eV     2   --> G_5  D_5       
     e(  5 -  6) =     13.51681  eV     2   --> G_5  D_5       
     e(  7 -  8) =     15.02071  eV     2   --> G_5  D_5       
     e(  9 - 10) =     15.45492  eV     2   --> G_5  D_5       
     e( 11 - 12) =     18.07551  eV     2   --> G_5  D_5       
     e( 13 - 14) =     30.35066  eV     2   --> G_5  D_5       
     e( 15 - 16) =     32.89540  eV     2   --> G_5  D_5       
     e( 17 - 18) =     37.60596  eV     2   --> G_5  D_5       

 **************************************************************************

 **************************************************************************

                    xk=(   0.40000,   0.40000,   0.40000  )

     double point group C_3v (3m)  
     there are  6 classes and  3 irreducible representations
     the character table:

       E     -E    2C3   -2C3  3s_v  -3s_v
                                          
G_4    2.00 -2.00  1.00 -1.00  0.00  0.00
G_5    1.00 -1.00 -1.00  1.00  0.00  0.00
G_6    1.00 -1.00 -1.00  1.00  0.00  0.00

     imaginary part

       E     -E    2C3   -2C3  3s_v  -3s_v
                                          
G_4    0.00  0.00  0.00  0.00  0.00  0.00
G_5    0.00  0.00  0.00  0.00  1.00 -1.00
G_6    0.00  0.00  0.00  0.00 -1.00  1.00

     the symmetry operations in each class and the name of the first element:

     E             1
                                                                 
     -E           -1
                                                                 
     2C3           2    3
                                                                 
     -2C3         -2   -3
                                                                 
     3s_v          4    5    6
                                                                 
     -3s_v        -4   -5   -6
                                                                 

     Band symmetry, C_3v (3m)   double point group:

     e(  1 -  2) =     10.15556  eV     2   --> G_4   L_6      
     e(  3 -  4) =     13.22718  eV     2   --> G_5   L_4      
     e(  3 -  4) =     13.22718  eV     2   --> G_6   L_5      
     e(  5 -  6) =     14.27678  eV     2   --> G_4   L_6      
     e(  7 -  8) =     15.38929  eV     2   --> G_4   L_6      
     e(  9 - 10) =     17.06806  eV     2   --> G_4   L_6      
     e( 11 - 12) =     17.63231  eV     2   --> G_5   L_4      
     e( 11 - 12) =     17.63231  eV     2   --> G_6   L_5      
     e( 13 - 14) =     25.37118  eV     2   --> G_4   L_6      
     e( 15 - 16) =     34.29231  eV     2   --> G_4   L_6      
     e( 17 - 18) =     37.68822  eV     2   --> G_4   L_6      

 **************************************************************************

 **************************************************************************

                    xk=(   0.50000,   0.50000,   0.50000  )

     double point group D_3d (-3m) 
     there are 12 classes and  6 irreducible representations
     the character table:

       E     -E    2C3   -2C3  3C2'  -3C2' i     -i    2S6   -2S6  3s_v  -3s_v
                                                                              
G_4+   2.00 -2.00  1.00 -1.00  0.00  0.00  2.00 -2.00  1.00 -1.00  0.00  0.00
G_5+   1.00 -1.00 -1.00  1.00  0.00  0.00  1.00 -1.00 -1.00  1.00  0.00  0.00
G_6+   1.00 -1.00 -1.00  1.00  0.00  0.00  1.00 -1.00 -1.00  1.00  0.00  0.00
G_4-   2.00 -2.00  1.00 -1.00  0.00  0.00 -2.00  2.00 -1.00  1.00  0.00  0.00
G_5-   1.00 -1.00 -1.00  1.00  0.00  0.00 -1.00  1.00  1.00 -1.00  0.00  0.00
G_6-   1.00 -1.00 -1.00  1.00  0.00  0.00 -1.00  1.00  1.00 -1.00  0.00  0.00

     imaginary part

       E     -E    2C3   -2C3  3C2'  -3C2' i     -i    2S6   -2S6  3s_v  -3s_v
                                                                              
G_4+   0.00  0.00  0.00  0.00  0.00  0.00  0.00  0.00  0.00  0.00  0.00  0.00
G_5+   0.00  0.00  0.00  0.00  1.00 -1.00  0.00  0.00  0.00  0.00  1.00 -1.00
G_6+   0.00  0.00  0.00  0.00 -1.00  1.00  0.00  0.00  0.00  0.00 -1.00  1.00
G_4-   0.00  0.00  0.00  0.00  0.00  0.00  0.00  0.00  0.00  0.00  0.00  0.00
G_5-   0.00  0.00  0.00  0.00  1.00 -1.00  0.00  0.00  0.00  0.00 -1.00  1.00
G_6-   0.00  0.00  0.00  0.00 -1.00  1.00  0.00  0.00  0.00  0.00  1.00 -1.00

     the symmetry operations in each class and the name of the first element:

     E             1
                                                                 
     -E           -1
                                                                 
     2C3           5    6
                                                                 
     -2C3         -5   -6
                                                                 
     3C2'          2    4    3
                                                                 
     -3C2'        -2   -4   -3
                                                                 
     i             7
                                                                 
     -i           -7
                                                                 
     2S6          11   12
                                                                 
     -2S6        -11  -12
                                                                 
     3s_v          8   10    9
                                                                 
     -3s_v        -8  -10   -9
                                                                 

     Band symmetry, D_3d (-3m)  double point group:

     e(  1 -  2) =     10.17424  eV     2   --> G_4+  L_6+     
     e(  3 -  4) =     13.14245  eV     2   --> G_5+  L_4+     
     e(  3 -  4) =     13.14245  eV     2   --> G_6+  L_5+     
     e(  5 -  6) =     14.15868  eV     2   --> G_4+  L_6+     
     e(  7 -  8) =     16.90325  eV     2   --> G_4-  L_6-     
     e(  9 - 10) =     17.29982  eV     2   --> G_4+  L_6+     
     e( 11 - 12) =     17.96376  eV     2   --> G_5+  L_4+     
     e( 11 - 12) =     17.96376  eV     2   --> G_6+  L_5+     
     e( 13 - 14) =     23.35789  eV     2   --> G_4+  L_6+     
     e( 15 - 16) =     33.87781  eV     2   --> G_4-  L_6-     
     e( 17 - 18) =     36.95416  eV     2   --> G_4-  L_6-     

 **************************************************************************

 **************************************************************************

                    xk=(   0.75000,   0.75000,   0.00000  )

     double point group C_2v (mm2) 
     there are  5 classes and  1 irreducible representations
     the character table:

       E     -E     C2    s_v   s_v'
                   -C2   -s_v  -s_v'
G_5    2.00 -2.00  0.00  0.00  0.00

     the symmetry operations in each class and the name of the first element:

     E             1
                                                                 
     -E           -1
                                                                 
      C2  -C2      2   -2
                                                                 
      s_v -s_v     3   -3
                                                                 
      s_v'-s_v'    4   -4
                                                                 

     Band symmetry, C_2v (mm2)  double point group:

     e(  1 -  2) =     11.23710  eV     2   --> G_5  D_5       
     e(  3 -  4) =     11.98639  eV     2   --> G_5  D_5       
     e(  5 -  6) =     14.56710  eV     2   --> G_5  D_5       
     e(  7 -  8) =     16.24938  eV     2   --> G_5  D_5       
     e(  9 - 10) =     17.53376  eV     2   --> G_5  D_5       
     e( 11 - 12) =     23.32635  eV     2   --> G_5  D_5       
     e( 13 - 14) =     24.22493  eV     2   --> G_5  D_5       
     e( 15 - 16) =     27.55368  eV     2   --> G_5  D_5       
     e( 17 - 18) =     32.69172  eV     2   --> G_5  D_5       

 **************************************************************************
 
     BANDS        :     2.38s CPU         5.28s WALL

 
   This run was terminated on:  18:20:38   7Feb2018            

=------------------------------------------------------------------------------=
   JOB DONE.
=------------------------------------------------------------------------------=
