
     Program PWSCF v.5.4.0 starts on 26Mar2017 at 15:18:45 

     This program is part of the open-source Quantum ESPRESSO suite
     for quantum simulation of materials; please cite
         "P. Giannozzi et al., J. Phys.:Condens. Matter 21 395502 (2009);
          URL http://www.quantum-espresso.org", 
     in publications or presentations arising from this work. More details at
     http://www.quantum-espresso.org/quote

     Parallel version (MPI & OpenMP), running on      56 processor cores
     Number of MPI processes:                56
     Threads/MPI process:                     1
     R & G space division:  proc/nbgrp/npool/nimage =      56
     Waiting for input...
     Reading input from standard input
Warning: card &IONS ignored
Warning: card / ignored

     Current dimensions of program PWSCF are:
     Max number of different atomic species (ntypx) = 10
     Max number of k-points (npk) =  40000
     Max angular momentum in pseudopotentials (lmaxx) =  3

     -------------------------------------
     Parameters for Dispersion Correction:
     -------------------------------------
       atom      VdW radius       C_6     

        Cu         2.952        374.666
        C_h        2.744         60.710
        C          2.744         60.710

     Subspace diagonalization in iterative solution of the eigenvalue problem:
     one sub-group per band group will be used
     scalapack distributed-memory algorithm (size of sub-group:  5*  5 procs)

 
     Parallelization info
     --------------------
     sticks:   dense  smooth     PW     G-vecs:    dense   smooth      PW
     Min         204     204     54                36612    36612    4962
     Max         205     205     55                36617    36617    4968
     Sum       11433   11433   3039              2050409  2050409  278033
 


     bravais-lattice index     =            0
     lattice parameter (alat)  =      13.9425  a.u.
     unit-cell volume          =   21209.0878 (a.u.)^3
     number of atoms/cell      =          148
     number of atomic types    =            3
     number of electrons       =      1292.00
     number of Kohn-Sham states=          775
     kinetic-energy cutoff     =      80.0000  Ry
     charge density cutoff     =     320.0000  Ry
     convergence threshold     =      1.0E-08
     mixing beta               =       0.7000
     number of iterations used =            8  local-TF  mixing
     Exchange-correlation      =  SLA  PW   PBX  PBC ( 1  4  3  4 0 0)

     celldm(1)=  13.942539  celldm(2)=   0.000000  celldm(3)=   0.000000
     celldm(4)=   0.000000  celldm(5)=   0.000000  celldm(6)=   0.000000

     crystal axes: (cart. coord. in units of alat)
               a(1) = (   1.000000   0.000000   0.000000 )  
               a(2) = (   0.000000   2.309401   0.000000 )  
               a(3) = (   0.000000   0.000000   3.388418 )  

     reciprocal axes: (cart. coord. in units 2 pi/alat)
               b(1) = (  1.000000  0.000000  0.000000 )  
               b(2) = (  0.000000  0.433013  0.000000 )  
               b(3) = (  0.000000  0.000000  0.295123 )  


     PseudoPot. # 1 for Cu read from file:
     /home/549/hxw549/Short/pseudopotentials/Cu.pbe-n-van_ak.UPF
     MD5 check sum: 601f7c30f7467666bec936e0661ce3e1
     Pseudo is Ultrasoft + core correction, Zval = 11.0
     Generated by new atomic code, or converted to UPF format
     Using radial grid of  867 points,  6 beta functions with: 
                l(1) =   0
                l(2) =   0
                l(3) =   1
                l(4) =   1
                l(5) =   2
                l(6) =   2
     Q(r) pseudized with  8 coefficients,  rinner =    1.400   1.400   1.400
                                                       1.400   1.400

     PseudoPot. # 2 for C  read from file:
     /home/549/hxw549/Short/pseudopotentials/C.star1s-pbe-mt_gipaw.UPF
     MD5 check sum: ef0cb3dee31bd9e4ba2a832a2c716264
     Pseudo is Norm-conserving, Zval =  5.0
     Generated by new atomic code, or converted to UPF format
     Using radial grid of 1073 points,  1 beta functions with: 
                l(1) =   0

     PseudoPot. # 3 for C  read from file:
     /home/549/hxw549/Short/pseudopotentials/C.pbe-mt_gipaw.UPF
     MD5 check sum: 5ac2f21f2c440b14befe521540822c15
     Pseudo is Norm-conserving, Zval =  4.0
     Generated by new atomic code, or converted to UPF format
     Using radial grid of 1073 points,  1 beta functions with: 
                l(1) =   0

     atomic species   valence    mass     pseudopotential
        Cu            11.00    63.54600     Cu( 1.00)
        C_h            5.00    12.01070     C ( 1.00)
        C              4.00    12.01070     C ( 1.00)

     No symmetry found



   Cartesian axes

     site n.     atom                  positions (alat units)
         1           Cu  tau(   1) = (   0.0000000   0.0000567   0.9971194  )
         2           Cu  tau(   2) = (   0.2499927   0.2309760   0.9972946  )
         3           Cu  tau(   3) = (   0.5000000   0.0000313   0.9971490  )
         4           Cu  tau(   4) = (   0.7500073   0.2309760   0.9972946  )
         5           Cu  tau(   5) = (   0.0000000   0.4618437   0.9973425  )
         6           Cu  tau(   6) = (   0.2499840   0.6927701   0.9971914  )
         7           Cu  tau(   7) = (   0.5000000   0.4618722   0.9973119  )
         8           Cu  tau(   8) = (   0.7500160   0.6927701   0.9971914  )
         9           Cu  tau(   9) = (   0.0000000   0.9237521   0.9970621  )
        10           Cu  tau(  10) = (   0.2500157   1.1547420   0.9971373  )
        11           Cu  tau(  11) = (   0.5000000   0.9237453   0.9970727  )
        12           Cu  tau(  12) = (   0.7499843   1.1547420   0.9971373  )
        13           Cu  tau(  13) = (   0.0000000   1.3856555   0.9972830  )
        14           Cu  tau(  14) = (   0.2500029   1.6165618   0.9973242  )
        15           Cu  tau(  15) = (   0.5000000   1.3857014   0.9973005  )
        16           Cu  tau(  16) = (   0.7499971   1.6165618   0.9973242  )
        17           Cu  tau(  17) = (   0.0000000   1.8474941   0.9971969  )
        18           Cu  tau(  18) = (   0.2500043   2.0784518   0.9970745  )
        19           Cu  tau(  19) = (   0.5000000   1.8474499   0.9971773  )
        20           Cu  tau(  20) = (   0.7499957   2.0784518   0.9970745  )
        21           Cu  tau(  21) = (   0.0000000   0.2308065   1.2457643  )
        22           Cu  tau(  22) = (   0.2499892  -0.0001010   1.2455764  )
        23           Cu  tau(  23) = (   0.5000000   0.2308938   1.2456746  )
        24           Cu  tau(  24) = (   0.7500108  -0.0001010   1.2455764  )
        25           Cu  tau(  25) = (   0.0000000   0.6929786   1.2456406  )
        26           Cu  tau(  26) = (   0.2499874   0.4619293   1.2457459  )
        27           Cu  tau(  27) = (   0.5000000   0.6929012   1.2456074  )
        28           Cu  tau(  28) = (   0.7500126   0.4619293   1.2457459  )
        29           Cu  tau(  29) = (   0.0000000   1.1546142   1.2455676  )
        30           Cu  tau(  30) = (   0.2499981   0.9237849   1.2455149  )
        31           Cu  tau(  31) = (   0.5000000   1.1545763   1.2455800  )
        32           Cu  tau(  32) = (   0.7500019   0.9237849   1.2455149  )
        33           Cu  tau(  33) = (   0.0000000   1.6166029   1.2456910  )
        34           Cu  tau(  34) = (   0.2500161   1.3855492   1.2457134  )
        35           Cu  tau(  35) = (   0.5000000   1.6166555   1.2458019  )
        36           Cu  tau(  36) = (   0.7499839   1.3855492   1.2457134  )
        37           Cu  tau(  37) = (   0.0000000   2.0784993   1.2455162  )
        38           Cu  tau(  38) = (   0.2500161   1.8476387   1.2456210  )
        39           Cu  tau(  39) = (   0.5000000   2.0784755   1.2455152  )
        40           Cu  tau(  40) = (   0.7499839   1.8476387   1.2456210  )
        41           Cu  tau(  41) = (   0.0000000  -0.0003182   1.4954305  )
        42           Cu  tau(  42) = (   0.2500224   0.2307186   1.4951678  )
        43           Cu  tau(  43) = (   0.5000000  -0.0002059   1.4952775  )
        44           Cu  tau(  44) = (   0.7499776   0.2307186   1.4951678  )
        45           Cu  tau(  45) = (   0.0000000   0.4620254   1.4950571  )
        46           Cu  tau(  46) = (   0.2500339   0.6931225   1.4952807  )
        47           Cu  tau(  47) = (   0.5000000   0.4619896   1.4952144  )
        48           Cu  tau(  48) = (   0.7499661   0.6931225   1.4952807  )
        49           Cu  tau(  49) = (   0.0000000   0.9238798   1.4954544  )
        50           Cu  tau(  50) = (   0.2499708   1.1544329   1.4953374  )
        51           Cu  tau(  51) = (   0.5000000   0.9237633   1.4954072  )
        52           Cu  tau(  52) = (   0.7500292   1.1544329   1.4953374  )
        53           Cu  tau(  53) = (   0.0000000   1.3854453   1.4952066  )
        54           Cu  tau(  54) = (   0.2499861   1.6167017   1.4951298  )
        55           Cu  tau(  55) = (   0.5000000   1.3853760   1.4951346  )
        56           Cu  tau(  56) = (   0.7500139   1.6167017   1.4951298  )
        57           Cu  tau(  57) = (   0.0000000   1.8477718   1.4952308  )
        58           Cu  tau(  58) = (   0.2499930   2.0785254   1.4954090  )
        59           Cu  tau(  59) = (   0.5000000   1.8478762   1.4953503  )
        60           Cu  tau(  60) = (   0.7500070   2.0785254   1.4954090  )
        61           Cu  tau(  61) = (   0.0000000   0.2310733   1.7440777  )
        62           Cu  tau(  62) = (   0.2501089  -0.0001294   1.7450479  )
        63           Cu  tau(  63) = (   0.5000000   0.2306045   1.7445985  )
        64           Cu  tau(  64) = (   0.7498911  -0.0001294   1.7450479  )
        65           Cu  tau(  65) = (   0.0000000   0.6927994   1.7446059  )
        66           Cu  tau(  66) = (   0.2502918   0.4619532   1.7441197  )
        67           Cu  tau(  67) = (   0.5000000   0.6931011   1.7451318  )
        68           Cu  tau(  68) = (   0.7497082   0.4619532   1.7441197  )
        69           Cu  tau(  69) = (   0.0000000   1.1545789   1.7453503  )
        70           Cu  tau(  70) = (   0.2500220   0.9237908   1.7453835  )
        71           Cu  tau(  71) = (   0.5000000   1.1545999   1.7449118  )
        72           Cu  tau(  72) = (   0.7499780   0.9237908   1.7453835  )
        73           Cu  tau(  73) = (   0.0000000   1.6167791   1.7444075  )
        74           Cu  tau(  74) = (   0.2497438   1.3855115   1.7442733  )
        75           Cu  tau(  75) = (   0.5000000   1.6164906   1.7439233  )
        76           Cu  tau(  76) = (   0.7502562   1.3855115   1.7442733  )
        77           Cu  tau(  77) = (   0.0000000   2.0782721   1.7455014  )
        78           Cu  tau(  78) = (   0.2498426   1.8476765   1.7447807  )
        79           Cu  tau(  79) = (   0.5000000   2.0787016   1.7454002  )
        80           Cu  tau(  80) = (   0.7501574   1.8476765   1.7447807  )
        81           Cu  tau(  81) = (   0.0000000   0.0010732   1.9906710  )
        82           Cu  tau(  82) = (   0.2503054   0.2314650   1.9904877  )
        83           Cu  tau(  83) = (   0.5000000   0.0001335   1.9924670  )
        84           Cu  tau(  84) = (   0.7496946   0.2314650   1.9904877  )
        85           Cu  tau(  85) = (   0.0000000   0.4618379   1.9901778  )
        86           Cu  tau(  86) = (   0.2508441   0.6921348   1.9910282  )
        87           Cu  tau(  87) = (   0.5000000   0.4613052   1.9913358  )
        88           Cu  tau(  88) = (   0.7491559   0.6921348   1.9910282  )
        89           Cu  tau(  89) = (   0.0000000   0.9224699   1.9915918  )
        90           Cu  tau(  90) = (   0.2491275   1.1552920   1.9912642  )
        91           Cu  tau(  91) = (   0.5000000   0.9247757   1.9920574  )
        92           Cu  tau(  92) = (   0.7508725   1.1552920   1.9912642  )
        93           Cu  tau(  93) = (   0.0000000   1.3865904   1.9916296  )
        94           Cu  tau(  94) = (   0.2499532   1.6162906   1.9903050  )
        95           Cu  tau(  95) = (   0.5000000   1.3858063   1.9901800  )
        96           Cu  tau(  96) = (   0.7500468   1.6162906   1.9903050  )
        97           Cu  tau(  97) = (   0.0000000   1.8468318   1.9923212  )
        98           Cu  tau(  98) = (   0.2497561   2.0783183   1.9915134  )
        99           Cu  tau(  99) = (   0.5000000   1.8467805   1.9903847  )
       100           Cu  tau( 100) = (   0.7502439   2.0783183   1.9915134  )
       101           C   tau( 101) = (   0.0000000   0.0962962   2.3888871  )
       102           C   tau( 102) = (   0.0000000   0.2886925   2.3900713  )
       103           C   tau( 103) = (   0.1666323   0.0000435   2.3878440  )
       104           C   tau( 104) = (   0.1664900   0.3848966   2.3886743  )
       105           C   tau( 105) = (   0.3331238   0.0962174   2.3860158  )
       106           C   tau( 106) = (   0.3331280   0.2886629   2.3856823  )
       107           C   tau( 107) = (   0.5000000  -0.0000818   2.3845687  )
       108           C   tau( 108) = (   0.5000000   0.3849277   2.3842391  )
       109           C   tau( 109) = (   0.6668762   0.0962174   2.3860158  )
       110           C   tau( 110) = (   0.6668720   0.2886629   2.3856823  )
       111           C   tau( 111) = (   0.8333677   0.0000435   2.3878440  )
       112           C   tau( 112) = (   0.8335100   0.3848966   2.3886743  )
       113           C   tau( 113) = (   0.0000000   0.6735163   2.3892509  )
       114           C   tau( 114) = (   0.0000000   0.8659398   2.3870960  )
       115           C   tau( 115) = (   0.1664759   0.5773226   2.3882842  )
       116           C   tau( 116) = (   0.1667428   0.9622141   2.3870264  )
       117           C   tau( 117) = (   0.3332094   0.6735984   2.3858047  )
       118           C   tau( 118) = (   0.3332031   0.8660537   2.3866148  )
       119           C   tau( 119) = (   0.5000000   0.5773685   2.3848465  )
       120           C   tau( 120) = (   0.5000000   0.9623380   2.3860825  )
       121           C   tau( 121) = (   0.6667906   0.6735984   2.3858047  )
       122           C   tau( 122) = (   0.6667969   0.8660537   2.3866148  )
       123           C   tau( 123) = (   0.8335241   0.5773226   2.3882842  )
       124           C   tau( 124) = (   0.8332572   0.9622141   2.3870264  )
       125           C   tau( 125) = (   0.0000000   1.2508867   2.3852683  )
       126           C   tau( 126) = (   0.0000000   1.4433300   2.3840871  )
       127           C   tau( 127) = (   0.1667360   1.1546708   2.3859697  )
       128           C   tau( 128) = (   0.1668939   1.5396104   2.3857176  )
       129           C   tau( 129) = (   0.3335095   1.2509657   2.3878953  )
       130           C   tau( 130) = (   0.3334866   1.4433958   2.3886602  )
       131           C   tau( 131) = (   0.5000000   1.1547731   2.3885512  )
       132           C   tau( 132) = (   0.5000000   1.5396099   2.3901428  )
       133           C_h tau( 133) = (   0.6664905   1.2509657   2.3878953  )
       134           C   tau( 134) = (   0.6665134   1.4433958   2.3886602  )
       135           C   tau( 135) = (   0.8332640   1.1546708   2.3859697  )
       136           C   tau( 136) = (   0.8331061   1.5396104   2.3857176  )
       137           C   tau( 137) = (   0.0000000   1.8283510   2.3842019  )
       138           C   tau( 138) = (   0.0000000   2.0207949   2.3863399  )
       139           C   tau( 139) = (   0.1668959   1.7320513   2.3858703  )
       140           C   tau( 140) = (   0.1666186   2.1169980   2.3865340  )
       141           C   tau( 141) = (   0.3334155   1.8282368   2.3882160  )
       142           C   tau( 142) = (   0.3334352   2.0206763   2.3869561  )
       143           C   tau( 143) = (   0.5000000   1.7319961   2.3895398  )
       144           C   tau( 144) = (   0.5000000   2.1168754   2.3870198  )
       145           C   tau( 145) = (   0.6665845   1.8282368   2.3882160  )
       146           C   tau( 146) = (   0.6665648   2.0206763   2.3869561  )
       147           C   tau( 147) = (   0.8331041   1.7320513   2.3858703  )
       148           C   tau( 148) = (   0.8333814   2.1169980   2.3865340  )

     number of k points=     6  gaussian smearing, width (Ry)=  0.1000
                       cart. coord. in units 2pi/alat
        k(    1) = (   0.0000000   0.0000000   0.0000000), wk =   0.2500000
        k(    2) = (   0.0000000  -0.2165064   0.0000000), wk =   0.2500000
        k(    3) = (   0.2500000   0.0000000   0.0000000), wk =   0.5000000
        k(    4) = (   0.2500000  -0.2165064   0.0000000), wk =   0.5000000
        k(    5) = (  -0.5000000   0.0000000   0.0000000), wk =   0.2500000
        k(    6) = (  -0.5000000  -0.2165064   0.0000000), wk =   0.2500000

     Dense  grid:  2050409 G-vectors     FFT dimensions: (  80, 192, 270)

     Largest allocated arrays     est. size (Mb)     dimensions
        Kohn-Sham Wavefunctions        54.44 Mb     (    4604,  775)
        NL pseudopotentials           129.82 Mb     (    4604, 1848)
        Each V/rho on FFT grid          1.17 Mb     (   76800)
        Each G-vector array             0.28 Mb     (   36616)
        G-vector shells                 0.14 Mb     (   17932)
     Largest temporary arrays     est. size (Mb)     dimensions
        Auxiliary wavefunctions       217.78 Mb     (    4604, 3100)
        Each subspace H/S matrix        5.87 Mb     (     620,  620)
        Each <psi_i|beta_j> matrix     21.85 Mb     (    1848,  775)
        Arrays for rho mixing           9.38 Mb     (   76800,    8)

     Initial potential from superposition of free atoms
     Check: negative starting charge=   -0.001842

     starting charge 1266.81751, renormalised to 1292.00000

     negative rho (up, down):  1.879E-03 0.000E+00
     Starting wfc are 1284 randomized atomic wfcs

     total cpu time spent up to now is      106.7 secs

     Self-consistent Calculation

     iteration #  1     ecut=    80.00 Ry     beta=0.70
     Davidson diagonalization with overlap
     c_bands:  4 eigenvalues not converged
     ethr =  1.00E-04,  avg # of iterations = 33.3

     negative rho (up, down):  2.726E+01 0.000E+00

     total cpu time spent up to now is     2040.2 secs

     total energy              =   -9472.08545521 Ry
     Harris-Foulkes estimate   =  -17311.07086646 Ry
     estimated scf accuracy    <  180161.01480933 Ry

     iteration #  2     ecut=    80.00 Ry     beta=0.70
     Davidson diagonalization with overlap
     ethr =  1.00E-02,  avg # of iterations = 12.3

     negative rho (up, down):  3.152E+01 0.000E+00

     total cpu time spent up to now is     2957.4 secs

     total energy              =  -12208.29811943 Ry
     Harris-Foulkes estimate   =  -13666.33212638 Ry
     estimated scf accuracy    <   23962.01994231 Ry

     iteration #  3     ecut=    80.00 Ry     beta=0.70
     Davidson diagonalization with overlap
     ethr =  1.00E-02,  avg # of iterations =  7.3

     negative rho (up, down):  3.206E+01 0.000E+00

     total cpu time spent up to now is     3490.3 secs

     total energy              =  -12461.83644944 Ry
     Harris-Foulkes estimate   =  -13405.45993230 Ry
     estimated scf accuracy    <    5831.57707714 Ry

     iteration #  4     ecut=    80.00 Ry     beta=0.70
     Davidson diagonalization with overlap
     ethr =  1.00E-02,  avg # of iterations =  5.7

     negative rho (up, down):  2.385E+01 0.000E+00

     total cpu time spent up to now is     3979.6 secs

     total energy              =  -12847.62398210 Ry
     Harris-Foulkes estimate   =  -13084.94810499 Ry
     estimated scf accuracy    <    1777.28244938 Ry

     iteration #  5     ecut=    80.00 Ry     beta=0.70
     Davidson diagonalization with overlap
     ethr =  1.00E-02,  avg # of iterations =  3.2

     negative rho (up, down):  1.860E+01 0.000E+00

     total cpu time spent up to now is     4243.3 secs

     total energy              =  -12847.84397561 Ry
     Harris-Foulkes estimate   =  -12961.84948589 Ry
     estimated scf accuracy    <    1275.31343166 Ry

     iteration #  6     ecut=    80.00 Ry     beta=0.70
     Davidson diagonalization with overlap
     ethr =  1.00E-02,  avg # of iterations =  3.0

     negative rho (up, down):  1.281E+01 0.000E+00

     total cpu time spent up to now is     4450.8 secs

     total energy              =  -12835.03960290 Ry
     Harris-Foulkes estimate   =  -12907.96051056 Ry
     estimated scf accuracy    <     558.38568431 Ry

     iteration #  7     ecut=    80.00 Ry     beta=0.70
     Davidson diagonalization with overlap
     ethr =  1.00E-02,  avg # of iterations =  2.0

     negative rho (up, down):  8.081E+00 0.000E+00

     total cpu time spent up to now is     4633.1 secs

     total energy              =  -12795.74412196 Ry
     Harris-Foulkes estimate   =  -12849.86881121 Ry
     estimated scf accuracy    <     409.57197302 Ry

     iteration #  8     ecut=    80.00 Ry     beta=0.70
     Davidson diagonalization with overlap
     ethr =  1.00E-02,  avg # of iterations =  2.0

     negative rho (up, down):  6.955E+00 0.000E+00

     total cpu time spent up to now is     4812.6 secs

     total energy              =  -12786.32629891 Ry
     Harris-Foulkes estimate   =  -12812.18842354 Ry
     estimated scf accuracy    <     583.87854689 Ry

     iteration #  9     ecut=    80.00 Ry     beta=0.70
     Davidson diagonalization with overlap
     ethr =  1.00E-02,  avg # of iterations =  1.7

     negative rho (up, down):  6.396E+00 0.000E+00

     total cpu time spent up to now is     4986.4 secs

     total energy              =  -12789.05827805 Ry
     Harris-Foulkes estimate   =  -12797.29885849 Ry
     estimated scf accuracy    <     210.45940259 Ry

     iteration # 10     ecut=    80.00 Ry     beta=0.70
     Davidson diagonalization with overlap
     ethr =  1.00E-02,  avg # of iterations =  1.0

     negative rho (up, down):  2.333E+00 0.000E+00

     total cpu time spent up to now is     5152.8 secs

     total energy              =  -12749.98325893 Ry
     Harris-Foulkes estimate   =  -12791.12856670 Ry
     estimated scf accuracy    <     152.20011060 Ry

     iteration # 11     ecut=    80.00 Ry     beta=0.70
     Davidson diagonalization with overlap
     ethr =  1.00E-02,  avg # of iterations =  1.5

     negative rho (up, down):  1.101E+00 0.000E+00

     total cpu time spent up to now is     5324.8 secs

     total energy              =  -12730.17436214 Ry
     Harris-Foulkes estimate   =  -12761.87091042 Ry
     estimated scf accuracy    <     356.36550034 Ry

     iteration # 12     ecut=    80.00 Ry     beta=0.70
     Davidson diagonalization with overlap
     ethr =  1.00E-02,  avg # of iterations =  2.0

     negative rho (up, down):  3.682E+00 0.000E+00

     total cpu time spent up to now is     5503.0 secs

     total energy              =  -12721.14138064 Ry
     Harris-Foulkes estimate   =  -12751.61561420 Ry
     estimated scf accuracy    <     469.20443942 Ry

     iteration # 13     ecut=    80.00 Ry     beta=0.70
     Davidson diagonalization with overlap
     ethr =  1.00E-02,  avg # of iterations =  3.0

     negative rho (up, down):  5.153E+00 0.000E+00

     total cpu time spent up to now is     5693.5 secs

     total energy              =  -12719.99284489 Ry
     Harris-Foulkes estimate   =  -12735.74632830 Ry
     estimated scf accuracy    <     415.98207626 Ry

     iteration # 14     ecut=    80.00 Ry     beta=0.70
     Davidson diagonalization with overlap
     ethr =  1.00E-02,  avg # of iterations =  1.3

     negative rho (up, down):  5.732E+00 0.000E+00

     total cpu time spent up to now is     5863.5 secs

     total energy              =  -12719.04485139 Ry
     Harris-Foulkes estimate   =  -12728.10486104 Ry
     estimated scf accuracy    <     136.53122571 Ry

     iteration # 15     ecut=    80.00 Ry     beta=0.70
     Davidson diagonalization with overlap
     ethr =  1.00E-02,  avg # of iterations =  2.0

     negative rho (up, down):  4.425E+00 0.000E+00

     total cpu time spent up to now is     6041.2 secs

     total energy              =  -12720.54042935 Ry
     Harris-Foulkes estimate   =  -12725.11030626 Ry
     estimated scf accuracy    <      94.44644051 Ry

     iteration # 16     ecut=    80.00 Ry     beta=0.70
     Davidson diagonalization with overlap
     ethr =  7.31E-03,  avg # of iterations =  1.2

     negative rho (up, down):  5.791E+00 0.000E+00

     total cpu time spent up to now is     6209.2 secs

     total energy              =  -12716.22233505 Ry
     Harris-Foulkes estimate   =  -12722.26235435 Ry
     estimated scf accuracy    <      44.23031611 Ry

     iteration # 17     ecut=    80.00 Ry     beta=0.70
     Davidson diagonalization with overlap
     ethr =  3.42E-03,  avg # of iterations =  2.0

     negative rho (up, down):  5.742E+00 0.000E+00

     total cpu time spent up to now is     6386.7 secs

     total energy              =  -12715.31452279 Ry
     Harris-Foulkes estimate   =  -12717.56868533 Ry
     estimated scf accuracy    <      25.51497260 Ry

     iteration # 18     ecut=    80.00 Ry     beta=0.70
     Davidson diagonalization with overlap
     ethr =  1.97E-03,  avg # of iterations =  2.3

     negative rho (up, down):  5.195E+00 0.000E+00

     total cpu time spent up to now is     6569.3 secs

     total energy              =  -12713.89634115 Ry
     Harris-Foulkes estimate   =  -12716.51840811 Ry
     estimated scf accuracy    <      20.34597423 Ry

     iteration # 19     ecut=    80.00 Ry     beta=0.70
     Davidson diagonalization with overlap
     ethr =  1.57E-03,  avg # of iterations =  4.8

     negative rho (up, down):  4.278E+00 0.000E+00

     total cpu time spent up to now is     6781.3 secs

     total energy              =  -12712.95459400 Ry
     Harris-Foulkes estimate   =  -12714.44988165 Ry
     estimated scf accuracy    <      11.27362250 Ry

     iteration # 20     ecut=    80.00 Ry     beta=0.70
     Davidson diagonalization with overlap
     ethr =  8.73E-04,  avg # of iterations =  7.0

     negative rho (up, down):  3.437E+00 0.000E+00

     total cpu time spent up to now is     7019.6 secs

     total energy              =  -12712.54908278 Ry
     Harris-Foulkes estimate   =  -12713.33390335 Ry
     estimated scf accuracy    <       8.84818242 Ry

     iteration # 21     ecut=    80.00 Ry     beta=0.70
     Davidson diagonalization with overlap
     ethr =  6.85E-04,  avg # of iterations =  2.2

     negative rho (up, down):  1.960E+00 0.000E+00

     total cpu time spent up to now is     7198.5 secs

     total energy              =  -12711.86344658 Ry
     Harris-Foulkes estimate   =  -12712.70995395 Ry
     estimated scf accuracy    <       7.73157369 Ry

     iteration # 22     ecut=    80.00 Ry     beta=0.70
     Davidson diagonalization with overlap
     ethr =  5.98E-04,  avg # of iterations =  2.3

     negative rho (up, down):  1.796E+00 0.000E+00

     total cpu time spent up to now is     7381.8 secs

     total energy              =  -12711.73286061 Ry
     Harris-Foulkes estimate   =  -12712.01974576 Ry
     estimated scf accuracy    <       8.48268155 Ry

     iteration # 23     ecut=    80.00 Ry     beta=0.70
     Davidson diagonalization with overlap
     ethr =  5.98E-04,  avg # of iterations =  1.0

     negative rho (up, down):  1.059E-01 0.000E+00

     total cpu time spent up to now is     7549.2 secs

     total energy              =  -12710.46635715 Ry
     Harris-Foulkes estimate   =  -12711.90812039 Ry
     estimated scf accuracy    <       6.82263734 Ry

     iteration # 24     ecut=    80.00 Ry     beta=0.70
     Davidson diagonalization with overlap
     ethr =  5.28E-04,  avg # of iterations = 12.2

     negative rho (up, down):  7.066E-07 0.000E+00

     total cpu time spent up to now is     7845.5 secs

     total energy              =  -12710.06166597 Ry
     Harris-Foulkes estimate   =  -12710.67660997 Ry
     estimated scf accuracy    <       9.00133559 Ry

     iteration # 25     ecut=    80.00 Ry     beta=0.70
     Davidson diagonalization with overlap
     ethr =  5.28E-04,  avg # of iterations =  3.2

     total cpu time spent up to now is     8034.3 secs

     total energy              =  -12709.72518703 Ry
     Harris-Foulkes estimate   =  -12710.15896242 Ry
     estimated scf accuracy    <       5.56664148 Ry

     iteration # 26     ecut=    80.00 Ry     beta=0.70
     Davidson diagonalization with overlap
     ethr =  4.31E-04,  avg # of iterations =  1.0

     total cpu time spent up to now is     8200.7 secs

     total energy              =  -12708.48760827 Ry
     Harris-Foulkes estimate   =  -12709.83277627 Ry
     estimated scf accuracy    <       5.54327043 Ry

     iteration # 27     ecut=    80.00 Ry     beta=0.70
     Davidson diagonalization with overlap
     ethr =  4.29E-04,  avg # of iterations =  1.2

     negative rho (up, down):  5.097E-02 0.000E+00

     total cpu time spent up to now is     8368.9 secs

     total energy              =  -12707.77704335 Ry
     Harris-Foulkes estimate   =  -12708.59600538 Ry
     estimated scf accuracy    <       5.10136343 Ry

     iteration # 28     ecut=    80.00 Ry     beta=0.70
     Davidson diagonalization with overlap
     ethr =  3.95E-04,  avg # of iterations =  2.2

     negative rho (up, down):  5.114E-01 0.000E+00

     total cpu time spent up to now is     8548.8 secs

     total energy              =  -12707.13168760 Ry
     Harris-Foulkes estimate   =  -12708.03591283 Ry
     estimated scf accuracy    <       3.35688622 Ry

     iteration # 29     ecut=    80.00 Ry     beta=0.70
     Davidson diagonalization with overlap
     ethr =  2.60E-04,  avg # of iterations =  9.2

     negative rho (up, down):  2.026E-01 0.000E+00

     total cpu time spent up to now is     8828.4 secs

     total energy              =  -12707.12977150 Ry
     Harris-Foulkes estimate   =  -12707.28609941 Ry
     estimated scf accuracy    <       1.04511112 Ry

     iteration # 30     ecut=    80.00 Ry     beta=0.70
     Davidson diagonalization with overlap
     ethr =  8.09E-05,  avg # of iterations = 10.2

     negative rho (up, down):  2.038E-01 0.000E+00

     total cpu time spent up to now is     9119.1 secs

     total energy              =  -12707.12469307 Ry
     Harris-Foulkes estimate   =  -12707.18558239 Ry
     estimated scf accuracy    <       0.48134740 Ry

     iteration # 31     ecut=    80.00 Ry     beta=0.70
     Davidson diagonalization with overlap
     ethr =  3.73E-05,  avg # of iterations =  7.8

     negative rho (up, down):  6.899E-02 0.000E+00

     total cpu time spent up to now is     9376.2 secs

     total energy              =  -12707.13308706 Ry
     Harris-Foulkes estimate   =  -12707.15713103 Ry
     estimated scf accuracy    <       0.24911104 Ry

     iteration # 32     ecut=    80.00 Ry     beta=0.70
     Davidson diagonalization with overlap
     c_bands:  1 eigenvalues not converged
     ethr =  1.93E-05,  avg # of iterations = 12.5

     negative rho (up, down):  8.541E-02 0.000E+00

     total cpu time spent up to now is     9688.1 secs

     total energy              =  -12707.14328834 Ry
     Harris-Foulkes estimate   =  -12707.14558954 Ry
     estimated scf accuracy    <       0.02458729 Ry

     iteration # 33     ecut=    80.00 Ry     beta=0.70
     Davidson diagonalization with overlap
     c_bands:  1 eigenvalues not converged
     ethr =  1.90E-06,  avg # of iterations = 13.5

     negative rho (up, down):  8.078E-02 0.000E+00

     total cpu time spent up to now is    10046.7 secs

     total energy              =  -12707.14502990 Ry
     Harris-Foulkes estimate   =  -12707.14722733 Ry
     estimated scf accuracy    <       0.01622900 Ry

     iteration # 34     ecut=    80.00 Ry     beta=0.70
     Davidson diagonalization with overlap
     ethr =  1.26E-06,  avg # of iterations =  6.0

     negative rho (up, down):  3.469E-02 0.000E+00

     total cpu time spent up to now is    10282.0 secs

     total energy              =  -12707.14498940 Ry
     Harris-Foulkes estimate   =  -12707.14631548 Ry
     estimated scf accuracy    <       0.00337915 Ry

     iteration # 35     ecut=    80.00 Ry     beta=0.70
     Davidson diagonalization with overlap
     c_bands:  4 eigenvalues not converged
     c_bands:  1 eigenvalues not converged
     c_bands:  1 eigenvalues not converged
     ethr =  2.62E-07,  avg # of iterations = 14.0

     negative rho (up, down):  4.116E-02 0.000E+00

     total cpu time spent up to now is    10636.7 secs

     total energy              =  -12707.14542242 Ry
     Harris-Foulkes estimate   =  -12707.14533190 Ry
     estimated scf accuracy    <       0.00123129 Ry

     iteration # 36     ecut=    80.00 Ry     beta=0.70
     Davidson diagonalization with overlap
     ethr =  9.53E-08,  avg # of iterations =  6.2

     negative rho (up, down):  2.118E-02 0.000E+00

     total cpu time spent up to now is    10877.2 secs

     total energy              =  -12707.14515998 Ry
     Harris-Foulkes estimate   =  -12707.14554064 Ry
     estimated scf accuracy    <       0.00042852 Ry

     iteration # 37     ecut=    80.00 Ry     beta=0.70
     Davidson diagonalization with overlap
     ethr =  3.32E-08,  avg # of iterations =  6.2

     negative rho (up, down):  1.152E-02 0.000E+00

     total cpu time spent up to now is    11114.6 secs

     total energy              =  -12707.14497500 Ry
     Harris-Foulkes estimate   =  -12707.14519268 Ry
     estimated scf accuracy    <       0.00020255 Ry

     iteration # 38     ecut=    80.00 Ry     beta=0.70
     Davidson diagonalization with overlap
     c_bands:  1 eigenvalues not converged
     ethr =  1.57E-08,  avg # of iterations =  9.3

     negative rho (up, down):  3.231E-03 0.000E+00

     total cpu time spent up to now is    11395.1 secs

     total energy              =  -12707.14483789 Ry
     Harris-Foulkes estimate   =  -12707.14499690 Ry
     estimated scf accuracy    <       0.00007385 Ry

     iteration # 39     ecut=    80.00 Ry     beta=0.70
     Davidson diagonalization with overlap
     c_bands:  1 eigenvalues not converged
     c_bands:  1 eigenvalues not converged
     ethr =  5.72E-09,  avg # of iterations = 12.3

     negative rho (up, down):  1.809E-03 0.000E+00

     total cpu time spent up to now is    11710.1 secs

     total energy              =  -12707.14484416 Ry
     Harris-Foulkes estimate   =  -12707.14484330 Ry
     estimated scf accuracy    <       0.00000864 Ry

     iteration # 40     ecut=    80.00 Ry     beta=0.70
     Davidson diagonalization with overlap
     ethr =  6.69E-10,  avg # of iterations =  3.7

     negative rho (up, down):  1.759E-03 0.000E+00

     total cpu time spent up to now is    11939.3 secs

     total energy              =  -12707.14484909 Ry
     Harris-Foulkes estimate   =  -12707.14484564 Ry
     estimated scf accuracy    <       0.00000626 Ry

     iteration # 41     ecut=    80.00 Ry     beta=0.70
     Davidson diagonalization with overlap
     ethr =  4.85E-10,  avg # of iterations =  2.2

     negative rho (up, down):  1.728E-03 0.000E+00

     total cpu time spent up to now is    12127.8 secs

     total energy              =  -12707.14485277 Ry
     Harris-Foulkes estimate   =  -12707.14484976 Ry
     estimated scf accuracy    <       0.00000194 Ry

     iteration # 42     ecut=    80.00 Ry     beta=0.70
     Davidson diagonalization with overlap
     ethr =  1.50E-10,  avg # of iterations =  3.2

     negative rho (up, down):  1.921E-03 0.000E+00

     total cpu time spent up to now is    12333.0 secs

     total energy              =  -12707.14485314 Ry
     Harris-Foulkes estimate   =  -12707.14485302 Ry
     estimated scf accuracy    <       0.00000077 Ry

     iteration # 43     ecut=    80.00 Ry     beta=0.70
     Davidson diagonalization with overlap
     ethr =  5.94E-11,  avg # of iterations =  2.7

     negative rho (up, down):  2.066E-03 0.000E+00

     total cpu time spent up to now is    12523.4 secs

     total energy              =  -12707.14485329 Ry
     Harris-Foulkes estimate   =  -12707.14485320 Ry
     estimated scf accuracy    <       0.00000017 Ry

     iteration # 44     ecut=    80.00 Ry     beta=0.70
     Davidson diagonalization with overlap
     ethr =  1.32E-11,  avg # of iterations =  3.3

     negative rho (up, down):  2.064E-03 0.000E+00

     total cpu time spent up to now is    12747.4 secs

     total energy              =  -12707.14485328 Ry
     Harris-Foulkes estimate   =  -12707.14485331 Ry
     estimated scf accuracy    <       0.00000006 Ry

     iteration # 45     ecut=    80.00 Ry     beta=0.70
     Davidson diagonalization with overlap
     ethr =  4.60E-12,  avg # of iterations =  2.7

     negative rho (up, down):  2.099E-03 0.000E+00

     total cpu time spent up to now is    12955.3 secs

     total energy              =  -12707.14485323 Ry
     Harris-Foulkes estimate   =  -12707.14485329 Ry
     estimated scf accuracy    <       0.00000004 Ry

     iteration # 46     ecut=    80.00 Ry     beta=0.70
     Davidson diagonalization with overlap
     ethr =  3.36E-12,  avg # of iterations =  2.2

     negative rho (up, down):  2.121E-03 0.000E+00

     total cpu time spent up to now is    13141.9 secs

     total energy              =  -12707.14485317 Ry
     Harris-Foulkes estimate   =  -12707.14485323 Ry
     estimated scf accuracy    <       0.00000002 Ry

     iteration # 47     ecut=    80.00 Ry     beta=0.70
     Davidson diagonalization with overlap
     ethr =  1.52E-12,  avg # of iterations =  2.7

     negative rho (up, down):  2.118E-03 0.000E+00

     total cpu time spent up to now is    13339.5 secs

     total energy              =  -12707.14485316 Ry
     Harris-Foulkes estimate   =  -12707.14485317 Ry
     estimated scf accuracy    <       0.00000001 Ry

     iteration # 48     ecut=    80.00 Ry     beta=0.70
     Davidson diagonalization with overlap
     ethr =  7.86E-13,  avg # of iterations =  2.0

     negative rho (up, down):  2.115E-03 0.000E+00

     total cpu time spent up to now is    13515.4 secs

     End of self-consistent calculation

          k = 0.0000 0.0000 0.0000 (256287 PWs)   bands (ev):

   -17.2841 -16.2339 -16.0884 -15.4315 -15.0442 -14.7931 -14.6905 -14.2538
   -14.1973 -14.1412 -14.1237 -13.4669 -13.3243 -13.1548 -13.1238 -13.0859
   -13.0819 -11.6720 -11.5335 -11.4855 -11.3887 -11.2066 -10.3539  -9.7719
    -9.7613  -9.6277  -9.5231  -8.9889  -8.7991  -8.6732  -8.6027  -8.0495
    -7.9037  -7.7614  -7.6372  -7.5835  -7.5729  -7.5371  -7.5250  -6.3588
    -6.3513  -6.1258  -6.0219  -6.0210  -5.9486  -5.8906  -5.8594  -5.8444
    -5.4984  -5.4835  -5.3009  -4.8901  -4.8419  -4.7986  -4.6369  -4.6210
    -4.5832  -4.4257  -4.2576  -4.1468  -3.9890  -3.9875  -3.9700  -3.9509
    -3.6183  -3.5501  -3.5334  -3.5209  -3.4210  -3.4184  -3.4065  -3.4000
    -3.2768  -3.1872  -3.1224  -3.0613  -3.0160  -3.0082  -3.0057  -3.0056
    -2.9927  -2.8583  -2.8357  -2.8005  -2.7809  -2.7434  -2.7403  -2.7394
    -2.7196  -2.7128  -2.5335  -2.4326  -2.3772  -2.3765  -2.3391  -2.3359
    -2.1941  -2.1918  -2.1818  -2.1777  -2.1518  -2.1516  -2.1515  -2.1514
    -2.1126  -2.0786  -2.0781  -2.0362  -2.0208  -2.0208  -2.0207  -2.0203
    -1.9605  -1.8415  -1.7767  -1.7424  -1.7385  -1.7377  -1.7374  -1.7021
    -1.6927  -1.6713  -1.6582  -1.6564  -1.6117  -1.5986  -1.5892  -1.5737
    -1.5636  -1.5620  -1.5587  -1.5539  -1.5394  -1.5345  -1.5341  -1.5152
    -1.5137  -1.4550  -1.4407  -1.4269  -1.4154  -1.3849  -1.3818  -1.3774
    -1.3702  -1.3526  -1.2986  -1.2930  -1.2634  -1.2619  -1.2502  -1.2113
    -1.2110  -1.1915  -1.1894  -1.1742  -1.1667  -1.1637  -1.1309  -1.1192
    -1.1109  -1.1065  -1.0491  -1.0466  -1.0355  -1.0288  -1.0265  -1.0247
    -1.0244  -1.0216  -1.0203  -1.0154  -1.0152  -0.9979  -0.9964  -0.9810
    -0.9514  -0.9409  -0.9389  -0.9344  -0.9231  -0.9183  -0.9177  -0.9168
    -0.8985  -0.8591  -0.8580  -0.8567  -0.8559  -0.8553  -0.8538  -0.8534
    -0.8527  -0.8523  -0.8511  -0.8479  -0.8479  -0.8476  -0.8454  -0.8425
    -0.8416  -0.8318  -0.8295  -0.8271  -0.8220  -0.7853  -0.6894  -0.6893
    -0.6865  -0.6829  -0.6827  -0.6598  -0.6583  -0.6412  -0.6410  -0.6194
    -0.6192  -0.6047  -0.6042  -0.6029  -0.6024  -0.5874  -0.5640  -0.5636
    -0.5615  -0.5610  -0.5534  -0.5527  -0.5420  -0.5415  -0.4919  -0.4917
    -0.4378  -0.4376  -0.4273  -0.4258  -0.4254  -0.4242  -0.4103  -0.4101
    -0.4047  -0.4043  -0.4040  -0.4038  -0.3996  -0.3994  -0.3847  -0.3847
    -0.3832  -0.3766  -0.3750  -0.3744  -0.3507  -0.3501  -0.2998  -0.2975
    -0.2963  -0.2908  -0.2906  -0.2641  -0.2641  -0.2640  -0.2640  -0.2493
    -0.2470  -0.2464  -0.2421  -0.2421  -0.2225  -0.2212  -0.2197  -0.2192
    -0.2147  -0.2141  -0.2139  -0.2138  -0.2114  -0.2083  -0.1928  -0.1898
    -0.1890  -0.1877  -0.1871  -0.1678  -0.1204  -0.1198  -0.1181  -0.1175
    -0.1151  -0.0738  -0.0709  -0.0694  -0.0680  -0.0677  -0.0621  -0.0617
    -0.0615  -0.0614  -0.0613  -0.0536  -0.0470  -0.0344  -0.0102  -0.0090
    -0.0078  -0.0074   0.0013   0.0183   0.0213   0.0217   0.0220   0.0269
     0.0304   0.0459   0.0464   0.0479   0.0483   0.0492   0.0499   0.0634
     0.0639   0.0641   0.0643   0.0696   0.0766   0.0770   0.0787   0.1009
     0.1017   0.1286   0.1355   0.1366   0.1581   0.1647   0.1652   0.1898
     0.1936   0.2333   0.2383   0.2387   0.2388   0.2401   0.2436   0.2484
     0.2696   0.2735   0.2741   0.2744   0.2749   0.2844   0.2848   0.2958
     0.3267   0.3411   0.3411   0.3454   0.3499   0.3505   0.3510   0.3778
     0.3831   0.3841   0.3843   0.3847   0.3991   0.4141   0.4155   0.4230
     0.4232   0.4366   0.4387   0.4396   0.4405   0.4777   0.4797   0.4947
     0.4953   0.4969   0.4972   0.4975   0.5093   0.5235   0.5300   0.5314
     0.5340   0.5353   0.5358   0.5360   0.5377   0.5399   0.5473   0.5475
     0.5492   0.5532   0.5545   0.5557   0.5638   0.5644   0.5898   0.5960
     0.6060   0.6061   0.6165   0.6168   0.6492   0.6499   0.6500   0.6509
     0.6530   0.6534   0.6536   0.6544   0.6653   0.6656   0.6742   0.6785
     0.6793   0.6797   0.6803   0.6877   0.6879   0.6974   0.6984   0.7042
     0.7202   0.7207   0.7212   0.7226   0.7309   0.7328   0.7430   0.7465
     0.7486   0.7488   0.7488   0.7525   0.7563   0.7574   0.7580   0.7614
     0.7687   0.7719   0.8062   0.8063   0.8166   0.8178   0.8240   0.8243
     0.8249   0.8253   0.8559   0.8566   0.8700   0.8711   0.8765   0.8765
     0.8911   0.8913   0.9001   0.9009   0.9010   0.9025   0.9094   0.9226
     0.9368   0.9379   0.9394   0.9424   0.9429   0.9438   0.9580   0.9631
     0.9725   0.9780   0.9861   0.9863   0.9973   1.0035   1.0061   1.0107
     1.0118   1.0131   1.0137   1.0145   1.0220   1.0246   1.0265   1.0290
     1.0291   1.0295   1.0309   1.0441   1.0443   1.0627   1.0635   1.0646
     1.0655   1.0705   1.0741   1.1007   1.1049   1.1061   1.1071   1.1090
     1.1101   1.1117   1.1138   1.1177   1.1199   1.1201   1.1201   1.1202
     1.1213   1.1361   1.1363   1.1613   1.1667   1.1835   1.1847   1.1944
     1.2021   1.2032   1.2037   1.2051   1.2057   1.2069   1.2174   1.2206
     1.2261   1.2347   1.2381   1.2400   1.2407   1.2414   1.2452   1.2465
     1.2469   1.2553   1.2738   1.2751   1.2763   1.2769   1.2776   1.2778
     1.2787   1.2790   1.2946   1.2954   1.2962   1.3025   1.3107   1.3108
     1.3119   1.3120   1.3128   1.3219   1.3235   1.3257   1.3373   1.3448
     1.3523   1.3536   1.3560   1.3565   1.3573   1.3594   1.3608   1.3744
     1.3843   1.3870   1.3885   1.3934   1.4032   1.4164   1.4165   1.4225
     1.4230   1.4234   1.4293   1.4304   1.4326   1.4340   1.4348   1.4350
     1.4355   1.4373   1.4386   1.4464   1.4466   1.4505   1.4677   1.4678
     1.4686   1.4688   1.4723   1.4799   1.4810   1.4968   1.5062   1.5094
     1.5113   1.5210   1.5571   1.5580   1.5604   1.5616   1.5790   1.5800
     1.5802   1.5884   1.5911   1.6063   1.6296   1.6318   1.6325   1.6339
     1.6344   1.6435   1.6442   1.6444   1.9004   1.9562   2.1058   2.1085
     2.1487   2.1547   2.2008   2.2060   2.2066   2.2074   2.2164   2.2240
     2.2256   2.2265   2.3973   2.4018   2.4552   2.4651   2.4673   2.4678
     2.4785   2.4812   2.6481   2.7181   2.7248   2.7249   2.7571   2.9736
     2.9850   3.0197   3.1694   3.5206   3.5230   3.8149   3.8183   3.8419
     3.8522   3.8539   3.8558   3.8933   3.9676   3.9755   3.9902   4.0024
     4.0086   4.0088   4.0094   4.0128   4.0147   4.2328   4.2483   4.2509
     4.2527   4.3749   4.4017   4.6526   4.7655   4.8545   4.8687   4.9219
     5.3050   5.3912   5.3981   5.4072   5.7044   5.7106   5.7219   5.7260
     5.9195   5.9295   6.2031   6.3462   6.3488   6.4070   6.4179   6.4715
     6.4754   6.4781   6.4907   6.5826   6.5993   6.6088   6.7136   6.7632
     6.7784   6.7930   6.8025   6.8272   7.0062   7.0427   7.0519   7.0635
     7.0698   7.0928   7.3557   7.3590   7.5102   7.5488   7.5501   7.6947
     7.6967   7.7094   7.7116   8.0016   8.0390   8.0813   8.1532   8.2026
     8.2154   8.2998   8.3059   8.3068   8.3354   8.3374   8.3523   8.3858
     8.4058   8.4484   8.5019   8.5456   8.5636   8.5705   8.6639   8.6659
     8.6680   8.6704   8.8142   8.8161   8.8297   8.8337   8.8390   8.8404
     9.1080   9.1100   9.1112   9.1161   9.1198   9.1409   9.1741   9.3200
     9.3443   9.3502   9.4193   9.4805   9.4901   9.5776   9.5785   9.6622
     9.6705   9.8202   9.8312  10.0435  10.0441  10.1167  10.1455

          k = 0.0000-0.2165 0.0000 (256176 PWs)   bands (ev):

   -17.2836 -16.3023 -15.8963 -15.6604 -15.0763 -14.6788 -14.3588 -14.3380
   -14.2668 -14.2321 -13.8302 -13.7678 -13.7212 -13.6953 -12.6055 -12.4415
   -12.3826 -12.3105 -12.1497 -12.0803 -10.6519 -10.5560 -10.5216 -10.3919
    -9.4618  -9.4367  -9.3040  -9.1218  -8.9856  -8.9575  -8.4060  -8.2845
    -8.2131  -8.1623  -7.4816  -7.3437  -7.0144  -6.9722  -6.9043  -6.8967
    -6.8534  -6.8396  -6.1905  -6.0833  -5.8907  -5.8823  -5.5204  -5.3871
    -5.2922  -5.2125  -5.1401  -4.9645  -4.9112  -4.8409  -4.8381  -4.7424
    -4.6849  -4.6331  -4.6113  -4.4705  -4.1562  -4.0479  -3.8289  -3.6961
    -3.6639  -3.5907  -3.3164  -3.3046  -3.3017  -3.3009  -3.2476  -3.2265
    -3.1412  -3.0944  -3.0674  -3.0472  -3.0399  -3.0307  -3.0051  -2.8973
    -2.8713  -2.8676  -2.8289  -2.7893  -2.7752  -2.7117  -2.6963  -2.6018
    -2.5875  -2.5873  -2.5786  -2.5779  -2.5773  -2.5772  -2.4764  -2.3686
    -2.3378  -2.3321  -2.2518  -2.2504  -2.2477  -2.2450  -2.1489  -2.1449
    -2.1446  -2.1442  -2.0855  -2.0407  -1.9864  -1.9863  -1.9609  -1.9608
    -1.8778  -1.8641  -1.8578  -1.8074  -1.7885  -1.7864  -1.7684  -1.7674
    -1.7494  -1.7493  -1.7404  -1.7404  -1.7224  -1.7222  -1.6452  -1.6450
    -1.6240  -1.5860  -1.5713  -1.5694  -1.5610  -1.4678  -1.4665  -1.4624
    -1.4619  -1.3777  -1.3763  -1.3706  -1.3703  -1.3694  -1.3165  -1.3163
    -1.2795  -1.2790  -1.2746  -1.2743  -1.2720  -1.2719  -1.2536  -1.2481
    -1.2286  -1.2285  -1.2235  -1.2227  -1.2129  -1.2117  -1.1689  -1.1536
    -1.1499  -1.1486  -1.1330  -1.1325  -1.0886  -1.0885  -1.0503  -1.0503
    -1.0472  -1.0470  -1.0038  -1.0029  -0.9838  -0.9832  -0.9824  -0.9820
    -0.9778  -0.9776  -0.9271  -0.9264  -0.9191  -0.9186  -0.9106  -0.9104
    -0.9009  -0.8981  -0.8969  -0.8965  -0.8328  -0.8278  -0.8278  -0.8187
    -0.8182  -0.8180  -0.8171  -0.8148  -0.7955  -0.7952  -0.7817  -0.7807
    -0.7545  -0.7542  -0.7514  -0.7501  -0.6544  -0.6543  -0.6540  -0.6539
    -0.6332  -0.6330  -0.6260  -0.6097  -0.6062  -0.6055  -0.6050  -0.6011
    -0.6011  -0.5752  -0.5748  -0.5734  -0.5412  -0.5411  -0.5401  -0.5399
    -0.5377  -0.5362  -0.5344  -0.5331  -0.5036  -0.5035  -0.4847  -0.4836
    -0.4836  -0.4702  -0.4484  -0.4474  -0.4472  -0.4464  -0.4452  -0.4356
    -0.4355  -0.4352  -0.4347  -0.4156  -0.3953  -0.3571  -0.3570  -0.3568
    -0.3567  -0.3260  -0.3246  -0.3034  -0.3033  -0.3018  -0.2970  -0.2962
    -0.2951  -0.2940  -0.2731  -0.2695  -0.2689  -0.2687  -0.2679  -0.2626
    -0.2518  -0.2476  -0.2468  -0.2465  -0.2457  -0.2431  -0.2429  -0.2333
    -0.2327  -0.2296  -0.2064  -0.2062  -0.2044  -0.2043  -0.1820  -0.1503
    -0.1426  -0.1405  -0.1400  -0.1362  -0.1320  -0.1306  -0.1291  -0.1281
    -0.1244  -0.1179  -0.1068  -0.1022  -0.0882  -0.0879  -0.0860  -0.0857
    -0.0773  -0.0770  -0.0741  -0.0738  -0.0738  -0.0729  -0.0507  -0.0172
    -0.0170  -0.0130  -0.0129   0.0023   0.0036   0.0054   0.0060   0.0114
     0.0115   0.0130   0.0287   0.0295   0.0302   0.0310   0.0418   0.0478
     0.0587   0.0597   0.0757   0.0761   0.0762   0.0766   0.0943   0.0956
     0.1112   0.1112   0.1221   0.1222   0.1348   0.1353   0.1354   0.1363
     0.1798   0.1807   0.1839   0.1845   0.1960   0.1968   0.2018   0.2023
     0.2291   0.2293   0.2612   0.2634   0.2653   0.2668   0.3004   0.3005
     0.3138   0.3344   0.3854   0.3863   0.3870   0.3871   0.3931   0.4130
     0.4130   0.4136   0.4144   0.4256   0.4412   0.4477   0.4538   0.4548
     0.4553   0.4553   0.4567   0.4569   0.4616   0.4665   0.4771   0.4784
     0.4790   0.4791   0.4810   0.4820   0.4834   0.4850   0.5164   0.5165
     0.5276   0.5281   0.5284   0.5285   0.5362   0.5362   0.5443   0.5567
     0.5570   0.5576   0.5581   0.5582   0.5586   0.5587   0.5594   0.5610
     0.5817   0.5821   0.5833   0.5839   0.5839   0.5849   0.5855   0.5856
     0.6017   0.6019   0.6447   0.6453   0.6570   0.6572   0.6668   0.6681
     0.6689   0.6696   0.6754   0.6758   0.6764   0.6767   0.6821   0.6825
     0.6835   0.6835   0.7240   0.7245   0.7246   0.7247   0.7398   0.7417
     0.7418   0.7423   0.7437   0.7447   0.7552   0.7587   0.7753   0.7757
     0.7800   0.7813   0.7824   0.7826   0.8342   0.8349   0.8852   0.8860
     0.8914   0.8930   0.8942   0.8945   0.9035   0.9044   0.9108   0.9110
     0.9170   0.9177   0.9230   0.9246   0.9261   0.9268   0.9373   0.9388
     0.9412   0.9415   0.9422   0.9428   0.9515   0.9551   0.9622   0.9667
     0.9667   0.9682   0.9691   0.9710   0.9711   0.9744   0.9778   0.9780
     0.9894   0.9895   0.9907   0.9920   0.9930   0.9935   1.0112   1.0116
     1.0220   1.0244   1.0257   1.0275   1.0292   1.0299   1.0387   1.0388
     1.0398   1.0399   1.0405   1.0408   1.0838   1.0892   1.1027   1.1128
     1.1275   1.1276   1.1420   1.1438   1.1489   1.1533   1.1547   1.1565
     1.1702   1.1705   1.1847   1.1864   1.1923   1.1932   1.1955   1.1962
     1.1979   1.1980   1.1988   1.1995   1.2006   1.2021   1.2027   1.2036
     1.2104   1.2106   1.2219   1.2246   1.2291   1.2308   1.2313   1.2317
     1.2397   1.2413   1.2670   1.2699   1.2700   1.2702   1.2767   1.2769
     1.2792   1.2799   1.2928   1.2954   1.2966   1.2969   1.3102   1.3109
     1.3128   1.3144   1.3148   1.3156   1.3318   1.3326   1.3334   1.3339
     1.3516   1.3520   1.3529   1.3548   1.3710   1.3727   1.3780   1.3792
     1.3798   1.3803   1.3952   1.3952   1.3954   1.3955   1.4121   1.4128
     1.4264   1.4266   1.4268   1.4288   1.4467   1.4472   1.4489   1.4495
     1.4502   1.4502   1.4511   1.4515   1.4792   1.4792   1.4872   1.4878
     1.4942   1.4968   1.5002   1.5056   1.5188   1.5193   1.5196   1.5202
     1.5288   1.5289   1.5411   1.5412   1.5819   1.5855   1.5878   1.5884
     1.6735   1.6892   1.6939   1.7133   1.7167   1.7292   1.7306   1.7340
     1.7836   1.7867   1.7921   1.7933   1.8049   1.8127   1.8132   1.8138
     1.8535   1.8535   1.8888   2.0579   2.0633   2.0976   2.4121   2.4147
     2.4193   2.4194   2.4960   2.4985   2.5575   2.5622   2.5649   2.5661
     2.5806   2.5815   2.7092   2.7113   2.7570   2.7607   2.7797   2.7803
     2.9234   2.9245   3.1697   3.1699   3.1738   3.1861   3.3943   3.4153
     3.5892   3.6704   3.6800   3.9061   3.9178   3.9627   4.0877   4.1010
     4.1068   4.1143   4.3225   4.3259   4.3270   4.3278   4.4966   4.5000
     4.6621   4.6905   4.7661   4.7704   4.9129   5.0728   5.0984   5.1023
     5.3074   5.3581   5.3590   5.3597   5.3609   5.4296   5.5216   5.6539
     5.6749   5.7218   5.7672   5.8195   6.3796   6.3890   6.4235   6.4304
     6.4390   6.4450   6.5456   6.5571   6.6625   6.6680   6.8079   6.8099
     6.9685   7.0237   7.0286   7.0407   7.0765   7.0809   7.1155   7.1222
     7.1335   7.1344   7.2357   7.3379   7.3439   7.3800   7.3934   7.4282
     7.5205   7.6007   7.6973   7.6997   7.7364   7.7588   8.1435   8.1442
     8.3269   8.3567   8.3710   8.4238   8.4273   8.4284   8.4328   8.4480
     8.4497   8.4811   8.6406   8.6495   8.7118   8.7141   8.7188   8.7204
     8.7581   8.7632   8.8732   8.9163   8.9294   9.0207   9.0238   9.0563
     9.1465   9.1512   9.2370   9.2390   9.2815   9.3152   9.3852   9.3857
     9.3870   9.3871   9.4590   9.4603   9.4817   9.4831   9.4908   9.4922
     9.6630   9.6669   9.7863   9.7879   9.8151   9.8896   9.8899

          k = 0.2500 0.0000 0.0000 (256240 PWs)   bands (ev):

   -17.2327 -16.1276 -15.9655 -15.6645 -15.1437 -15.0054 -14.9461 -14.8946
   -14.1130 -13.9543 -13.7725 -13.2467 -13.1739 -13.0926 -13.0447 -12.3486
   -12.2335 -12.1513 -12.0805 -11.2388 -11.1411 -10.7891 -10.6723 -10.3605
   -10.2283  -9.9558  -9.9039  -9.5086  -9.2554  -9.1596  -8.6810  -7.9938
    -7.7990  -7.7312  -7.5645  -7.5438  -7.4467  -7.0945  -6.9773  -6.3015
    -6.2208  -6.0444  -5.9693  -5.9153  -5.8416  -5.4550  -5.3306  -5.3104
    -5.3018  -5.1697  -4.9245  -4.7458  -4.6346  -4.5438  -4.4674  -4.4651
    -4.4619  -4.4266  -4.3733  -4.2295  -4.1392  -4.0015  -3.9995  -3.9971
    -3.9103  -3.8450  -3.8403  -3.8126  -3.7955  -3.6264  -3.6021  -3.5750
    -3.5252  -3.4825  -3.4065  -3.4039  -3.2790  -3.2347  -3.2137  -3.1982
    -3.1424  -3.0366  -2.9573  -2.8956  -2.7999  -2.7985  -2.7912  -2.7528
    -2.6555  -2.6268  -2.6213  -2.5072  -2.4010  -2.3956  -2.3469  -2.3373
    -2.1317  -2.0989  -2.0971  -2.0819  -2.0801  -2.0590  -2.0037  -1.9899
    -1.9814  -1.8983  -1.8944  -1.8415  -1.8036  -1.8014  -1.8002  -1.7938
    -1.7932  -1.7857  -1.7735  -1.7458  -1.7348  -1.7242  -1.7195  -1.7167
    -1.7124  -1.6534  -1.6465  -1.6032  -1.5898  -1.5828  -1.5808  -1.5782
    -1.5780  -1.5776  -1.5484  -1.5249  -1.5157  -1.5037  -1.5019  -1.4906
    -1.4889  -1.3723  -1.3359  -1.3293  -1.3128  -1.2778  -1.2693  -1.2587
    -1.2438  -1.2429  -1.2377  -1.2359  -1.2301  -1.2199  -1.2075  -1.1994
    -1.1913  -1.1849  -1.1834  -1.1780  -1.1582  -1.1405  -1.1356  -1.1338
    -1.1334  -1.1314  -1.1166  -1.1115  -1.1108  -1.0910  -1.0766  -1.0669
    -1.0513  -1.0492  -1.0466  -1.0464  -1.0417  -1.0209  -1.0133  -1.0117
    -1.0036  -1.0014  -0.9963  -0.9924  -0.9818  -0.9811  -0.9810  -0.9800
    -0.9758  -0.9755  -0.9642  -0.9541  -0.9524  -0.9470  -0.9453  -0.9400
    -0.9203  -0.9017  -0.9005  -0.8956  -0.8527  -0.8519  -0.8161  -0.8160
    -0.7968  -0.7955  -0.7861  -0.7707  -0.7706  -0.7573  -0.7542  -0.7522
    -0.7498  -0.7425  -0.7414  -0.7221  -0.6073  -0.6021  -0.5992  -0.5971
    -0.5682  -0.5674  -0.5664  -0.5507  -0.5498  -0.5493  -0.5479  -0.5367
    -0.5302  -0.5267  -0.5266  -0.5242  -0.5180  -0.5059  -0.4947  -0.4880
    -0.4848  -0.4845  -0.4817  -0.4809  -0.4605  -0.4605  -0.4572  -0.4013
    -0.3993  -0.3993  -0.3976  -0.3911  -0.3893  -0.3853  -0.3802  -0.3756
    -0.3563  -0.3562  -0.3419  -0.3332  -0.3328  -0.3313  -0.3281  -0.3070
    -0.2947  -0.2946  -0.2918  -0.2897  -0.2814  -0.2804  -0.2707  -0.2698
    -0.2646  -0.2590  -0.2477  -0.2382  -0.2297  -0.2177  -0.2024  -0.1988
    -0.1984  -0.1961  -0.1901  -0.1814  -0.1800  -0.1798  -0.1782  -0.1635
    -0.1522  -0.1518  -0.1485  -0.1392  -0.1371  -0.1290  -0.1125  -0.1106
    -0.1104  -0.0658  -0.0637  -0.0630  -0.0559  -0.0546  -0.0448  -0.0300
    -0.0190  -0.0178  -0.0122  -0.0118  -0.0109  -0.0063  -0.0002   0.0020
     0.0043   0.0055   0.0061   0.0076   0.0084   0.0130   0.0296   0.0333
     0.0338   0.0374   0.0401   0.0453   0.0589   0.0593   0.0709   0.0754
     0.0772   0.0926   0.1143   0.1148   0.1168   0.1170   0.1187   0.1351
     0.1388   0.1414   0.1419   0.1423   0.1425   0.1639   0.1772   0.1797
     0.1915   0.2537   0.2539   0.2552   0.2668   0.2705   0.2743   0.2752
     0.2772   0.2779   0.2826   0.2829   0.2844   0.2860   0.2879   0.2890
     0.2955   0.3048   0.3070   0.3074   0.3088   0.3209   0.3215   0.3265
     0.3291   0.3338   0.3359   0.3574   0.3603   0.3615   0.3734   0.3900
     0.3966   0.4054   0.4140   0.4250   0.4253   0.4434   0.4436   0.4441
     0.4473   0.4564   0.4601   0.4774   0.4801   0.4808   0.4855   0.4858
     0.4909   0.4920   0.4961   0.4964   0.5170   0.5221   0.5240   0.5332
     0.5402   0.5446   0.5448   0.5510   0.5516   0.5519   0.5552   0.5556
     0.5744   0.5797   0.5800   0.5917   0.5928   0.5935   0.5944   0.5968
     0.6101   0.6105   0.6136   0.6179   0.6182   0.6373   0.6379   0.6531
     0.6573   0.6624   0.6640   0.6649   0.6693   0.6721   0.6770   0.6913
     0.7012   0.7051   0.7241   0.7291   0.7408   0.7409   0.7452   0.7454
     0.7500   0.7587   0.7659   0.7712   0.7742   0.7786   0.7789   0.7865
     0.7894   0.8013   0.8031   0.8084   0.8154   0.8245   0.8248   0.8255
     0.8491   0.8515   0.8556   0.8564   0.8575   0.8794   0.8808   0.8912
     0.8930   0.8932   0.8942   0.8947   0.8999   0.9040   0.9056   0.9066
     0.9183   0.9383   0.9467   0.9518   0.9538   0.9547   0.9551   0.9680
     0.9700   0.9897   0.9909   0.9920   0.9931   0.9996   1.0010   1.0023
     1.0161   1.0170   1.0185   1.0190   1.0222   1.0223   1.0235   1.0256
     1.0269   1.0296   1.0330   1.0337   1.0387   1.0449   1.0559   1.0590
     1.0608   1.0637   1.0673   1.0692   1.0693   1.0762   1.0768   1.0902
     1.0907   1.1032   1.1075   1.1079   1.1085   1.1117   1.1218   1.1282
     1.1344   1.1364   1.1373   1.1430   1.1484   1.1522   1.1573   1.1577
     1.1592   1.1700   1.1839   1.1894   1.1904   1.1920   1.1928   1.2256
     1.2301   1.2358   1.2388   1.2425   1.2451   1.2519   1.2531   1.2532
     1.2545   1.2607   1.2625   1.2743   1.2756   1.2776   1.2794   1.2795
     1.2960   1.2970   1.3007   1.3009   1.3061   1.3108   1.3121   1.3140
     1.3156   1.3164   1.3176   1.3223   1.3240   1.3246   1.3326   1.3372
     1.3445   1.3490   1.3509   1.3516   1.3558   1.3560   1.3602   1.3633
     1.3731   1.3801   1.3804   1.3815   1.4035   1.4038   1.4122   1.4173
     1.4185   1.4226   1.4231   1.4251   1.4269   1.4271   1.4337   1.4342
     1.4349   1.4406   1.4410   1.4453   1.4609   1.4630   1.4638   1.4653
     1.4658   1.4697   1.4701   1.4828   1.4833   1.4908   1.4931   1.4989
     1.5061   1.5066   1.5086   1.5127   1.5145   1.5179   1.5459   1.5483
     1.5527   1.5758   1.5818   1.6236   1.6247   1.6284   1.6378   1.6551
     1.6658   1.7399   1.7544   1.7619   1.7627   1.7822   1.7939   1.7996
     1.8369   1.9594   2.0306   2.0617   2.0684   2.0810   2.0856   2.0870
     2.1893   2.2480   2.2532   2.5598   2.5621   2.5637   2.5666   2.9753
     2.9755   3.0082   3.1931   3.1935   3.2180   3.2180   3.2664   3.2776
     3.4536   3.4674   3.5615   3.5798   3.5997   3.6279   3.6571   3.6986
     3.7077   3.7173   3.7228   3.7841   3.8689   3.8710   3.9679   3.9696
     4.0519   4.1787   4.1832   4.1917   4.2802   4.3331   4.4121   4.5451
     4.7528   4.8186   4.8263   5.1033   5.1564   5.2180   5.2183   5.2286
     5.2592   5.3519   5.4605   5.4664   5.5062   5.5482   5.5776   5.5963
     5.6471   5.6759   5.6831   5.7323   5.7346   5.8015   5.8230   5.8266
     6.0082   6.0096   6.0230   6.0417   6.4062   6.6251   6.6726   6.6963
     6.7006   6.7470   6.7553   6.7783   6.8661   6.9311   7.0147   7.0348
     7.0506   7.0521   7.0684   7.2294   7.2429   7.2994   7.3042   7.4966
     7.5128   7.5191   7.5547   7.5702   7.6778   7.7596   7.7644   7.7943
     7.9886   8.0060   8.0301   8.0619   8.0863   8.1838   8.2043   8.2101
     8.2523   8.2646   8.3124   8.3129   8.3907   8.3997   8.4432   8.4715
     8.6443   8.6454   8.9427   8.9576   8.9842   8.9872   9.0062   9.1434
     9.1707   9.1883   9.2108   9.2223   9.2291   9.2543   9.2700   9.3372
     9.3993   9.4068   9.4417   9.4432   9.4835   9.5117   9.6369   9.6779
     9.7157   9.7196   9.8244   9.8324   9.8371   9.8494   9.9420

          k = 0.2500-0.2165 0.0000 (256316 PWs)   bands (ev):

   -17.2324 -16.1784 -15.8754 -15.5404 -15.4597 -15.1908 -14.7126 -14.5646
   -14.2566 -14.1164 -13.7235 -13.2676 -13.2532 -13.1612 -12.7672 -12.6634
   -12.1517 -12.0261 -11.5137 -11.4323 -11.2842 -11.1261 -10.9636 -10.6227
    -9.8692  -9.7865  -9.3914  -9.3592  -9.1036  -9.0513  -8.6790  -8.6252
    -8.4730  -8.4251  -7.3048  -7.0292  -6.8315  -6.6719  -6.6001  -6.5030
    -6.4505  -6.3183  -6.0849  -6.0324  -5.7136  -5.7041  -5.4279  -5.2569
    -5.1710  -5.0706  -4.9354  -4.8018  -4.6777  -4.6746  -4.5443  -4.5424
    -4.4805  -4.3492  -4.3456  -4.3164  -4.1869  -4.1622  -4.1490  -4.0531
    -3.9017  -3.7742  -3.7629  -3.7385  -3.5852  -3.5616  -3.5015  -3.4594
    -3.4579  -3.4552  -3.3626  -3.2928  -3.2546  -3.1953  -3.1424  -3.1035
    -3.0309  -2.9451  -2.9409  -2.9242  -2.9108  -2.9089  -2.8634  -2.8165
    -2.6943  -2.6565  -2.6059  -2.5053  -2.3354  -2.3135  -2.3117  -2.2687
    -2.1865  -2.1808  -2.1685  -2.1684  -2.1041  -2.0696  -2.0096  -2.0093
    -1.9778  -1.9769  -1.9719  -1.9688  -1.8933  -1.8298  -1.8221  -1.8128
    -1.8127  -1.7808  -1.7601  -1.7522  -1.7329  -1.7237  -1.7210  -1.7096
    -1.7093  -1.6929  -1.6787  -1.6774  -1.6762  -1.6760  -1.6671  -1.6669
    -1.5821  -1.5819  -1.5551  -1.4688  -1.4668  -1.3769  -1.3688  -1.3665
    -1.3619  -1.3299  -1.3296  -1.2774  -1.2772  -1.2693  -1.2625  -1.2625
    -1.2493  -1.2487  -1.2413  -1.2398  -1.2250  -1.2243  -1.2129  -1.2127
    -1.2113  -1.2036  -1.2002  -1.1988  -1.1871  -1.1869  -1.1719  -1.1333
    -1.1306  -1.1268  -1.1254  -1.1203  -1.1154  -1.1140  -1.1116  -1.0936
    -1.0831  -1.0815  -1.0396  -1.0394  -1.0356  -1.0295  -1.0262  -1.0238
    -0.9962  -0.9961  -0.9733  -0.9723  -0.9619  -0.9615  -0.9611  -0.9561
    -0.9555  -0.9532  -0.9487  -0.9354  -0.9240  -0.9238  -0.9122  -0.9050
    -0.8834  -0.8680  -0.8677  -0.8624  -0.8618  -0.8258  -0.7780  -0.7779
    -0.7737  -0.7736  -0.7705  -0.7693  -0.7231  -0.7216  -0.7152  -0.7123
    -0.7117  -0.7060  -0.7059  -0.6942  -0.6937  -0.6783  -0.6528  -0.6520
    -0.6151  -0.6146  -0.5820  -0.5685  -0.5663  -0.5663  -0.5632  -0.5607
    -0.5336  -0.5331  -0.5209  -0.5202  -0.5017  -0.5007  -0.4928  -0.4895
    -0.4884  -0.4740  -0.4602  -0.4580  -0.4513  -0.4500  -0.4427  -0.4426
    -0.4107  -0.4079  -0.4077  -0.3961  -0.3938  -0.3871  -0.3818  -0.3805
    -0.3679  -0.3674  -0.3631  -0.3629  -0.3573  -0.3558  -0.3517  -0.3516
    -0.3338  -0.3336  -0.3174  -0.3173  -0.2942  -0.2889  -0.2758  -0.2735
    -0.2615  -0.2567  -0.2399  -0.2398  -0.2352  -0.2308  -0.2178  -0.2173
    -0.2130  -0.2127  -0.1894  -0.1808  -0.1585  -0.1540  -0.1530  -0.1179
    -0.1176  -0.1089  -0.1088  -0.1047  -0.1040  -0.0873  -0.0873  -0.0846
    -0.0701  -0.0697  -0.0592  -0.0564  -0.0485  -0.0477  -0.0427  -0.0424
    -0.0406  -0.0399  -0.0151  -0.0134  -0.0127  -0.0054  -0.0040  -0.0029
    -0.0024  -0.0011  -0.0005   0.0009   0.0063   0.0073   0.0283   0.0316
     0.0317   0.0318   0.0320   0.0654   0.0657   0.0738   0.0738   0.0760
     0.0776   0.0978   0.0999   0.1050   0.1209   0.1304   0.1318   0.1319
     0.1405   0.1413   0.1519   0.1522   0.1551   0.1558   0.1690   0.1692
     0.1755   0.1763   0.2048   0.2052   0.2678   0.2691   0.2813   0.2817
     0.2828   0.2834   0.2848   0.2870   0.2877   0.2887   0.2924   0.2934
     0.3108   0.3171   0.3172   0.3196   0.3203   0.3272   0.3297   0.3314
     0.3345   0.3345   0.3660   0.3671   0.3794   0.3814   0.3825   0.3949
     0.3995   0.4022   0.4175   0.4430   0.4439   0.4492   0.4512   0.4547
     0.4575   0.4577   0.4691   0.4692   0.4759   0.4787   0.4803   0.4807
     0.4815   0.4820   0.4998   0.5125   0.5136   0.5182   0.5204   0.5345
     0.5347   0.5492   0.5668   0.5672   0.5679   0.5692   0.5993   0.6011
     0.6038   0.6041   0.6076   0.6086   0.6123   0.6146   0.6247   0.6266
     0.6274   0.6295   0.6335   0.6364   0.6482   0.6485   0.6590   0.6600
     0.6681   0.6682   0.6710   0.6712   0.6782   0.6799   0.6817   0.6866
     0.6890   0.6893   0.7023   0.7056   0.7098   0.7109   0.7161   0.7163
     0.7185   0.7191   0.7207   0.7216   0.7547   0.7559   0.7668   0.7677
     0.7838   0.7886   0.8032   0.8067   0.8231   0.8235   0.8248   0.8248
     0.8306   0.8308   0.8418   0.8537   0.8539   0.8542   0.8543   0.8554
     0.8559   0.8631   0.8697   0.8778   0.8829   0.8834   0.8916   0.8951
     0.8992   0.9050   0.9206   0.9286   0.9287   0.9394   0.9510   0.9520
     0.9578   0.9599   0.9643   0.9647   0.9711   0.9712   0.9754   0.9894
     1.0000   1.0030   1.0113   1.0169   1.0184   1.0258   1.0317   1.0378
     1.0462   1.0591   1.0614   1.0642   1.0792   1.0805   1.0864   1.0870
     1.0893   1.0896   1.0909   1.0910   1.0952   1.0954   1.1048   1.1055
     1.1132   1.1156   1.1163   1.1182   1.1357   1.1371   1.1616   1.1656
     1.1662   1.1695   1.1704   1.1735   1.1744   1.1753   1.1810   1.1842
     1.1856   1.1898   1.1907   1.1916   1.1961   1.1986   1.2005   1.2020
     1.2084   1.2092   1.2175   1.2207   1.2234   1.2234   1.2244   1.2248
     1.2363   1.2371   1.2445   1.2452   1.2672   1.2694   1.2775   1.2780
     1.2817   1.2920   1.2935   1.2961   1.3047   1.3099   1.3107   1.3127
     1.3190   1.3219   1.3307   1.3310   1.3347   1.3366   1.3432   1.3456
     1.3476   1.3479   1.3566   1.3598   1.3603   1.3694   1.3789   1.3811
     1.3813   1.3814   1.3863   1.3872   1.3915   1.3919   1.3963   1.4051
     1.4052   1.4092   1.4103   1.4176   1.4199   1.4212   1.4292   1.4335
     1.4372   1.4374   1.4374   1.4414   1.4441   1.4442   1.4450   1.4488
     1.4534   1.4535   1.4782   1.4782   1.4858   1.4861   1.4956   1.5006
     1.5129   1.5193   1.5255   1.5267   1.5279   1.5496   1.5500   1.5567
     1.5570   1.5793   1.5821   1.5890   1.6163   1.6457   1.6618   1.6630
     1.7097   1.7486   1.7578   1.7626   1.7713   1.7814   1.7855   1.7861
     1.7862   1.8111   1.8356   1.8432   2.1246   2.1250   2.1559   2.1570
     2.2820   2.2865   2.5821   2.5830   2.7784   2.7831   2.7867   2.7875
     2.7965   2.7999   2.8285   2.8317   2.9804   2.9817   3.0685   3.0790
     3.5223   3.5356   3.5947   3.6043   3.6527   3.6748   3.7685   3.8355
     3.8410   3.8439   3.8655   3.9894   3.9943   4.0577   4.0867   4.1595
     4.1617   4.3259   4.3719   4.3731   4.4232   4.5432   4.5458   4.6125
     4.6639   4.6794   4.7081   4.7216   4.9171   4.9254   4.9961   5.0075
     5.0197   5.1285   5.2610   5.2790   5.3925   5.4351   5.4395   5.4510
     5.4529   5.4725   5.7437   5.7575   5.8104   5.8806   5.8956   5.9483
     5.9552   5.9707   6.5742   6.5891   6.6053   6.6139   6.7307   6.7462
     6.7952   6.8529   6.8702   7.0252   7.0298   7.0466   7.0707   7.0885
     7.0983   7.1086   7.1911   7.2116   7.2151   7.3218   7.3274   7.3293
     7.3321   7.3982   7.4367   7.4379   7.6607   7.6642   7.7573   7.7866
     7.7895   7.8641   7.9751   7.9822   8.1769   8.1907   8.2358   8.2459
     8.2651   8.3893   8.5807   8.5834   8.5949   8.6045   8.6364   8.6385
     8.7041   8.7052   8.8014   8.8142   8.9005   8.9107   8.9384   8.9434
     9.0649   9.1041   9.1330   9.1461   9.1703   9.1806   9.1887   9.2102
     9.2194   9.2649   9.2683   9.3000   9.3431   9.3528   9.4264   9.4423
     9.4473   9.4787   9.6264   9.6275   9.9557   9.9595   9.9682

          k =-0.5000 0.0000 0.0000 (256496 PWs)   bands (ev):

   -17.1716 -16.0108 -15.7424 -15.6302 -15.6084 -15.5602 -14.8138 -14.6189
   -14.5143 -14.4816 -13.2099 -12.9071 -12.7653 -12.7016 -12.4585 -12.4358
   -11.9124 -11.8909 -11.8083 -11.8000 -11.2445 -11.2067 -10.9824 -10.7503
   -10.3359 -10.3038 -10.0813  -9.7618  -9.1495  -9.1466  -8.9793  -8.9447
    -7.8211  -7.6366  -7.5891  -7.4109  -7.3681  -7.3453  -6.3091  -6.2283
    -5.8453  -5.3258  -5.3211  -5.3088  -5.1448  -4.9967  -4.9700  -4.8660
    -4.8084  -4.8037  -4.8025  -4.8012  -4.7778  -4.7625  -4.7388  -4.6910
    -4.6676  -4.5465  -4.5417  -4.4731  -4.3811  -4.3769  -4.2929  -4.0560
    -4.0166  -3.9975  -3.9704  -3.9611  -3.6913  -3.6769  -3.6035  -3.5742
    -3.5727  -3.5558  -3.4283  -3.4206  -3.4197  -3.4186  -3.4184  -3.4116
    -3.3763  -3.3648  -2.9462  -2.9363  -2.8974  -2.8544  -2.8123  -2.7886
    -2.7661  -2.7602  -2.6234  -2.6090  -2.5673  -2.4793  -2.4505  -2.4397
    -2.3079  -2.3038  -2.3019  -2.3010  -1.8793  -1.8789  -1.8786  -1.8783
    -1.8765  -1.8764  -1.8653  -1.8168  -1.7801  -1.7593  -1.7564  -1.7552
    -1.6870  -1.6512  -1.6504  -1.6502  -1.6502  -1.6025  -1.6022  -1.6011
    -1.6009  -1.5118  -1.5058  -1.4889  -1.4880  -1.4876  -1.4760  -1.4553
    -1.4317  -1.4256  -1.4253  -1.4249  -1.4066  -1.4063  -1.3581  -1.3573
    -1.3562  -1.3541  -1.3535  -1.3423  -1.3413  -1.3411  -1.3392  -1.3373
    -1.2944  -1.2921  -1.2914  -1.2907  -1.2699  -1.2681  -1.2676  -1.2674
    -1.2320  -1.2045  -1.2044  -1.1828  -1.1826  -1.1821  -1.1819  -1.1585
    -1.1554  -1.1541  -1.1522  -1.1510  -1.1505  -1.1505  -1.1081  -1.1078
    -1.1069  -1.1067  -1.0859  -1.0857  -1.0742  -1.0565  -1.0556  -1.0553
    -1.0093  -1.0093  -1.0074  -0.9811  -0.9810  -0.9795  -0.9793  -0.9547
    -0.9532  -0.9526  -0.9512  -0.9478  -0.9456  -0.9439  -0.9316  -0.9314
    -0.9293  -0.9291  -0.9040  -0.9024  -0.8923  -0.8405  -0.8396  -0.8383
    -0.8379  -0.7945  -0.7945  -0.7155  -0.7117  -0.7116  -0.7109  -0.7075
    -0.6912  -0.6767  -0.6729  -0.6728  -0.6719  -0.6719  -0.6662  -0.6628
    -0.6388  -0.6337  -0.6310  -0.6294  -0.6234  -0.6179  -0.6119  -0.6020
    -0.6007  -0.5991  -0.5718  -0.5297  -0.5193  -0.5114  -0.4852  -0.4718
    -0.4664  -0.4644  -0.4563  -0.4562  -0.4313  -0.4162  -0.4133  -0.4099
    -0.4061  -0.4059  -0.4045  -0.4042  -0.3926  -0.3815  -0.3681  -0.3679
    -0.3678  -0.3676  -0.3292  -0.3291  -0.3283  -0.3282  -0.3119  -0.2956
    -0.2955  -0.2954  -0.2949  -0.2839  -0.2839  -0.2529  -0.2510  -0.2510
    -0.2496  -0.2495  -0.2463  -0.2409  -0.2228  -0.2117  -0.2040  -0.2007
    -0.1752  -0.1367  -0.1356  -0.1347  -0.1337  -0.1287  -0.1286  -0.1278
    -0.1275  -0.0882  -0.0882  -0.0870  -0.0860  -0.0664  -0.0523  -0.0516
    -0.0257  -0.0256  -0.0236  -0.0234  -0.0219  -0.0216  -0.0210  -0.0206
    -0.0198  -0.0198  -0.0196  -0.0188   0.0559   0.0573   0.0605   0.0640
     0.0658   0.0671   0.0722   0.0724   0.0727   0.0728   0.0775   0.0778
     0.0798   0.0799   0.0831   0.0842   0.0874   0.0886   0.1022   0.1022
     0.1141   0.1163   0.1167   0.1168   0.1169   0.1170   0.1197   0.1275
     0.1281   0.1282   0.1284   0.1409   0.1411   0.1428   0.1530   0.1531
     0.1537   0.1538   0.1727   0.1832   0.1838   0.1936   0.2553   0.2562
     0.2860   0.2861   0.2881   0.2882   0.3190   0.3195   0.3201   0.3206
     0.3346   0.3348   0.3401   0.3403   0.3448   0.3451   0.3455   0.3463
     0.3490   0.3506   0.3515   0.3522   0.3524   0.3530   0.3667   0.3670
     0.3745   0.3756   0.3798   0.3822   0.3893   0.3899   0.3954   0.3956
     0.4020   0.4024   0.4331   0.4382   0.4909   0.4920   0.4920   0.4926
     0.4991   0.5010   0.5216   0.5236   0.5260   0.5264   0.5278   0.5291
     0.5295   0.5301   0.5326   0.5333   0.5344   0.5352   0.5374   0.5377
     0.5439   0.5452   0.5453   0.5459   0.5631   0.5661   0.5819   0.5835
     0.5843   0.6012   0.6040   0.6095   0.6169   0.6185   0.6211   0.6220
     0.6305   0.6308   0.6311   0.6314   0.6336   0.6340   0.6470   0.6477
     0.6511   0.6516   0.6668   0.6680   0.6687   0.6690   0.7057   0.7061
     0.7067   0.7068   0.7073   0.7075   0.7251   0.7256   0.7497   0.7557
     0.7659   0.7665   0.7676   0.7676   0.7677   0.7680   0.7909   0.8086
     0.8315   0.8345   0.8386   0.8394   0.8401   0.8405   0.8425   0.8445
     0.8514   0.8524   0.8529   0.8532   0.8629   0.8644   0.8772   0.8850
     0.8851   0.8867   0.8868   0.8936   0.9056   0.9059   0.9064   0.9066
     0.9076   0.9077   0.9438   0.9455   0.9461   0.9464   0.9666   0.9935
     1.0116   1.0122   1.0129   1.0132   1.0395   1.0454   1.0465   1.0466
     1.0477   1.0496   1.0652   1.0658   1.0753   1.0767   1.0778   1.0862
     1.0872   1.0925   1.1076   1.1107   1.1156   1.1159   1.1163   1.1167
     1.1238   1.1243   1.1251   1.1257   1.1349   1.1350   1.1357   1.1365
     1.1377   1.1381   1.1384   1.1386   1.1726   1.1744   1.1757   1.1757
     1.1886   1.1976   1.2044   1.2058   1.2107   1.2115   1.2119   1.2124
     1.2296   1.2306   1.2361   1.2405   1.2409   1.2413   1.2447   1.2508
     1.2511   1.2518   1.2520   1.2561   1.2593   1.2666   1.2714   1.2759
     1.2983   1.2988   1.3106   1.3134   1.3143   1.3145   1.3147   1.3148
     1.3148   1.3149   1.3242   1.3271   1.3283   1.3285   1.3290   1.3295
     1.3309   1.3311   1.3351   1.3363   1.3413   1.3416   1.3421   1.3422
     1.3492   1.3494   1.3642   1.3643   1.3793   1.3825   1.3833   1.3844
     1.3914   1.3916   1.3927   1.3931   1.4070   1.4095   1.4132   1.4133
     1.4286   1.4287   1.4338   1.4353   1.4399   1.4476   1.4479   1.4480
     1.4488   1.4659   1.4673   1.4689   1.4698   1.4709   1.4785   1.4787
     1.4791   1.4792   1.4857   1.4890   1.4978   1.4983   1.5126   1.5127
     1.5129   1.5130   1.5132   1.5249   1.5261   1.5262   1.5742   1.5765
     1.5988   1.6061   1.6062   1.6105   1.6108   1.6222   2.0249   2.0277
     2.0292   2.0296   2.2313   2.2329   2.2473   2.2510   2.2834   2.2836
     2.2901   2.2907   2.6052   2.6136   2.6155   2.6172   2.8256   2.8281
     2.8318   2.8336   3.1819   3.1830   3.1861   3.1861   3.4648   3.4680
     3.7289   3.7512   3.7535   3.7548   3.8489   3.9168   3.9203   3.9225
     3.9621   4.0672   4.0696   4.0718   4.0780   4.1786   4.1845   4.3857
     4.3983   4.4810   4.7313   4.7376   4.7450   4.7496   4.8121   4.8236
     4.8248   4.8536   4.9297   5.0191   5.0201   5.0327   5.0402   5.0465
     5.0477   5.0506   5.0700   5.0710   5.0946   5.1027   5.1543   5.1564
     5.4789   5.5107   5.5322   5.5350   5.6480   5.6614   5.7549   5.8263
     5.9856   5.9901   5.9916   6.0001   6.0259   6.0327   6.0414   6.0436
     6.1830   6.3887   6.4215   6.4303   6.4322   6.4484   6.4538   6.4690
     7.0907   7.0933   7.1035   7.1067   7.1205   7.1246   7.5778   7.5848
     7.5952   7.5983   7.6000   7.6004   7.6184   7.6234   7.8101   7.8158
     7.8767   7.8829   7.8852   7.8868   8.0418   8.0497   8.0549   8.0555
     8.1121   8.1212   8.1296   8.1330   8.1579   8.1947   8.6447   8.6893
     8.6919   8.7061   8.8255   8.8264   8.8297   8.8319   8.9587   8.9868
     8.9896   9.0628   9.0677   9.0711   9.0862   9.2591   9.2630   9.3716
     9.4218   9.4445   9.4923   9.4948   9.4953   9.4961   9.5100   9.5145
     9.5176   9.5208   9.5285   9.5315   9.8241   9.8312  10.0206

          k =-0.5000-0.2165 0.0000 (256328 PWs)   bands (ev):

   -17.1715 -15.9794 -15.8209 -15.7946 -15.3901 -15.2204 -15.1505 -15.1145
   -14.0588 -13.8413 -13.7092 -13.6734 -12.6833 -12.4594 -12.0027 -11.9968
   -11.9225 -11.7751 -11.6721 -11.5890 -11.5426 -11.5370 -11.4232 -11.4048
   -10.0449 -10.0390  -9.7697  -9.7239  -9.2276  -8.9152  -8.7998  -8.7580
    -8.2700  -8.2324  -8.0220  -8.0000  -6.5350  -6.3459  -6.1244  -5.9497
    -5.8384  -5.6282  -5.3885  -5.3142  -5.3057  -5.2227  -5.2128  -5.1816
    -5.1796  -5.1792  -5.0210  -5.0025  -4.9493  -4.5129  -4.3917  -4.3511
    -4.3295  -4.3174  -4.2647  -4.2147  -4.2013  -4.1983  -4.1976  -4.1972
    -4.0825  -4.0766  -3.9160  -3.8799  -3.8640  -3.8572  -3.7546  -3.7471
    -3.7041  -3.6912  -3.6040  -3.5921  -3.5843  -3.4877  -3.4660  -3.4563
    -3.1733  -3.0871  -3.0722  -3.0619  -2.6364  -2.5833  -2.5809  -2.5789
    -2.5787  -2.5783  -2.5448  -2.5284  -2.5235  -2.5229  -2.4097  -2.3535
    -2.1628  -2.1559  -2.1094  -2.1004  -2.0966  -2.0954  -2.0540  -2.0501
    -2.0208  -2.0177  -2.0170  -2.0122  -1.9366  -1.8031  -1.8026  -1.8018
    -1.8016  -1.7724  -1.7384  -1.7285  -1.5689  -1.5238  -1.5091  -1.5019
    -1.4933  -1.4932  -1.4932  -1.4932  -1.4590  -1.4562  -1.4537  -1.4534
    -1.4335  -1.4332  -1.4331  -1.4330  -1.3840  -1.3839  -1.3838  -1.3835
    -1.3821  -1.3819  -1.3815  -1.3813  -1.3584  -1.3584  -1.3582  -1.3582
    -1.3088  -1.3084  -1.3073  -1.3070  -1.3026  -1.2380  -1.2332  -1.2325
    -1.2323  -1.1908  -1.1908  -1.1906  -1.1906  -1.1733  -1.1711  -1.1707
    -1.1705  -1.1281  -1.1218  -1.1215  -1.1215  -1.1169  -1.1155  -1.1155
    -1.1154  -1.1125  -1.0961  -1.0922  -1.0918  -1.0903  -1.0571  -1.0569
    -1.0566  -1.0565  -1.0403  -1.0400  -1.0399  -1.0398  -1.0371  -1.0369
    -1.0366  -1.0364  -1.0349  -1.0159  -0.8826  -0.8821  -0.8818  -0.8816
    -0.8534  -0.8527  -0.8524  -0.8524  -0.8038  -0.7708  -0.7698  -0.7697
    -0.7694  -0.7689  -0.7676  -0.7672  -0.7625  -0.7618  -0.7613  -0.7611
    -0.7051  -0.7001  -0.7000  -0.6997  -0.6930  -0.6889  -0.6883  -0.6875
    -0.6735  -0.6674  -0.6670  -0.6668  -0.6436  -0.5825  -0.5718  -0.5711
    -0.5680  -0.5669  -0.5663  -0.5661  -0.5050  -0.4982  -0.4977  -0.4976
    -0.4935  -0.4492  -0.4485  -0.4484  -0.4463  -0.4281  -0.4278  -0.4274
    -0.4272  -0.4095  -0.4000  -0.3993  -0.3890  -0.3890  -0.3882  -0.3882
    -0.3766  -0.3514  -0.3484  -0.3471  -0.3238  -0.2736  -0.2734  -0.2729
    -0.2728  -0.2574  -0.2574  -0.2568  -0.2568  -0.2415  -0.2400  -0.2399
    -0.2381  -0.1598  -0.1586  -0.1584  -0.1573  -0.1533  -0.1530  -0.1529
    -0.1527  -0.1517  -0.1494  -0.1493  -0.1472  -0.1125  -0.1124  -0.1123
    -0.1123  -0.1010  -0.0998  -0.0994  -0.0991  -0.0958  -0.0957  -0.0956
    -0.0953  -0.0686  -0.0272  -0.0265  -0.0255  -0.0252  -0.0006   0.0000
     0.0022   0.0030   0.0486   0.0505   0.0530   0.0551   0.0615   0.0663
     0.0794   0.0796   0.0805   0.0809   0.0844   0.0869   0.0880   0.0886
     0.0891   0.0909   0.0934   0.0942   0.1002   0.1006   0.1012   0.1013
     0.1064   0.1065   0.1066   0.1067   0.1187   0.1230   0.1233   0.1233
     0.1390   0.1511   0.1512   0.1513   0.1513   0.1605   0.1615   0.1617
     0.1641   0.2098   0.2107   0.2113   0.2114   0.2310   0.2438   0.2440
     0.2445   0.2508   0.2806   0.3016   0.3113   0.3204   0.3261   0.3275
     0.3285   0.3287   0.3342   0.3399   0.3434   0.3450   0.3453   0.3492
     0.3528   0.3612   0.3613   0.3617   0.3620   0.3665   0.3680   0.3685
     0.3698   0.3700   0.3706   0.3751   0.3770   0.3881   0.3980   0.4032
     0.4440   0.4473   0.4509   0.4520   0.4571   0.4573   0.4580   0.4589
     0.4691   0.4693   0.4696   0.4697   0.5065   0.5075   0.5083   0.5089
     0.5099   0.5100   0.5104   0.5109   0.5410   0.5538   0.5543   0.5543
     0.5547   0.5603   0.5654   0.5671   0.5679   0.5682   0.5687   0.5707
     0.5760   0.5763   0.5766   0.5768   0.5901   0.5913   0.5914   0.5918
     0.6019   0.6053   0.6074   0.6080   0.6644   0.6760   0.6774   0.6786
     0.6794   0.6830   0.6831   0.6833   0.6835   0.6847   0.6852   0.6912
     0.6923   0.7008   0.7068   0.7108   0.7284   0.7288   0.7289   0.7294
     0.7307   0.7308   0.7317   0.7320   0.7744   0.7777   0.7830   0.7832
     0.7938   0.8052   0.8114   0.8119   0.8129   0.8161   0.8275   0.8318
     0.8476   0.8480   0.8484   0.8486   0.8688   0.8712   0.8727   0.8737
     0.9254   0.9254   0.9261   0.9261   0.9582   0.9585   0.9596   0.9597
     1.0005   1.0113   1.0120   1.0126   1.0142   1.0204   1.0255   1.0274
     1.0311   1.0376   1.0387   1.0389   1.0410   1.0443   1.0444   1.0445
     1.0446   1.0466   1.0475   1.0483   1.0489   1.0577   1.0652   1.0716
     1.0747   1.0758   1.0771   1.0785   1.0789   1.0791   1.0815   1.0820
     1.0916   1.0947   1.0956   1.0972   1.1180   1.1201   1.1218   1.1225
     1.1273   1.1283   1.1320   1.1330   1.1411   1.1418   1.1422   1.1425
     1.1825   1.1910   1.1938   1.1944   1.1954   1.1957   1.1960   1.1973
     1.2204   1.2211   1.2213   1.2215   1.2313   1.2358   1.2383   1.2394
     1.2401   1.2442   1.2560   1.2562   1.2702   1.2704   1.2706   1.2708
     1.2783   1.2792   1.2800   1.2806   1.2853   1.2857   1.2864   1.2864
     1.3477   1.3520   1.3524   1.3531   1.3533   1.3539   1.3542   1.3545
     1.3545   1.3592   1.3607   1.3626   1.3668   1.3705   1.3713   1.3724
     1.3764   1.3784   1.3807   1.3813   1.3840   1.3854   1.3862   1.3869
     1.3928   1.3937   1.3940   1.3941   1.3988   1.4027   1.4041   1.4051
     1.4146   1.4148   1.4152   1.4154   1.4476   1.4479   1.4481   1.4481
     1.4603   1.4621   1.4631   1.4636   1.4742   1.4760   1.4784   1.4796
     1.4978   1.4999   1.5003   1.5009   1.5390   1.5493   1.5501   1.5533
     1.5725   1.5726   1.5730   1.5733   1.6017   1.6023   1.6030   1.6037
     1.6065   1.6085   1.6091   1.6094   1.6147   1.6151   1.6160   1.6162
     1.8318   1.8334   1.8338   1.8342   2.3279   2.3375   2.3417   2.3436
     2.5542   2.5568   2.5588   2.5599   2.7865   2.7914   2.7932   2.7934
     3.0786   3.0867   3.0879   3.0892   3.4487   3.4520   3.4522   3.4524
     3.6297   3.6380   3.6409   3.6419   3.9029   3.9270   3.9277   3.9282
     4.0046   4.2241   4.2251   4.2260   4.2340   4.3134   4.3265   4.3349
     4.3383   4.5085   4.5507   4.5570   4.5588   4.5627   4.5928   4.5946
     4.6498   4.7930   4.8509   4.8844   4.9005   4.9994   5.0325   5.0733
     5.1587   5.1654   5.1690   5.1743   5.2110   5.2563   5.2791   5.2991
     5.3315   5.3331   5.3454   5.3496   5.5149   5.5948   5.7278   5.7321
     5.7459   5.7466   5.7475   5.7495   5.8504   5.8663   5.8854   5.8873
     6.7804   6.7831   6.7837   6.7840   7.0952   7.1135   7.1191   7.1220
     7.1462   7.1498   7.1526   7.1536   7.2523   7.2675   7.2702   7.2738
     7.3607   7.3656   7.3666   7.3668   7.5180   7.6031   7.6081   7.6101
     7.6704   7.8945   7.9516   7.9604   7.9770   7.9827   7.9897   8.0051
     8.2210   8.2370   8.2382   8.2423   8.2468   8.2816   8.3583   8.3658
     8.8882   8.8885   8.8902   8.8915   8.9214   8.9221   8.9236   8.9252
     8.9627   8.9637   8.9649   8.9656   9.1063   9.1104   9.1185   9.1189
     9.3049   9.3241   9.3379   9.3440   9.5176   9.5212   9.5425   9.5487
     9.5625   9.5648   9.5723   9.5732   9.9265   9.9368   9.9661

     the Fermi energy is     3.3210 ev

!    total energy              =  -12707.14485318 Ry
     Harris-Foulkes estimate   =  -12707.14485316 Ry
     estimated scf accuracy    <          3.7E-09 Ry

     The total energy is the sum of the following terms:

     one-electron contribution = -109278.65745860 Ry
     hartree contribution      =   56000.73899630 Ry
     xc contribution           =   -4447.77263701 Ry
     ewald contribution        =   45024.88857668 Ry
     Dispersion Correction     =      -2.98700982 Ry
     smearing contrib. (-TS)   =      -3.35532072 Ry

     convergence has been achieved in  48 iterations

     Writing output data file gc.save
 
     init_run     :     99.06s CPU    106.48s WALL (       1 calls)
     electrons    :  12537.36s CPU  13408.82s WALL (       1 calls)

     Called by init_run:
     wfcinit      :     96.77s CPU    103.79s WALL (       1 calls)
     potinit      :      0.35s CPU      0.37s WALL (       1 calls)

     Called by electrons:
     c_bands      :  11469.99s CPU  12234.27s WALL (      48 calls)
     sum_band     :    884.66s CPU    962.97s WALL (      48 calls)
     v_of_rho     :      3.14s CPU      3.90s WALL (      49 calls)
     newd         :      9.34s CPU     14.91s WALL (      49 calls)
     mix_rho      :    170.07s CPU    192.69s WALL (      48 calls)

     Called by c_bands:
     init_us_2    :     39.54s CPU     40.19s WALL (     582 calls)
     cegterg      :  11295.23s CPU  12053.14s WALL (     294 calls)

     Called by sum_band:
     sum_band:bec :      4.94s CPU      5.59s WALL (     288 calls)
     addusdens    :      8.74s CPU     14.49s WALL (      48 calls)

     Called by *egterg:
     h_psi        :   4291.18s CPU   4637.24s WALL (    1833 calls)
     s_psi        :   1031.62s CPU   1042.77s WALL (    1833 calls)
     g_psi        :     10.64s CPU     10.65s WALL (    1533 calls)
     cdiaghg      :   3010.56s CPU   3123.56s WALL (    1821 calls)

     Called by h_psi:
     add_vuspsi   :   1036.11s CPU   1049.86s WALL (    1833 calls)

     General routines
     calbec       :   1486.17s CPU   1496.52s WALL (    2121 calls)
     fft          :      3.73s CPU      4.44s WALL (     636 calls)
     ffts         :    100.18s CPU    113.76s WALL (   26243 calls)
     fftw         :   2484.17s CPU   2770.10s WALL ( 1373594 calls)
     davcio       :      0.18s CPU      3.27s WALL (       6 calls)
 
     Parallel routines
     fft_scatter  :   1622.52s CPU   1777.15s WALL ( 1400473 calls)
 
     PWSCF        :     3h30m CPU        3h45m WALL

 
   This run was terminated on:  19: 4: 7  26Mar2017            

=------------------------------------------------------------------------------=
   JOB DONE.
=------------------------------------------------------------------------------=
