mpirun: INFO: switching to OpenMPI runtime version 1.10.2

     Program PWSCF v.5.4.0 starts on 25Oct2017 at 18:55:56 

     This program is part of the open-source Quantum ESPRESSO suite
     for quantum simulation of materials; please cite
         "P. Giannozzi et al., J. Phys.:Condens. Matter 21 395502 (2009);
          URL http://www.quantum-espresso.org", 
     in publications or presentations arising from this work. More details at
     http://www.quantum-espresso.org/quote

     Parallel version (MPI & OpenMP), running on      28 processor cores
     Number of MPI processes:                28
     Threads/MPI process:                     1
     R & G space division:  proc/nbgrp/npool/nimage =      28
     Waiting for input...
     Reading input from standard input
Warning: card &IONS ignored
Warning: card / ignored

     Current dimensions of program PWSCF are:
     Max number of different atomic species (ntypx) = 10
     Max number of k-points (npk) =  40000
     Max angular momentum in pseudopotentials (lmaxx) =  3
     WARNING: atomic wfc #  2 for atom type 4 has zero norm
     WARNING: atomic wfc #  4 for atom type 4 has zero norm
     WARNING: atomic wfc #  5 for atom type 4 has zero norm

     Subspace diagonalization in iterative solution of the eigenvalue problem:
     one sub-group per band group will be used
     scalapack distributed-memory algorithm (size of sub-group:  3*  3 procs)

 
     Parallelization info
     --------------------
     sticks:   dense  smooth     PW     G-vecs:    dense   smooth      PW
     Min         408     408    108                73226    73226    9928
     Max         410     410    109                73231    73231    9931
     Sum       11433   11433   3039              2050409  2050409  278033
 


     bravais-lattice index     =            0
     lattice parameter (alat)  =      13.9425  a.u.
     unit-cell volume          =   21209.0878 (a.u.)^3
     number of atoms/cell      =          139
     number of atomic types    =            5
     number of electrons       =      1242.00
     number of Kohn-Sham states=          745
     kinetic-energy cutoff     =      80.0000  Ry
     charge density cutoff     =     320.0000  Ry
     convergence threshold     =      1.0E-08
     mixing beta               =       0.7000
     number of iterations used =            8  local-TF  mixing
     Exchange-correlation      =  SLA  PW   PBE  PBE ( 1  4  3  4 0 0)

     celldm(1)=  13.942539  celldm(2)=   0.000000  celldm(3)=   0.000000
     celldm(4)=   0.000000  celldm(5)=   0.000000  celldm(6)=   0.000000

     crystal axes: (cart. coord. in units of alat)
               a(1) = (   1.000000   0.000000   0.000000 )  
               a(2) = (   0.000000   2.309401   0.000000 )  
               a(3) = (   0.000000   0.000000   3.388418 )  

     reciprocal axes: (cart. coord. in units 2 pi/alat)
               b(1) = (  1.000000  0.000000  0.000000 )  
               b(2) = (  0.000000  0.433013  0.000000 )  
               b(3) = (  0.000000  0.000000  0.295123 )  


     PseudoPot. # 1 for Cu read from file:
     /home/549/hxw549/Short/pseudopotentials/Cu.pbe-n-van_ak.UPF
     MD5 check sum: 601f7c30f7467666bec936e0661ce3e1
     Pseudo is Ultrasoft + core correction, Zval = 11.0
     Generated by new atomic code, or converted to UPF format
     Using radial grid of  867 points,  6 beta functions with: 
                l(1) =   0
                l(2) =   0
                l(3) =   1
                l(4) =   1
                l(5) =   2
                l(6) =   2
     Q(r) pseudized with  8 coefficients,  rinner =    1.400   1.400   1.400
                                                       1.400   1.400

     PseudoPot. # 2 for C  read from file:
     /home/549/hxw549/Short/pseudopotentials/C.star1s-pbe-mt_gipaw.UPF
     MD5 check sum: ef0cb3dee31bd9e4ba2a832a2c716264
     Pseudo is Norm-conserving, Zval =  5.0
     Generated by new atomic code, or converted to UPF format
     Using radial grid of 1073 points,  1 beta functions with: 
                l(1) =   0

     PseudoPot. # 3 for C  read from file:
     /home/549/hxw549/Short/pseudopotentials/C.pbe-mt_gipaw.UPF
     MD5 check sum: 5ac2f21f2c440b14befe521540822c15
     Pseudo is Norm-conserving, Zval =  4.0
     Generated by new atomic code, or converted to UPF format
     Using radial grid of 1073 points,  1 beta functions with: 
                l(1) =   0

     PseudoPot. # 4 for O  read from file:
     /home/549/hxw549/Short/pseudopotentials/O.pbe-van_gipaw.UPF
     MD5 check sum: 5ce2a047509d4f331db576c963e74b29
     Pseudo is Ultrasoft, Zval =  6.0
     Generated by new atomic code, or converted to UPF format
     Using radial grid of 1095 points,  4 beta functions with: 
                l(1) =   0
                l(2) =   0
                l(3) =   1
                l(4) =   1
     Q(r) pseudized with 0 coefficients 


     PseudoPot. # 5 for H  read from file:
     /home/549/hxw549/Short/pseudopotentials/H.pbe-van_ak.UPF
     MD5 check sum: 077eb6d537518a38cb46c6de387227b7
     Pseudo is Ultrasoft, Zval =  1.0
     Generated by new atomic code, or converted to UPF format
     Using radial grid of  615 points,  1 beta functions with: 
                l(1) =   0
     Q(r) pseudized with  8 coefficients,  rinner =    0.800

     atomic species   valence    mass     pseudopotential
        Cu            11.00    63.54600     Cu( 1.00)
        C_h            5.00    12.01070     C ( 1.00)
        C              4.00    12.01070     C ( 1.00)
        O              6.00    15.99940     O ( 1.00)
        H              1.00     1.00783     H ( 1.00)

     No symmetry found



   Cartesian axes

     site n.     atom                  positions (alat units)
         1           Cu  tau(   1) = (  -0.0012097  -0.0025913   0.9710874  )
         2           Cu  tau(   2) = (   0.2487551   0.2284683   0.9711924  )
         3           Cu  tau(   3) = (   0.4985369  -0.0025282   0.9713648  )
         4           Cu  tau(   4) = (   0.7485820   0.2279821   0.9712212  )
         5           Cu  tau(   5) = (  -0.0015362   0.4595232   0.9708775  )
         6           Cu  tau(   6) = (   0.2485451   0.6914807   0.9705881  )
         7           Cu  tau(   7) = (   0.4988631   0.4597958   0.9710875  )
         8           Cu  tau(   8) = (   0.7487631   0.6918590   0.9707368  )
         9           Cu  tau(   9) = (  -0.0012089   0.9244292   0.9710472  )
        10           Cu  tau(  10) = (   0.2488623   1.1566312   0.9716840  )
        11           Cu  tau(  11) = (   0.4985059   0.9240236   0.9709682  )
        12           Cu  tau(  12) = (   0.7484339   1.1564124   0.9718996  )
        13           Cu  tau(  13) = (  -0.0014390   1.3877151   0.9723295  )
        14           Cu  tau(  14) = (   0.2484536   1.6182378   0.9725186  )
        15           Cu  tau(  15) = (   0.4987326   1.3880351   0.9726468  )
        16           Cu  tau(  16) = (   0.7488510   1.6182572   0.9725683  )
        17           Cu  tau(  17) = (  -0.0014462   1.8479420   0.9716519  )
        18           Cu  tau(  18) = (   0.2487321   2.0768883   0.9712710  )
        19           Cu  tau(  19) = (   0.4987498   1.8476677   0.9721982  )
        20           Cu  tau(  20) = (   0.7485822   2.0771446   0.9713925  )
        21           Cu  tau(  21) = (  -0.0012792   0.2292314   1.2224927  )
        22           Cu  tau(  22) = (   0.2486003  -0.0015432   1.2236017  )
        23           Cu  tau(  23) = (   0.4987346   0.2292316   1.2226139  )
        24           Cu  tau(  24) = (   0.7487784  -0.0014148   1.2236245  )
        25           Cu  tau(  25) = (  -0.0013216   0.6919404   1.2211397  )
        26           Cu  tau(  26) = (   0.2486801   0.4605059   1.2217461  )
        27           Cu  tau(  27) = (   0.4986762   0.6922707   1.2211300  )
        28           Cu  tau(  28) = (   0.7487750   0.4605306   1.2216894  )
        29           Cu  tau(  29) = (  -0.0014032   1.1554048   1.2227302  )
        30           Cu  tau(  30) = (   0.2484910   0.9237543   1.2215571  )
        31           Cu  tau(  31) = (   0.4984888   1.1552153   1.2228046  )
        32           Cu  tau(  32) = (   0.7487177   0.9237009   1.2214429  )
        33           Cu  tau(  33) = (  -0.0014621   1.6178879   1.2245687  )
        34           Cu  tau(  34) = (   0.2484427   1.3866583   1.2237426  )
        35           Cu  tau(  35) = (   0.4985086   1.6175534   1.2244381  )
        36           Cu  tau(  36) = (   0.7485786   1.3867775   1.2239831  )
        37           Cu  tau(  37) = (  -0.0012995   2.0779225   1.2244493  )
        38           Cu  tau(  38) = (   0.2483545   1.8481598   1.2244008  )
        39           Cu  tau(  39) = (   0.4985430   2.0779478   1.2243536  )
        40           Cu  tau(  40) = (   0.7487497   1.8480972   1.2247301  )
        41           Cu  tau(  41) = (  -0.0013704  -0.0003098   1.4806770  )
        42           Cu  tau(  42) = (   0.2484545   0.2306386   1.4793493  )
        43           Cu  tau(  43) = (   0.4985005  -0.0004575   1.4801505  )
        44           Cu  tau(  44) = (   0.7488774   0.2306625   1.4794701  )
        45           Cu  tau(  45) = (  -0.0013214   0.4614735   1.4781816  )
        46           Cu  tau(  46) = (   0.2485794   0.6926191   1.4773838  )
        47           Cu  tau(  47) = (   0.4986915   0.4619818   1.4774645  )
        48           Cu  tau(  48) = (   0.7486314   0.6930042   1.4775745  )
        49           Cu  tau(  49) = (  -0.0015263   0.9234163   1.4780278  )
        50           Cu  tau(  50) = (   0.2481304   1.1554051   1.4797337  )
        51           Cu  tau(  51) = (   0.4984450   0.9234575   1.4779337  )
        52           Cu  tau(  52) = (   0.7485547   1.1548307   1.4788126  )
        53           Cu  tau(  53) = (  -0.0012984   1.3865196   1.4805012  )
        54           Cu  tau(  54) = (   0.2479432   1.6171458   1.4811405  )
        55           Cu  tau(  55) = (   0.4978837   1.3864687   1.4805332  )
        56           Cu  tau(  56) = (   0.7485516   1.6171762   1.4812666  )
        57           Cu  tau(  57) = (  -0.0011953   1.8475492   1.4827457  )
        58           Cu  tau(  58) = (   0.2483429   2.0771881   1.4825366  )
        59           Cu  tau(  59) = (   0.4978139   1.8469860   1.4811935  )
        60           Cu  tau(  60) = (   0.7485084   2.0779970   1.4812947  )
        61           Cu  tau(  61) = (  -0.0015888   0.2310493   1.7364523  )
        62           Cu  tau(  62) = (   0.2489361   0.0003424   1.7360790  )
        63           Cu  tau(  63) = (   0.4986506   0.2330155   1.7341073  )
        64           Cu  tau(  64) = (   0.7477716  -0.0000242   1.7367629  )
        65           Cu  tau(  65) = (  -0.0015741   0.6932997   1.7338887  )
        66           Cu  tau(  66) = (   0.2479048   0.4635161   1.7336920  )
        67           Cu  tau(  67) = (   0.4984446   0.6925040   1.7339957  )
        68           Cu  tau(  68) = (   0.7491977   0.4638473   1.7334307  )
        69           Cu  tau(  69) = (  -0.0019738   1.1541112   1.7345056  )
        70           Cu  tau(  70) = (   0.2485016   0.9228571   1.7335961  )
        71           Cu  tau(  71) = (   0.4982769   1.1535813   1.7334404  )
        72           Cu  tau(  72) = (   0.7480106   0.9235681   1.7351500  )
        73           Cu  tau(  73) = (  -0.0006986   1.6163114   1.7403962  )
        74           Cu  tau(  74) = (   0.2475622   1.3884883   1.7400487  )
        75           Cu  tau(  75) = (   0.4962546   1.6174435   1.7382840  )
        76           Cu  tau(  76) = (   0.7486743   1.3856959   1.7355368  )
        77           Cu  tau(  77) = (  -0.0014847   2.0795387   1.7377891  )
        78           Cu  tau(  78) = (   0.2474962   1.8432096   1.7435487  )
        79           Cu  tau(  79) = (   0.4977999   2.0773249   1.7365576  )
        80           Cu  tau(  80) = (   0.7482991   1.8469821   1.7369650  )
        81           Cu  tau(  81) = (  -0.0022253   0.0005973   1.9893817  )
        82           Cu  tau(  82) = (   0.2483429   0.2335981   1.9822546  )
        83           Cu  tau(  83) = (   0.4987318   0.0023515   1.9863768  )
        84           Cu  tau(  84) = (   0.7485845   0.2350004   1.9823229  )
        85           Cu  tau(  85) = (  -0.0009353   0.4643585   1.9856790  )
        86           Cu  tau(  86) = (   0.2485836   0.6934283   1.9850247  )
        87           Cu  tau(  87) = (   0.4978841   0.4634476   1.9851035  )
        88           Cu  tau(  88) = (   0.7480122   0.6926800   1.9852607  )
        89           Cu  tau(  89) = (  -0.0017296   0.9224293   1.9836249  )
        90           Cu  tau(  90) = (   0.2484144   1.1524122   1.9830623  )
        91           Cu  tau(  91) = (   0.4979506   0.9223079   1.9846378  )
        92           Cu  tau(  92) = (   0.7473597   1.1522288   1.9884159  )
        93           Cu  tau(  93) = (  -0.0056863   1.3818195   1.9854409  )
        94           Cu  tau(  94) = (   0.2469952   1.6138459   2.0125302  )
        95           Cu  tau(  95) = (   0.5013809   1.3829457   1.9798803  )
        96           Cu  tau(  96) = (   0.7470603   1.6176366   1.9877266  )
        97           Cu  tau(  97) = (  -0.0035635   1.8502916   1.9878553  )
        98           Cu  tau(  98) = (   0.2492170   2.0792998   1.9869112  )
        99           Cu  tau(  99) = (   0.4983228   1.8479710   1.9889648  )
       100           Cu  tau( 100) = (   0.7467290   2.0780799   1.9872280  )
       101           C   tau( 101) = (   0.0042855   0.0882317   2.4206708  )
       102           C   tau( 102) = (   0.0039567   0.2828837   2.4379389  )
       103           C   tau( 103) = (   0.1708682  -0.0043800   2.4101284  )
       104           C   tau( 104) = (   0.1708855   0.3785118   2.4428309  )
       105           C   tau( 105) = (   0.3376036   0.0877521   2.4194395  )
       106           C   tau( 106) = (   0.3374626   0.2822122   2.4361247  )
       107           C   tau( 107) = (   0.5045035  -0.0040771   2.4061302  )
       108           C   tau( 108) = (   0.5038686   0.3787304   2.4407058  )
       109           C   tau( 109) = (   0.6712378   0.0881879   2.4182838  )
       110           C   tau( 110) = (   0.6708707   0.2828125   2.4352522  )
       111           C   tau( 111) = (   0.8378052  -0.0042862   2.4091956  )
       112           C   tau( 112) = (   0.8373096   0.3793014   2.4429514  )
       113           C   tau( 113) = (   0.0043158   0.6689258   2.4486004  )
       114           C   tau( 114) = (   0.0043938   0.8625725   2.4422468  )
       115           C   tau( 115) = (   0.1708331   0.5723889   2.4488213  )
       116           C   tau( 116) = (   0.1701533   0.9617778   2.4382197  )
       117           C   tau( 117) = (   0.3368970   0.6704349   2.4492842  )
       118           C   tau( 118) = (   0.3365397   0.8649817   2.4453037  )
       119           C   tau( 119) = (   0.5032430   0.5726465   2.4475726  )
       120           C   tau( 120) = (   0.5028359   0.9623304   2.4414528  )
       121           C   tau( 121) = (   0.6695346   0.6694273   2.4472052  )
       122           C   tau( 122) = (   0.6689126   0.8630894   2.4433534  )
       123           C   tau( 123) = (   0.8369332   0.5731626   2.4483239  )
       124           C   tau( 124) = (   0.8366756   0.9560218   2.4376245  )
       125           C   tau( 125) = (   0.0001799   1.2445048   2.4153334  )
       126           C   tau( 126) = (   0.1685787   1.1572798   2.4228258  )
       127           C_h tau( 127) = (   0.3362848   1.2566334   2.4158566  )
       128           C   tau( 128) = (   0.5039645   1.1578546   2.4277521  )
       129           C   tau( 129) = (   0.6724014   1.2433047   2.4084365  )
       130           C   tau( 130) = (   0.8365069   1.1483291   2.4208477  )
       131           H   tau( 131) = (   0.1706370  -0.1513517   2.3937178  )
       132           H   tau( 132) = (   0.5043025  -0.1510021   2.3910029  )
       133           H   tau( 133) = (   0.8380053  -0.1514294   2.3940667  )
       134           H   tau( 134) = (  -0.0058852   1.3911637   2.4071078  )
       135           H   tau( 135) = (   0.6795782   1.3884169   2.3884865  )
       136           C   tau( 136) = (   0.3335216   1.4531266   2.3884900  )
       137           O   tau( 137) = (   0.2180176   1.5404540   2.2936940  )
       138           O   tau( 138) = (   0.4667822   1.5517011   2.4715726  )
       139           H   tau( 139) = (   0.4596473   1.6754162   2.4214094  )

     number of k points=     6  gaussian smearing, width (Ry)=  0.1000
                       cart. coord. in units 2pi/alat
        k(    1) = (   0.0000000   0.0000000   0.0000000), wk =   0.2500000
        k(    2) = (   0.0000000  -0.2165064   0.0000000), wk =   0.2500000
        k(    3) = (   0.2500000   0.0000000   0.0000000), wk =   0.5000000
        k(    4) = (   0.2500000  -0.2165064   0.0000000), wk =   0.5000000
        k(    5) = (  -0.5000000   0.0000000   0.0000000), wk =   0.2500000
        k(    6) = (  -0.5000000  -0.2165064   0.0000000), wk =   0.2500000

     Dense  grid:  2050409 G-vectors     FFT dimensions: (  80, 192, 270)

     Largest allocated arrays     est. size (Mb)     dimensions
        Kohn-Sham Wavefunctions       104.25 Mb     (    9171,  745)
        NL pseudopotentials           259.31 Mb     (    9171, 1853)
        Each V/rho on FFT grid          2.34 Mb     (  153600)
        Each G-vector array             0.56 Mb     (   73230)
        G-vector shells                 0.27 Mb     (   35784)
     Largest temporary arrays     est. size (Mb)     dimensions
        Auxiliary wavefunctions       417.02 Mb     (    9171, 2980)
        Each subspace H/S matrix       15.05 Mb     (     993,  993)
        Each <psi_i|beta_j> matrix     21.06 Mb     (    1853,  745)
        Arrays for rho mixing          18.75 Mb     (  153600,    8)

     Initial potential from superposition of free atoms
     Check: negative starting charge=   -0.001952

     starting charge 1225.31748, renormalised to 1242.00000

     negative rho (up, down):  1.979E-03 0.000E+00
     Starting wfc are 1162 randomized atomic wfcs

     total cpu time spent up to now is      181.8 secs

     Self-consistent Calculation

     iteration #  1     ecut=    80.00 Ry     beta=0.70
     Davidson diagonalization with overlap
     ethr =  1.00E-04,  avg # of iterations = 19.2

     negative rho (up, down):  2.807E+01 0.000E+00

     total cpu time spent up to now is     3428.7 secs

     total energy              =   -8389.37488465 Ry
     Harris-Foulkes estimate   =  -15373.50203917 Ry
     estimated scf accuracy    <  161401.01440618 Ry

     iteration #  2     ecut=    80.00 Ry     beta=0.70
     Davidson diagonalization with overlap
     ethr =  1.00E-02,  avg # of iterations = 11.2

     negative rho (up, down):  2.077E+01 0.000E+00

     total cpu time spent up to now is     5063.1 secs

     total energy              =  -12678.38851688 Ry
     Harris-Foulkes estimate   =  -13239.99528424 Ry
     estimated scf accuracy    <    1770.55709689 Ry

     iteration #  3     ecut=    80.00 Ry     beta=0.70
     Davidson diagonalization with overlap
     ethr =  1.00E-02,  avg # of iterations =  4.7

     negative rho (up, down):  1.834E+01 0.000E+00

     total cpu time spent up to now is     5668.2 secs

     total energy              =  -12728.42848606 Ry
     Harris-Foulkes estimate   =  -12799.55760286 Ry
     estimated scf accuracy    <    1462.42354982 Ry

     iteration #  4     ecut=    80.00 Ry     beta=0.70
     Davidson diagonalization with overlap
     ethr =  1.00E-02,  avg # of iterations =  5.7

     negative rho (up, down):  1.624E+01 0.000E+00

     total cpu time spent up to now is     6089.3 secs

     total energy              =  -12705.80279284 Ry
     Harris-Foulkes estimate   =  -12755.23445980 Ry
     estimated scf accuracy    <    1129.08673082 Ry

     iteration #  5     ecut=    80.00 Ry     beta=0.70
     Davidson diagonalization with overlap
     ethr =  1.00E-02,  avg # of iterations =  4.7

     negative rho (up, down):  1.065E+01 0.000E+00

     total cpu time spent up to now is     6476.2 secs

     total energy              =  -12679.51992842 Ry
     Harris-Foulkes estimate   =  -12740.91150214 Ry
     estimated scf accuracy    <     634.26246398 Ry

     iteration #  6     ecut=    80.00 Ry     beta=0.70
     Davidson diagonalization with overlap
     ethr =  1.00E-02,  avg # of iterations =  5.2

     negative rho (up, down):  8.510E+00 0.000E+00

     total cpu time spent up to now is     7002.7 secs

     total energy              =  -12661.38640082 Ry
     Harris-Foulkes estimate   =  -12745.81737502 Ry
     estimated scf accuracy    <     992.41010318 Ry

     iteration #  7     ecut=    80.00 Ry     beta=0.70
     Davidson diagonalization with overlap
     ethr =  1.00E-02,  avg # of iterations =  3.0

     negative rho (up, down):  7.101E+00 0.000E+00

     total cpu time spent up to now is     7474.7 secs

     total energy              =  -12676.18196776 Ry
     Harris-Foulkes estimate   =  -12708.49066681 Ry
     estimated scf accuracy    <     468.37908704 Ry

     iteration #  8     ecut=    80.00 Ry     beta=0.70
     Davidson diagonalization with overlap
     ethr =  1.00E-02,  avg # of iterations =  1.0

     negative rho (up, down):  6.383E+00 0.000E+00

     total cpu time spent up to now is     7778.8 secs

     total energy              =  -12672.00222341 Ry
     Harris-Foulkes estimate   =  -12681.55788155 Ry
     estimated scf accuracy    <     249.51095429 Ry

     iteration #  9     ecut=    80.00 Ry     beta=0.70
     Davidson diagonalization with overlap
     ethr =  1.00E-02,  avg # of iterations =  1.0

     negative rho (up, down):  1.892E+00 0.000E+00

     total cpu time spent up to now is     8085.6 secs

     total energy              =  -12626.11402625 Ry
     Harris-Foulkes estimate   =  -12672.88664265 Ry
     estimated scf accuracy    <     210.94724215 Ry

     iteration # 10     ecut=    80.00 Ry     beta=0.70
     Davidson diagonalization with overlap
     ethr =  1.00E-02,  avg # of iterations =  1.5

     negative rho (up, down):  1.752E+00 0.000E+00

     total cpu time spent up to now is     8401.6 secs

     total energy              =  -12615.73268998 Ry
     Harris-Foulkes estimate   =  -12632.02847334 Ry
     estimated scf accuracy    <     209.42959643 Ry

     iteration # 11     ecut=    80.00 Ry     beta=0.70
     Davidson diagonalization with overlap
     ethr =  1.00E-02,  avg # of iterations =  1.0

     negative rho (up, down):  1.799E+00 0.000E+00

     total cpu time spent up to now is     8709.5 secs

     total energy              =  -12607.21770895 Ry
     Harris-Foulkes estimate   =  -12625.35859473 Ry
     estimated scf accuracy    <     907.82761819 Ry

     iteration # 12     ecut=    80.00 Ry     beta=0.70
     Davidson diagonalization with overlap
     ethr =  1.00E-02,  avg # of iterations =  1.0

     negative rho (up, down):  7.161E-01 0.000E+00

     total cpu time spent up to now is     9015.4 secs

     total energy              =  -12578.57046132 Ry
     Harris-Foulkes estimate   =  -12614.43953298 Ry
     estimated scf accuracy    <     290.29523052 Ry

     iteration # 13     ecut=    80.00 Ry     beta=0.70
     Davidson diagonalization with overlap
     ethr =  1.00E-02,  avg # of iterations =  2.0

     negative rho (up, down):  3.227E+00 0.000E+00

     total cpu time spent up to now is     9357.7 secs

     total energy              =  -12593.46185026 Ry
     Harris-Foulkes estimate   =  -12620.29250149 Ry
     estimated scf accuracy    <     266.45228257 Ry

     iteration # 14     ecut=    80.00 Ry     beta=0.70
     Davidson diagonalization with overlap
     ethr =  1.00E-02,  avg # of iterations =  2.0

     negative rho (up, down):  7.617E+00 0.000E+00

     total cpu time spent up to now is     9680.2 secs

     total energy              =  -12591.36567706 Ry
     Harris-Foulkes estimate   =  -12599.41292568 Ry
     estimated scf accuracy    <      71.85629575 Ry

     iteration # 15     ecut=    80.00 Ry     beta=0.70
     Davidson diagonalization with overlap
     ethr =  5.79E-03,  avg # of iterations =  1.0

     negative rho (up, down):  6.597E+00 0.000E+00

     total cpu time spent up to now is     9986.5 secs

     total energy              =  -12590.90830817 Ry
     Harris-Foulkes estimate   =  -12593.24109103 Ry
     estimated scf accuracy    <      38.36258740 Ry

     iteration # 16     ecut=    80.00 Ry     beta=0.70
     Davidson diagonalization with overlap
     ethr =  3.09E-03,  avg # of iterations =  1.0

     negative rho (up, down):  5.086E+00 0.000E+00

     total cpu time spent up to now is    10295.0 secs

     total energy              =  -12587.35170035 Ry
     Harris-Foulkes estimate   =  -12591.85856806 Ry
     estimated scf accuracy    <      28.65561821 Ry

     iteration # 17     ecut=    80.00 Ry     beta=0.70
     Davidson diagonalization with overlap
     ethr =  2.31E-03,  avg # of iterations =  3.2

     negative rho (up, down):  3.950E+00 0.000E+00

     total cpu time spent up to now is    10639.7 secs

     total energy              =  -12587.13127711 Ry
     Harris-Foulkes estimate   =  -12588.57532281 Ry
     estimated scf accuracy    <      16.18152112 Ry

     iteration # 18     ecut=    80.00 Ry     beta=0.70
     Davidson diagonalization with overlap
     ethr =  1.30E-03,  avg # of iterations =  5.7

     negative rho (up, down):  5.758E+00 0.000E+00

     total cpu time spent up to now is    11041.8 secs

     total energy              =  -12586.52662755 Ry
     Harris-Foulkes estimate   =  -12588.03576361 Ry
     estimated scf accuracy    <      55.89068125 Ry

     iteration # 19     ecut=    80.00 Ry     beta=0.70
     Davidson diagonalization with overlap
     ethr =  1.30E-03,  avg # of iterations =  4.8

     negative rho (up, down):  4.808E+00 0.000E+00

     total cpu time spent up to now is    11441.6 secs

     total energy              =  -12586.71439058 Ry
     Harris-Foulkes estimate   =  -12588.17052234 Ry
     estimated scf accuracy    <      16.50924431 Ry

     iteration # 20     ecut=    80.00 Ry     beta=0.70
     Davidson diagonalization with overlap
     ethr =  1.30E-03,  avg # of iterations =  1.5

     negative rho (up, down):  1.237E+00 0.000E+00

     total cpu time spent up to now is    11758.8 secs

     total energy              =  -12584.01928866 Ry
     Harris-Foulkes estimate   =  -12587.06675881 Ry
     estimated scf accuracy    <       9.67877183 Ry

     iteration # 21     ecut=    80.00 Ry     beta=0.70
     Davidson diagonalization with overlap
     ethr =  7.79E-04,  avg # of iterations = 10.8

     negative rho (up, down):  6.841E-01 0.000E+00

     total cpu time spent up to now is    12274.5 secs

     total energy              =  -12583.39059708 Ry
     Harris-Foulkes estimate   =  -12585.36520519 Ry
     estimated scf accuracy    <       7.38937437 Ry

     iteration # 22     ecut=    80.00 Ry     beta=0.70
     Davidson diagonalization with overlap
     ethr =  5.95E-04,  avg # of iterations =  7.0

     negative rho (up, down):  5.602E-01 0.000E+00

     total cpu time spent up to now is    12692.5 secs

     total energy              =  -12582.87626433 Ry
     Harris-Foulkes estimate   =  -12583.64283200 Ry
     estimated scf accuracy    <       5.41705346 Ry

     iteration # 23     ecut=    80.00 Ry     beta=0.70
     Davidson diagonalization with overlap
     ethr =  4.36E-04,  avg # of iterations =  3.3

     negative rho (up, down):  5.781E-01 0.000E+00

     total cpu time spent up to now is    13041.1 secs

     total energy              =  -12582.28676574 Ry
     Harris-Foulkes estimate   =  -12583.11901341 Ry
     estimated scf accuracy    <      11.08721815 Ry

     iteration # 24     ecut=    80.00 Ry     beta=0.70
     Davidson diagonalization with overlap
     ethr =  4.36E-04,  avg # of iterations =  4.0

     negative rho (up, down):  3.793E-01 0.000E+00

     total cpu time spent up to now is    13402.9 secs

     total energy              =  -12581.78223183 Ry
     Harris-Foulkes estimate   =  -12582.44824076 Ry
     estimated scf accuracy    <       5.42517812 Ry

     iteration # 25     ecut=    80.00 Ry     beta=0.70
     Davidson diagonalization with overlap
     ethr =  4.36E-04,  avg # of iterations =  1.2

     negative rho (up, down):  5.156E-01 0.000E+00

     total cpu time spent up to now is    13713.2 secs

     total energy              =  -12581.13389979 Ry
     Harris-Foulkes estimate   =  -12581.99575215 Ry
     estimated scf accuracy    <       4.07410063 Ry

     iteration # 26     ecut=    80.00 Ry     beta=0.70
     Davidson diagonalization with overlap
     ethr =  3.28E-04,  avg # of iterations =  6.8

     negative rho (up, down):  8.278E-01 0.000E+00

     total cpu time spent up to now is    14137.2 secs

     total energy              =  -12581.06668614 Ry
     Harris-Foulkes estimate   =  -12581.34122022 Ry
     estimated scf accuracy    <       1.61081492 Ry

     iteration # 27     ecut=    80.00 Ry     beta=0.70
     Davidson diagonalization with overlap
     ethr =  1.30E-04,  avg # of iterations =  7.0

     negative rho (up, down):  4.859E-01 0.000E+00

     total cpu time spent up to now is    14582.7 secs

     total energy              =  -12581.02975305 Ry
     Harris-Foulkes estimate   =  -12581.13319311 Ry
     estimated scf accuracy    <       0.60128148 Ry

     iteration # 28     ecut=    80.00 Ry     beta=0.70
     Davidson diagonalization with overlap
     ethr =  4.84E-05,  avg # of iterations =  9.3

     negative rho (up, down):  3.423E-01 0.000E+00

     total cpu time spent up to now is    15074.8 secs

     total energy              =  -12581.00239226 Ry
     Harris-Foulkes estimate   =  -12581.06655658 Ry
     estimated scf accuracy    <       0.31204633 Ry

     iteration # 29     ecut=    80.00 Ry     beta=0.70
     Davidson diagonalization with overlap
     ethr =  2.51E-05,  avg # of iterations =  9.0

     negative rho (up, down):  2.292E-01 0.000E+00

     total cpu time spent up to now is    15571.8 secs

     total energy              =  -12581.00702144 Ry
     Harris-Foulkes estimate   =  -12581.03475638 Ry
     estimated scf accuracy    <       0.15087992 Ry

     iteration # 30     ecut=    80.00 Ry     beta=0.70
     Davidson diagonalization with overlap
     ethr =  1.21E-05,  avg # of iterations =  7.7

     negative rho (up, down):  1.979E-01 0.000E+00

     total cpu time spent up to now is    16048.6 secs

     total energy              =  -12581.01655663 Ry
     Harris-Foulkes estimate   =  -12581.01889246 Ry
     estimated scf accuracy    <       0.03027100 Ry

     iteration # 31     ecut=    80.00 Ry     beta=0.70
     Davidson diagonalization with overlap
     ethr =  2.44E-06,  avg # of iterations = 11.2

     negative rho (up, down):  1.106E-01 0.000E+00

     total cpu time spent up to now is    16596.3 secs

     total energy              =  -12581.01422225 Ry
     Harris-Foulkes estimate   =  -12581.01802831 Ry
     estimated scf accuracy    <       0.01083601 Ry

     iteration # 32     ecut=    80.00 Ry     beta=0.70
     Davidson diagonalization with overlap
     c_bands:  1 eigenvalues not converged
     ethr =  8.72E-07,  avg # of iterations = 14.2

     negative rho (up, down):  5.743E-02 0.000E+00

     total cpu time spent up to now is    17231.8 secs

     total energy              =  -12581.01363496 Ry
     Harris-Foulkes estimate   =  -12581.01511242 Ry
     estimated scf accuracy    <       0.00559695 Ry

     iteration # 33     ecut=    80.00 Ry     beta=0.70
     Davidson diagonalization with overlap
     ethr =  4.51E-07,  avg # of iterations = 11.7

     negative rho (up, down):  3.453E-02 0.000E+00

     total cpu time spent up to now is    17791.0 secs

     total energy              =  -12581.01383557 Ry
     Harris-Foulkes estimate   =  -12581.01410133 Ry
     estimated scf accuracy    <       0.00254794 Ry

     iteration # 34     ecut=    80.00 Ry     beta=0.70
     Davidson diagonalization with overlap
     ethr =  2.05E-07,  avg # of iterations =  9.3

     negative rho (up, down):  1.787E-02 0.000E+00

     total cpu time spent up to now is    18297.7 secs

     total energy              =  -12581.01365428 Ry
     Harris-Foulkes estimate   =  -12581.01399906 Ry
     estimated scf accuracy    <       0.00096339 Ry

     iteration # 35     ecut=    80.00 Ry     beta=0.70
     Davidson diagonalization with overlap
     ethr =  7.76E-08,  avg # of iterations = 10.3

     negative rho (up, down):  9.276E-03 0.000E+00

     total cpu time spent up to now is    18826.2 secs

     total energy              =  -12581.01367024 Ry
     Harris-Foulkes estimate   =  -12581.01373864 Ry
     estimated scf accuracy    <       0.00048120 Ry

     iteration # 36     ecut=    80.00 Ry     beta=0.70
     Davidson diagonalization with overlap
     ethr =  3.87E-08,  avg # of iterations = 11.2

     negative rho (up, down):  6.399E-03 0.000E+00

     total cpu time spent up to now is    19384.8 secs

     total energy              =  -12581.01365566 Ry
     Harris-Foulkes estimate   =  -12581.01369918 Ry
     estimated scf accuracy    <       0.00006799 Ry

     iteration # 37     ecut=    80.00 Ry     beta=0.70
     Davidson diagonalization with overlap
     ethr =  5.47E-09,  avg # of iterations =  7.2

     negative rho (up, down):  4.237E-03 0.000E+00

     total cpu time spent up to now is    19865.8 secs

     total energy              =  -12581.01362061 Ry
     Harris-Foulkes estimate   =  -12581.01366424 Ry
     estimated scf accuracy    <       0.00004365 Ry

     iteration # 38     ecut=    80.00 Ry     beta=0.70
     Davidson diagonalization with overlap
     ethr =  3.51E-09,  avg # of iterations =  7.2

     negative rho (up, down):  2.855E-03 0.000E+00

     total cpu time spent up to now is    20320.3 secs

     total energy              =  -12581.01360880 Ry
     Harris-Foulkes estimate   =  -12581.01362473 Ry
     estimated scf accuracy    <       0.00001556 Ry

     iteration # 39     ecut=    80.00 Ry     beta=0.70
     Davidson diagonalization with overlap
     ethr =  1.25E-09,  avg # of iterations =  3.3

     negative rho (up, down):  2.462E-03 0.000E+00

     total cpu time spent up to now is    20689.4 secs

     total energy              =  -12581.01360852 Ry
     Harris-Foulkes estimate   =  -12581.01361055 Ry
     estimated scf accuracy    <       0.00000736 Ry

     iteration # 40     ecut=    80.00 Ry     beta=0.70
     Davidson diagonalization with overlap
     ethr =  5.92E-10,  avg # of iterations =  2.0

     negative rho (up, down):  2.135E-03 0.000E+00

     total cpu time spent up to now is    21028.9 secs

     total energy              =  -12581.01360941 Ry
     Harris-Foulkes estimate   =  -12581.01360920 Ry
     estimated scf accuracy    <       0.00000130 Ry

     iteration # 41     ecut=    80.00 Ry     beta=0.70
     Davidson diagonalization with overlap
     ethr =  1.04E-10,  avg # of iterations =  3.0

     negative rho (up, down):  2.133E-03 0.000E+00

     total cpu time spent up to now is    21421.7 secs

     total energy              =  -12581.01360961 Ry
     Harris-Foulkes estimate   =  -12581.01360959 Ry
     estimated scf accuracy    <       0.00000042 Ry

     iteration # 42     ecut=    80.00 Ry     beta=0.70
     Davidson diagonalization with overlap
     ethr =  3.41E-11,  avg # of iterations =  2.0

     negative rho (up, down):  2.112E-03 0.000E+00

     total cpu time spent up to now is    21762.1 secs

     total energy              =  -12581.01360972 Ry
     Harris-Foulkes estimate   =  -12581.01360966 Ry
     estimated scf accuracy    <       0.00000013 Ry

     iteration # 43     ecut=    80.00 Ry     beta=0.70
     Davidson diagonalization with overlap
     ethr =  1.08E-11,  avg # of iterations =  2.2

     negative rho (up, down):  2.130E-03 0.000E+00

     total cpu time spent up to now is    22106.6 secs

     total energy              =  -12581.01360972 Ry
     Harris-Foulkes estimate   =  -12581.01360973 Ry
     estimated scf accuracy    <       0.00000002 Ry

     iteration # 44     ecut=    80.00 Ry     beta=0.70
     Davidson diagonalization with overlap
     ethr =  1.80E-12,  avg # of iterations =  3.0

     negative rho (up, down):  2.147E-03 0.000E+00

     total cpu time spent up to now is    22588.4 secs

     total energy              =  -12581.01360970 Ry
     Harris-Foulkes estimate   =  -12581.01360973 Ry
     estimated scf accuracy    <       0.00000001 Ry

     iteration # 45     ecut=    80.00 Ry     beta=0.70
     Davidson diagonalization with overlap
     ethr =  8.79E-13,  avg # of iterations =  2.7

     negative rho (up, down):  2.169E-03 0.000E+00

     total cpu time spent up to now is    22922.8 secs

     End of self-consistent calculation

          k = 0.0000 0.0000 0.0000 (256287 PWs)   bands (ev):

   -21.4238 -18.8714 -16.8136 -16.1715 -15.4283 -14.5943 -14.4862 -14.2557
   -13.9684 -13.7747 -13.2470 -13.0990 -12.5449 -11.9761 -11.9033 -11.1651
   -10.5007 -10.2644  -9.3524  -9.2402  -9.2112  -8.7845  -8.5679  -8.0581
    -7.8195  -7.6849  -7.4282  -7.3172  -6.8195  -6.7044  -6.5551  -6.3411
    -6.1499  -5.9527  -5.8048  -5.7959  -5.6979  -5.4915  -5.4379  -5.3468
    -5.1355  -5.0380  -4.8156  -4.7831  -4.5581  -4.3137  -4.3089  -4.3028
    -4.1782  -4.0117  -3.8122  -3.7268  -3.7226  -3.6777  -3.5892  -3.4492
    -3.4027  -3.3673  -3.3333  -3.3311  -3.3283  -3.3238  -3.3058  -3.2803
    -3.2542  -3.2177  -3.1694  -3.0360  -2.9680  -2.9102  -2.8991  -2.7768
    -2.7583  -2.6838  -2.6810  -2.6791  -2.6726  -2.5293  -2.5246  -2.4921
    -2.4916  -2.4902  -2.4880  -2.4555  -2.3994  -2.3950  -2.3920  -2.3868
    -2.3855  -2.3378  -2.3254  -2.2465  -2.1896  -2.1605  -2.1431  -2.1192
    -2.1172  -2.1157  -2.1131  -2.0968  -2.0697  -2.0575  -2.0307  -2.0200
    -2.0184  -2.0157  -2.0009  -1.9790  -1.9722  -1.9660  -1.9630  -1.9488
    -1.9447  -1.9321  -1.8774  -1.8762  -1.8736  -1.8665  -1.8211  -1.7797
    -1.7365  -1.7300  -1.7277  -1.7260  -1.7052  -1.6779  -1.6669  -1.6661
    -1.6572  -1.6113  -1.5893  -1.5852  -1.5706  -1.5693  -1.5438  -1.5422
    -1.5130  -1.4674  -1.4616  -1.4588  -1.4569  -1.4555  -1.4463  -1.4416
    -1.4343  -1.4294  -1.4237  -1.4200  -1.4144  -1.4079  -1.4074  -1.4017
    -1.4006  -1.3981  -1.3932  -1.3738  -1.3547  -1.3480  -1.3440  -1.3430
    -1.3377  -1.3362  -1.3344  -1.2957  -1.2879  -1.2820  -1.2729  -1.2672
    -1.2608  -1.2589  -1.2583  -1.2563  -1.2278  -1.2265  -1.2258  -1.2254
    -1.2209  -1.2184  -1.2182  -1.2162  -1.1859  -1.0970  -1.0920  -1.0899
    -1.0853  -1.0566  -1.0486  -1.0466  -1.0448  -1.0408  -1.0383  -1.0366
    -1.0360  -1.0312  -1.0203  -1.0186  -1.0004  -0.9838  -0.9819  -0.9756
    -0.9733  -0.9597  -0.9571  -0.9558  -0.9542  -0.9249  -0.9083  -0.8998
    -0.8730  -0.8581  -0.8534  -0.8512  -0.8492  -0.8473  -0.8365  -0.8356
    -0.8329  -0.8326  -0.8296  -0.8188  -0.8160  -0.8148  -0.8119  -0.8076
    -0.8013  -0.7999  -0.7833  -0.7824  -0.7770  -0.7427  -0.7392  -0.7171
    -0.7113  -0.7083  -0.7074  -0.7043  -0.7016  -0.7001  -0.6993  -0.6976
    -0.6953  -0.6884  -0.6775  -0.6723  -0.6719  -0.6690  -0.6686  -0.6663
    -0.6657  -0.6629  -0.6608  -0.6599  -0.6555  -0.6314  -0.6303  -0.6121
    -0.6100  -0.6091  -0.6046  -0.6024  -0.5980  -0.5848  -0.5821  -0.5575
    -0.5542  -0.5520  -0.5472  -0.5439  -0.5237  -0.5222  -0.5187  -0.5164
    -0.4971  -0.4958  -0.4929  -0.4888  -0.4793  -0.4777  -0.4768  -0.4745
    -0.4709  -0.4441  -0.4424  -0.4388  -0.4360  -0.4315  -0.4271  -0.4196
    -0.4134  -0.3874  -0.3838  -0.3828  -0.3810  -0.3766  -0.3710  -0.3590
    -0.3580  -0.3556  -0.3548  -0.3473  -0.3470  -0.3293  -0.3286  -0.3249
    -0.3208  -0.3158  -0.3125  -0.2973  -0.2941  -0.2862  -0.2858  -0.2780
    -0.2751  -0.2626  -0.2401  -0.2015  -0.1911  -0.1895  -0.1875  -0.1811
    -0.1807  -0.1790  -0.1706  -0.1682  -0.1663  -0.1606  -0.1598  -0.1590
    -0.1493  -0.1363  -0.1248  -0.1051  -0.0932  -0.0859  -0.0831  -0.0825
    -0.0757  -0.0736  -0.0719  -0.0521  -0.0465  -0.0391  -0.0230  -0.0176
    -0.0142  -0.0085  -0.0055   0.0105   0.0117   0.0167   0.0227   0.0295
     0.0407   0.0556   0.0586   0.0623   0.0625   0.0674   0.0694   0.0709
     0.0716   0.0803   0.0823   0.0850   0.0863   0.0902   0.0911   0.0952
     0.0976   0.0994   0.1038   0.1046   0.1060   0.1080   0.1149   0.1204
     0.1314   0.1386   0.1526   0.1633   0.1688   0.1699   0.1846   0.1858
     0.1904   0.2014   0.2026   0.2053   0.2070   0.2083   0.2092   0.2102
     0.2116   0.2158   0.2214   0.2230   0.2247   0.2278   0.2304   0.2349
     0.2531   0.2556   0.2569   0.2583   0.2626   0.2658   0.2693   0.2700
     0.2702   0.2762   0.2840   0.2946   0.3160   0.3208   0.3227   0.3302
     0.3453   0.3474   0.3493   0.3569   0.3696   0.3720   0.3750   0.3763
     0.3863   0.3888   0.3902   0.4001   0.4046   0.4052   0.4119   0.4202
     0.4240   0.4256   0.4312   0.4426   0.4457   0.4633   0.4685   0.4692
     0.4717   0.4750   0.4777   0.4879   0.4928   0.4988   0.5100   0.5119
     0.5195   0.5219   0.5229   0.5252   0.5304   0.5338   0.5405   0.5440
     0.5444   0.5472   0.5524   0.5535   0.5580   0.5595   0.5659   0.5673
     0.5685   0.5743   0.5781   0.5788   0.5818   0.5902   0.5928   0.6035
     0.6099   0.6118   0.6158   0.6219   0.6326   0.6384   0.6398   0.6408
     0.6431   0.6443   0.6458   0.6467   0.6483   0.6491   0.6508   0.6538
     0.6609   0.6616   0.6649   0.6724   0.6923   0.6940   0.7006   0.7033
     0.7070   0.7119   0.7179   0.7210   0.7324   0.7357   0.7409   0.7518
     0.7563   0.7637   0.7665   0.7692   0.7708   0.7738   0.7817   0.7884
     0.7974   0.7991   0.7999   0.8030   0.8037   0.8053   0.8080   0.8088
     0.8104   0.8114   0.8288   0.8314   0.8330   0.8345   0.8354   0.8363
     0.8375   0.8389   0.8402   0.8420   0.8424   0.8499   0.8573   0.8628
     0.8638   0.8647   0.8759   0.8860   0.8905   0.8961   0.9047   0.9114
     0.9138   0.9168   0.9189   0.9262   0.9271   0.9291   0.9301   0.9312
     0.9318   0.9328   0.9340   0.9355   0.9377   0.9384   0.9413   0.9472
     0.9563   0.9595   0.9614   0.9713   0.9743   0.9899   0.9934   0.9961
     0.9976   0.9990   1.0029   1.0090   1.0095   1.0150   1.0225   1.0265
     1.0393   1.0522   1.0566   1.0749   1.0832   1.0920   1.1036   1.1227
     1.1349   1.1355   1.1414   1.1425   1.1468   1.1482   1.1562   1.1585
     1.1594   1.1634   1.2000   1.4486   1.4766   1.5432   1.5604   1.5795
     1.5904   1.6357   1.7170   1.7446   1.7453   1.7480   1.7507   1.7521
     1.7545   1.7650   1.8460   1.8662   1.9161   1.9286   1.9454   1.9516
     1.9656   1.9810   2.0506   2.2252   2.2367   2.2406   2.2553   2.5120
     2.9019   2.9299   3.0143   3.2333   3.2571   3.2855   3.3208   3.3474
     3.3564   3.3599   3.3896   3.4107   3.4490   3.5251   3.5537   3.5637
     3.5664   3.5697   3.5770   3.5857   3.5932   3.6249   3.6530   3.7184
     3.7720   4.2343   4.3997   4.5503   4.6781   4.7721   4.8141   4.8721
     4.9568   4.9835   5.0435   5.1168   5.1607   5.3774   5.5319   5.5466
     5.5783   5.6751   5.7897   5.8331   5.8653   5.9219   5.9358   6.0528
     6.1056   6.1317   6.1564   6.1621   6.2328   6.2953   6.3399   6.3942
     6.4045   6.4448   6.4749   6.5090   6.5659   6.7747   6.8472   6.8805
     6.8894   7.0826   7.1981   7.2206   7.2382   7.2467   7.3277   7.3935
     7.4247   7.4765   7.5364   7.5868   7.6231   7.6511   7.6958   7.7671
     7.7817   7.8139   7.8615   7.9010   7.9082   7.9369   7.9446   7.9567
     7.9632   8.0169   8.0334   8.1330   8.1684   8.1812   8.1998   8.2226
     8.2925   8.3130   8.3553   8.3742   8.4290   8.4445   8.4903   8.5235
     8.5865   8.6733   8.7156   8.7345   8.8222   8.8391   8.8534   9.0626
     9.0938   9.1134   9.1145   9.1715   9.2275   9.2803   9.3723   9.3808
     9.5247

          k = 0.0000-0.2165 0.0000 (256176 PWs)   bands (ev):

   -21.4238 -18.8714 -16.8136 -16.1715 -15.4284 -14.5943 -14.4862 -14.2556
   -13.9684 -13.7746 -13.2471 -13.0991 -12.5450 -11.9759 -11.9032 -11.1650
   -10.5009 -10.2636  -9.3534  -9.2412  -9.2112  -8.7843  -8.5677  -8.0575
    -7.8172  -7.6844  -7.4282  -7.3192  -6.8198  -6.7046  -6.5554  -6.2203
    -6.2074  -6.1331  -5.9447  -5.6979  -5.4916  -5.4375  -5.2788  -5.1886
    -5.1608  -5.1529  -5.0599  -5.0221  -4.5831  -4.3288  -4.2633  -4.1762
    -4.1370  -3.9759  -3.8058  -3.6284  -3.6277  -3.6195  -3.6119  -3.6095
    -3.5615  -3.5358  -3.3638  -3.3585  -3.3542  -3.2997  -3.2592  -3.2451
    -3.0360  -2.9819  -2.9107  -2.9074  -2.9071  -2.9050  -2.8543  -2.8521
    -2.8377  -2.8294  -2.7698  -2.7613  -2.7355  -2.6988  -2.6044  -2.5863
    -2.5084  -2.5082  -2.5043  -2.4994  -2.4161  -2.3543  -2.3535  -2.3414
    -2.3353  -2.3290  -2.3149  -2.3114  -2.3107  -2.1751  -2.1724  -2.1247
    -2.1143  -2.1131  -2.1014  -2.0988  -2.0915  -2.0850  -2.0789  -2.0682
    -2.0585  -2.0485  -2.0159  -2.0040  -1.9957  -1.9331  -1.9040  -1.8920
    -1.8872  -1.7792  -1.7758  -1.7745  -1.7646  -1.7629  -1.7510  -1.6995
    -1.6959  -1.6883  -1.6794  -1.6735  -1.6636  -1.6597  -1.6557  -1.6513
    -1.6490  -1.6425  -1.6403  -1.6352  -1.6299  -1.6179  -1.6150  -1.5988
    -1.5891  -1.5836  -1.5709  -1.5266  -1.5149  -1.4746  -1.4714  -1.4505
    -1.4447  -1.4308  -1.4295  -1.4280  -1.4242  -1.4237  -1.4120  -1.4039
    -1.3965  -1.3636  -1.3607  -1.3561  -1.3455  -1.3337  -1.3312  -1.3300
    -1.3286  -1.3249  -1.3230  -1.3226  -1.3107  -1.3008  -1.2991  -1.2677
    -1.2652  -1.2571  -1.2426  -1.2360  -1.2343  -1.2298  -1.2223  -1.2198
    -1.2127  -1.1906  -1.1841  -1.1815  -1.1792  -1.1545  -1.1505  -1.0307
    -1.0301  -1.0288  -1.0251  -1.0243  -1.0234  -1.0182  -1.0076  -1.0047
    -1.0043  -1.0034  -1.0019  -1.0009  -0.9715  -0.9704  -0.9697  -0.9658
    -0.9628  -0.9591  -0.9579  -0.9528  -0.9454  -0.9396  -0.9322  -0.9276
    -0.9192  -0.9128  -0.9126  -0.8882  -0.8877  -0.8788  -0.8717  -0.8687
    -0.8628  -0.8583  -0.8524  -0.8493  -0.8424  -0.8352  -0.8189  -0.7868
    -0.7565  -0.7530  -0.7473  -0.7471  -0.7383  -0.7369  -0.7307  -0.7247
    -0.7209  -0.7199  -0.7086  -0.7070  -0.7048  -0.7021  -0.6996  -0.6982
    -0.6955  -0.6935  -0.6930  -0.6885  -0.6870  -0.6819  -0.6688  -0.6649
    -0.6609  -0.6573  -0.6360  -0.6355  -0.6328  -0.6313  -0.6123  -0.6036
    -0.5979  -0.5846  -0.5798  -0.5784  -0.5756  -0.5741  -0.5705  -0.5680
    -0.5662  -0.5598  -0.5586  -0.5515  -0.5487  -0.5434  -0.5222  -0.5207
    -0.5192  -0.5093  -0.4983  -0.4966  -0.4942  -0.4853  -0.4555  -0.4537
    -0.4529  -0.4516  -0.4477  -0.4457  -0.4405  -0.4358  -0.4251  -0.4163
    -0.3958  -0.3852  -0.3803  -0.3798  -0.3749  -0.3706  -0.3663  -0.3598
    -0.3567  -0.3541  -0.3509  -0.3478  -0.3474  -0.3450  -0.3446  -0.3282
    -0.3278  -0.3242  -0.3137  -0.3046  -0.3004  -0.2989  -0.2958  -0.2636
    -0.2619  -0.2369  -0.2364  -0.2295  -0.2215  -0.2207  -0.2149  -0.2139
    -0.1985  -0.1913  -0.1901  -0.1806  -0.1609  -0.1458  -0.1416  -0.1079
    -0.0984  -0.0966  -0.0871  -0.0536  -0.0531  -0.0509  -0.0459  -0.0441
    -0.0372  -0.0370  -0.0276  -0.0270  -0.0225  -0.0161  -0.0088  -0.0041
    -0.0018  -0.0013   0.0012   0.0038   0.0104   0.0147   0.0154   0.0204
     0.0206   0.0278   0.0342   0.0445   0.0485   0.0543   0.0562   0.0564
     0.0571   0.0594   0.0607   0.0631   0.0657   0.0706   0.0819   0.0829
     0.0878   0.0884   0.0939   0.0962   0.1069   0.1114   0.1255   0.1263
     0.1317   0.1330   0.1380   0.1424   0.1444   0.1487   0.1513   0.1523
     0.1600   0.1727   0.1772   0.1800   0.1899   0.1957   0.2035   0.2060
     0.2116   0.2131   0.2153   0.2214   0.2230   0.2235   0.2263   0.2286
     0.2423   0.2464   0.2595   0.2620   0.2648   0.2657   0.2719   0.2846
     0.2868   0.2959   0.3023   0.3058   0.3085   0.3165   0.3190   0.3221
     0.3317   0.3352   0.3435   0.3510   0.3673   0.3771   0.4131   0.4238
     0.4270   0.4295   0.4375   0.4392   0.4427   0.4477   0.4512   0.4516
     0.4534   0.4557   0.4561   0.4578   0.4586   0.4667   0.4738   0.4748
     0.4777   0.4832   0.4874   0.4890   0.4900   0.4908   0.4923   0.4986
     0.5020   0.5104   0.5111   0.5127   0.5128   0.5132   0.5156   0.5176
     0.5219   0.5231   0.5244   0.5283   0.5317   0.5436   0.5442   0.5453
     0.5513   0.5597   0.5628   0.5655   0.5665   0.5670   0.5687   0.5715
     0.5738   0.5793   0.5835   0.5859   0.5911   0.6193   0.6204   0.6323
     0.6512   0.6555   0.6642   0.6677   0.6685   0.6925   0.7013   0.7015
     0.7050   0.7063   0.7082   0.7114   0.7144   0.7166   0.7182   0.7215
     0.7223   0.7242   0.7271   0.7293   0.7310   0.7321   0.7354   0.7374
     0.7415   0.7443   0.7469   0.7493   0.7505   0.7510   0.7568   0.7584
     0.7676   0.7694   0.7738   0.7823   0.7863   0.7914   0.7934   0.7937
     0.7960   0.8012   0.8082   0.8154   0.8160   0.8167   0.8193   0.8244
     0.8307   0.8386   0.8458   0.8478   0.8512   0.8562   0.8593   0.8622
     0.8667   0.8763   0.8828   0.8844   0.8869   0.8893   0.8895   0.8942
     0.8951   0.8955   0.9074   0.9118   0.9121   0.9176   0.9178   0.9243
     0.9291   0.9436   0.9479   0.9612   0.9621   0.9650   0.9659   0.9690
     0.9711   0.9722   0.9755   0.9776   0.9813   0.9862   0.9895   1.0091
     1.0113   1.0131   1.0136   1.0148   1.0177   1.0255   1.0281   1.0481
     1.0533   1.0844   1.0856   1.0867   1.0886   1.0893   1.0915   1.0939
     1.0948   1.1735   1.1748   1.1874   1.2204   1.2803   1.2865   1.2937
     1.2971   1.3003   1.3030   1.3352   1.3434   1.3465   1.3490   1.3518
     1.3565   1.3695   1.3788   1.6008   1.8645   1.8774   1.8834   1.8884
     1.9584   2.0392   2.0437   2.0542   2.0670   2.0731   2.1198   2.1368
     2.1433   2.1560   2.2023   2.2323   2.2362   2.2459   2.2582   2.4720
     2.4774   2.6890   2.7010   2.7070   2.7072   2.7348   2.7716   3.0279
     3.1753   3.1781   3.4068   3.4617   3.4818   3.4874   3.6507   3.7522
     3.7593   3.7723   3.7790   3.8063   3.8711   3.9078   3.9722   4.0522
     4.1507   4.2673   4.6770   4.7047   4.7198   4.7362   4.8821   4.8910
     4.9099   4.9161   4.9653   5.0345   5.1862   5.2160   5.3244   5.5195
     5.6219   5.6466   5.7274   5.7517   5.8043   5.9652   5.9729   6.0586
     6.1037   6.1338   6.1906   6.2084   6.3091   6.3554   6.3948   6.5172
     6.5656   6.5888   6.6110   6.6164   6.6226   6.6363   6.6441   6.6541
     6.6908   6.7192   6.8017   6.8216   6.8697   6.9730   7.0873   7.3132
     7.4597   7.4670   7.5018   7.5643   7.5810   7.6389   7.7158   7.7467
     7.7624   7.8770   7.8879   7.9131   7.9427   7.9831   8.0978   8.1164
     8.1282   8.1413   8.1457   8.2317   8.2414   8.2643   8.2799   8.3752
     8.4583   8.4690   8.4807   8.6060   8.6226   8.6625   8.7067   8.7198
     8.8013   8.8555   8.8687   8.8790   8.9201   8.9445   8.9546   8.9744
     8.9873   9.0003   9.0045   9.0959   9.1474   9.2494   9.3290   9.3916
     9.4034

          k = 0.2500 0.0000 0.0000 (256240 PWs)   bands (ev):

   -21.4237 -18.8715 -16.7548 -16.0785 -15.4637 -15.1627 -14.7530 -14.2269
   -13.7342 -13.4045 -13.0270 -12.8472 -12.3494 -12.0381 -11.5487 -11.1113
   -10.8594 -10.3910 -10.1076  -9.5706  -9.2801  -9.2097  -8.7417  -8.2678
    -7.8693  -7.4299  -7.2084  -6.9445  -6.8203  -6.4366  -6.2879  -6.1627
    -6.0127  -5.8469  -5.6308  -5.6264  -5.4056  -5.2458  -5.1628  -5.0814
    -4.8947  -4.7804  -4.6623  -4.6257  -4.4854  -4.4305  -4.3310  -4.3203
    -4.3014  -4.1672  -4.1610  -4.1064  -4.0239  -3.8881  -3.8697  -3.8442
    -3.7804  -3.5686  -3.5283  -3.4983  -3.4716  -3.3960  -3.3711  -3.3080
    -3.2967  -3.2699  -3.1445  -3.1282  -3.1262  -3.1002  -3.0750  -2.9624
    -2.8631  -2.7435  -2.7293  -2.6948  -2.6814  -2.4730  -2.4452  -2.4365
    -2.4327  -2.4169  -2.4125  -2.3555  -2.3265  -2.2970  -2.2122  -2.1942
    -2.1889  -2.1710  -2.1705  -2.1691  -2.1501  -2.1478  -2.1463  -2.1345
    -2.1015  -2.0749  -2.0464  -2.0222  -2.0161  -2.0027  -1.9813  -1.9689
    -1.9639  -1.9615  -1.9540  -1.9485  -1.9472  -1.9441  -1.9404  -1.8990
    -1.8927  -1.8895  -1.8611  -1.8587  -1.7775  -1.7283  -1.7177  -1.7156
    -1.6991  -1.6923  -1.6670  -1.6629  -1.6379  -1.6356  -1.6190  -1.6160
    -1.5960  -1.5874  -1.5819  -1.5757  -1.5724  -1.5684  -1.5590  -1.5552
    -1.5507  -1.5300  -1.5133  -1.5124  -1.5066  -1.5063  -1.5045  -1.5016
    -1.4944  -1.4775  -1.4305  -1.4281  -1.4237  -1.4212  -1.4199  -1.4176
    -1.4155  -1.4091  -1.4074  -1.4067  -1.4039  -1.3944  -1.3869  -1.3843
    -1.3808  -1.3768  -1.3730  -1.3701  -1.3652  -1.3600  -1.3570  -1.3453
    -1.3230  -1.3158  -1.2717  -1.2704  -1.2639  -1.2207  -1.1933  -1.1922
    -1.1738  -1.1729  -1.1708  -1.1678  -1.1656  -1.1610  -1.1600  -1.1533
    -1.1469  -1.1428  -1.1376  -1.1355  -1.0404  -1.0334  -1.0243  -1.0175
    -1.0116  -0.9983  -0.9932  -0.9858  -0.9789  -0.9713  -0.9542  -0.9526
    -0.9478  -0.9454  -0.9450  -0.9412  -0.9375  -0.9357  -0.9291  -0.9241
    -0.9223  -0.9192  -0.9018  -0.8990  -0.8811  -0.8752  -0.8742  -0.8333
    -0.8228  -0.8199  -0.8181  -0.8094  -0.8050  -0.7997  -0.7975  -0.7947
    -0.7900  -0.7848  -0.7833  -0.7808  -0.7744  -0.7696  -0.7636  -0.7436
    -0.7316  -0.7254  -0.7251  -0.7213  -0.7186  -0.7046  -0.6961  -0.6884
    -0.6853  -0.6822  -0.6798  -0.6769  -0.6728  -0.6683  -0.6594  -0.6379
    -0.6358  -0.6345  -0.6287  -0.6238  -0.6152  -0.6126  -0.6105  -0.6095
    -0.6070  -0.6036  -0.6032  -0.5995  -0.5593  -0.5543  -0.5493  -0.5481
    -0.5378  -0.5227  -0.5157  -0.4856  -0.4831  -0.4810  -0.4801  -0.4784
    -0.4754  -0.4733  -0.4715  -0.4699  -0.4623  -0.4559  -0.4537  -0.4475
    -0.4397  -0.4382  -0.4302  -0.4216  -0.4199  -0.4157  -0.4127  -0.4100
    -0.4079  -0.4016  -0.3988  -0.3952  -0.3908  -0.3884  -0.3823  -0.3652
    -0.3540  -0.3406  -0.3368  -0.3321  -0.3280  -0.3212  -0.3204  -0.3176
    -0.3159  -0.3063  -0.3053  -0.2772  -0.2761  -0.2666  -0.2584  -0.2444
    -0.2210  -0.2187  -0.2147  -0.1855  -0.1790  -0.1715  -0.1698  -0.1681
    -0.1566  -0.1523  -0.1431  -0.1412  -0.1322  -0.1306  -0.1280  -0.1262
    -0.1232  -0.1219  -0.1164  -0.1145  -0.1128  -0.1106  -0.1091  -0.1049
    -0.1004  -0.0975  -0.0890  -0.0828  -0.0764  -0.0680  -0.0625  -0.0577
    -0.0499  -0.0337  -0.0305  -0.0240  -0.0213  -0.0153  -0.0020  -0.0002
     0.0054   0.0113   0.0164   0.0217   0.0280   0.0320   0.0433   0.0521
     0.0550   0.0610   0.0641   0.0652   0.0674   0.0684   0.0741   0.0777
     0.0817   0.0855   0.0866   0.0942   0.1044   0.1060   0.1105   0.1178
     0.1214   0.1253   0.1316   0.1367   0.1408   0.1436   0.1463   0.1507
     0.1535   0.1550   0.1569   0.1641   0.1691   0.1763   0.1831   0.1875
     0.1903   0.1949   0.1984   0.2026   0.2036   0.2099   0.2147   0.2495
     0.2550   0.2576   0.2619   0.2855   0.2875   0.2920   0.2929   0.2956
     0.2988   0.2999   0.3040   0.3121   0.3140   0.3172   0.3307   0.3351
     0.3411   0.3443   0.3602   0.3689   0.3697   0.3756   0.3902   0.3918
     0.3930   0.3998   0.4018   0.4075   0.4147   0.4163   0.4192   0.4206
     0.4240   0.4316   0.4351   0.4386   0.4429   0.4519   0.4592   0.4625
     0.4674   0.4691   0.4733   0.4844   0.4877   0.4978   0.5032   0.5112
     0.5183   0.5215   0.5292   0.5396   0.5416   0.5455   0.5481   0.5491
     0.5502   0.5520   0.5569   0.5588   0.5615   0.5629   0.5675   0.5720
     0.5730   0.5739   0.5755   0.5771   0.5809   0.5885   0.5940   0.5961
     0.5996   0.6022   0.6047   0.6071   0.6144   0.6171   0.6177   0.6227
     0.6309   0.6326   0.6359   0.6394   0.6430   0.6470   0.6477   0.6496
     0.6517   0.6538   0.6573   0.6614   0.6704   0.6862   0.6889   0.6970
     0.7001   0.7107   0.7152   0.7174   0.7207   0.7278   0.7336   0.7349
     0.7379   0.7417   0.7537   0.7619   0.7705   0.7740   0.7760   0.7779
     0.7802   0.7827   0.7866   0.7968   0.8003   0.8046   0.8061   0.8142
     0.8154   0.8196   0.8217   0.8228   0.8244   0.8263   0.8280   0.8317
     0.8350   0.8393   0.8403   0.8453   0.8503   0.8532   0.8586   0.8628
     0.8662   0.8682   0.8699   0.8745   0.8760   0.8820   0.8921   0.9012
     0.9030   0.9100   0.9171   0.9278   0.9304   0.9356   0.9394   0.9426
     0.9440   0.9497   0.9503   0.9515   0.9538   0.9559   0.9586   0.9605
     0.9620   0.9635   0.9655   0.9752   0.9805   0.9835   0.9868   0.9916
     0.9938   0.9949   0.9965   0.9983   1.0011   1.0078   1.0145   1.0164
     1.0196   1.0228   1.0327   1.0399   1.0434   1.0570   1.0707   1.0768
     1.0828   1.1054   1.1270   1.1295   1.1357   1.1412   1.1528   1.1578
     1.2001   1.2401   1.2556   1.2862   1.3072   1.3135   1.3298   1.3563
     1.5417   1.5496   1.5582   1.5724   1.5787   1.5808   1.6591   1.6697
     1.7118   1.8325   2.0543   2.0614   2.0663   2.0794   2.4273   2.5332
     2.5356   2.6527   2.6859   2.7244   2.7291   2.7615   2.7720   2.7732
     2.8097   2.9295   2.9722   2.9937   3.1527   3.1628   3.1796   3.2054
     3.2172   3.2441   3.3151   3.3260   3.3797   3.3934   3.4066   3.4760
     3.5752   3.8556   3.8886   3.9411   3.9802   4.2864   4.4009   4.4271
     4.4540   4.5635   4.7335   4.7411   4.7564   4.7781   4.8053   4.8539
     4.8833   4.9008   4.9157   4.9656   4.9986   5.0075   5.0243   5.1205
     5.1327   5.1593   5.1960   5.3965   5.5263   5.5432   5.5892   5.6039
     5.8126   5.9470   6.0197   6.1298   6.1855   6.2927   6.3243   6.3713
     6.4731   6.4879   6.5079   6.5213   6.5318   6.5463   6.5755   6.6001
     6.6553   6.6721   6.7337   6.8128   6.8854   6.9606   7.0012   7.0474
     7.0566   7.1218   7.1909   7.4331   7.4521   7.4844   7.5240   7.5491
     7.5718   7.5927   7.6154   7.6472   7.6603   7.7275   7.7635   7.8188
     7.9012   7.9591   7.9831   8.0396   8.0526   8.3491   8.3939   8.4330
     8.4814   8.5015   8.5242   8.5400   8.5429   8.5815   8.6015   8.6093
     8.6307   8.6556   8.6960   8.7518   8.7746   8.8385   8.9431   8.9857
     9.0025   9.0609   9.0881   9.1477   9.1574   9.1654   9.2262   9.3289
     9.3490

          k = 0.2500-0.2165 0.0000 (256316 PWs)   bands (ev):

   -21.4237 -18.8715 -16.7548 -16.0784 -15.4637 -15.1627 -14.7530 -14.2269
   -13.7341 -13.4045 -13.0271 -12.8472 -12.3497 -12.0382 -11.5487 -11.1112
   -10.8590 -10.3907 -10.1075  -9.5708  -9.2807  -9.2103  -8.7427  -8.2675
    -7.8659  -7.4299  -7.2089  -6.9455  -6.8209  -6.4367  -6.2879  -6.0598
    -6.0299  -5.9754  -5.8448  -5.4047  -5.2398  -5.1420  -5.0266  -5.0039
    -4.9919  -4.9811  -4.8566  -4.6701  -4.6547  -4.4894  -4.4495  -4.3308
    -4.1523  -4.0755  -4.0387  -3.9859  -3.8728  -3.8603  -3.7894  -3.7828
    -3.7781  -3.7637  -3.7248  -3.5588  -3.4379  -3.4243  -3.3862  -3.3375
    -3.2705  -3.2347  -3.2324  -3.1360  -3.0849  -3.0760  -2.9857  -2.8658
    -2.7646  -2.6537  -2.6497  -2.6392  -2.6142  -2.5575  -2.5390  -2.5078
    -2.5075  -2.4523  -2.4267  -2.4109  -2.3813  -2.3800  -2.2842  -2.2547
    -2.2215  -2.2143  -2.1545  -2.1522  -2.1068  -2.0999  -2.0900  -2.0831
    -2.0820  -2.0750  -2.0710  -2.0672  -2.0618  -2.0501  -2.0464  -2.0374
    -2.0204  -2.0157  -1.9877  -1.9441  -1.9354  -1.9060  -1.8522  -1.8463
    -1.8234  -1.8053  -1.7350  -1.7303  -1.7177  -1.7079  -1.6825  -1.6748
    -1.6653  -1.6617  -1.6549  -1.6434  -1.6424  -1.6405  -1.6383  -1.6358
    -1.6278  -1.6268  -1.6031  -1.5988  -1.5963  -1.5938  -1.5910  -1.5800
    -1.5719  -1.5584  -1.5527  -1.5454  -1.5204  -1.5168  -1.5092  -1.4978
    -1.4963  -1.4954  -1.4857  -1.4733  -1.4431  -1.4425  -1.4412  -1.4363
    -1.4021  -1.3971  -1.3942  -1.3926  -1.3844  -1.3744  -1.3731  -1.3704
    -1.3698  -1.3665  -1.3618  -1.3612  -1.3568  -1.3513  -1.3482  -1.3401
    -1.3281  -1.3247  -1.2465  -1.2446  -1.2441  -1.2357  -1.2101  -1.2069
    -1.1901  -1.1870  -1.1697  -1.1609  -1.1531  -1.1337  -1.1301  -1.1277
    -1.1266  -1.1135  -1.1090  -1.0796  -1.0753  -1.0690  -1.0650  -1.0323
    -1.0233  -1.0204  -1.0163  -1.0117  -0.9818  -0.9804  -0.9793  -0.9751
    -0.9574  -0.9555  -0.9501  -0.9364  -0.9268  -0.9227  -0.9156  -0.9009
    -0.8983  -0.8956  -0.8875  -0.8585  -0.8497  -0.8394  -0.8385  -0.8366
    -0.8347  -0.8302  -0.8265  -0.8250  -0.8167  -0.8055  -0.8033  -0.7997
    -0.7979  -0.7942  -0.7915  -0.7876  -0.7867  -0.7801  -0.7653  -0.7612
    -0.7571  -0.7515  -0.7381  -0.7328  -0.7317  -0.7230  -0.7153  -0.7127
    -0.7016  -0.6851  -0.6746  -0.6715  -0.6701  -0.6683  -0.6668  -0.6657
    -0.6644  -0.6621  -0.6459  -0.6248  -0.6151  -0.6046  -0.6016  -0.5764
    -0.5748  -0.5732  -0.5708  -0.5654  -0.5426  -0.5416  -0.5382  -0.5338
    -0.5300  -0.5267  -0.5193  -0.5156  -0.5016  -0.4951  -0.4770  -0.4698
    -0.4686  -0.4610  -0.4530  -0.4478  -0.4423  -0.4409  -0.4339  -0.4307
    -0.4257  -0.4247  -0.4204  -0.4168  -0.4142  -0.4107  -0.4078  -0.4071
    -0.4040  -0.3949  -0.3866  -0.3821  -0.3794  -0.3776  -0.3691  -0.3649
    -0.3581  -0.3550  -0.3483  -0.3470  -0.3315  -0.3195  -0.3129  -0.3113
    -0.3089  -0.3025  -0.2958  -0.2759  -0.2713  -0.2687  -0.2639  -0.2629
    -0.2565  -0.2537  -0.2358  -0.2323  -0.1999  -0.1937  -0.1899  -0.1582
    -0.1535  -0.1477  -0.1446  -0.1418  -0.1400  -0.1387  -0.1358  -0.1340
    -0.1323  -0.1266  -0.1251  -0.1232  -0.1206  -0.1118  -0.1100  -0.0881
    -0.0855  -0.0803  -0.0780  -0.0744  -0.0733  -0.0700  -0.0671  -0.0649
    -0.0617  -0.0385  -0.0258  -0.0224  -0.0154  -0.0130  -0.0096  -0.0017
     0.0029   0.0201   0.0278   0.0309   0.0315   0.0366   0.0387   0.0460
     0.0474   0.0515   0.0525   0.0562   0.0599   0.0647   0.0701   0.0805
     0.0927   0.1010   0.1269   0.1302   0.1314   0.1326   0.1355   0.1423
     0.1446   0.1478   0.1490   0.1520   0.1546   0.1559   0.1698   0.1721
     0.1735   0.1758   0.1851   0.1924   0.2054   0.2076   0.2101   0.2134
     0.2141   0.2159   0.2215   0.2287   0.2313   0.2327   0.2369   0.2382
     0.2415   0.2421   0.2444   0.2466   0.2485   0.2562   0.2617   0.2632
     0.2706   0.2721   0.2812   0.2881   0.2908   0.2928   0.2942   0.3003
     0.3403   0.3413   0.3483   0.3535   0.3540   0.3639   0.3760   0.3769
     0.3775   0.3793   0.3815   0.3852   0.3869   0.3891   0.3923   0.3932
     0.4063   0.4079   0.4183   0.4228   0.4280   0.4328   0.4400   0.4439
     0.4532   0.4568   0.4646   0.4658   0.4670   0.4705   0.4717   0.4766
     0.4828   0.4922   0.4965   0.4992   0.4997   0.5033   0.5238   0.5300
     0.5361   0.5384   0.5479   0.5487   0.5806   0.5837   0.5871   0.5954
     0.6075   0.6119   0.6146   0.6160   0.6179   0.6191   0.6217   0.6232
     0.6241   0.6271   0.6306   0.6320   0.6334   0.6351   0.6368   0.6391
     0.6412   0.6466   0.6499   0.6570   0.6698   0.6730   0.6753   0.6816
     0.6852   0.6888   0.6910   0.6953   0.7005   0.7028   0.7047   0.7097
     0.7161   0.7178   0.7187   0.7241   0.7264   0.7290   0.7316   0.7362
     0.7381   0.7408   0.7455   0.7474   0.7513   0.7538   0.7556   0.7574
     0.7604   0.7642   0.7740   0.7767   0.7817   0.7869   0.7901   0.7928
     0.7989   0.8138   0.8162   0.8186   0.8270   0.8285   0.8292   0.8319
     0.8358   0.8453   0.8493   0.8524   0.8535   0.8596   0.8614   0.8688
     0.8766   0.8799   0.8836   0.8884   0.8891   0.8918   0.8956   0.8974
     0.8984   0.9006   0.9025   0.9053   0.9191   0.9257   0.9298   0.9357
     0.9374   0.9402   0.9411   0.9441   0.9446   0.9485   0.9551   0.9569
     0.9592   0.9710   0.9731   0.9751   0.9757   0.9764   0.9769   0.9807
     0.9913   0.9931   0.9986   1.0032   1.0053   1.0201   1.0241   1.0257
     1.0276   1.0305   1.0309   1.0334   1.0382   1.0551   1.0567   1.0678
     1.0706   1.1115   1.1174   1.1462   1.1570   1.1693   1.2254   1.2287
     1.2337   1.2570   1.2644   1.2709   1.2735   1.2777   1.2823   1.2891
     1.2900   1.3611   1.6628   1.6644   1.6828   1.6866   1.7711   1.7734
     1.8225   2.1301   2.1334   2.2166   2.2382   2.2448   2.2628   2.3025
     2.3095   2.3584   2.3626   2.4835   2.4925   2.5017   2.5081   2.7612
     2.9595   2.9842   2.9934   3.0081   3.0196   3.0919   3.3386   3.3482
     3.3528   3.3699   3.4957   3.5036   3.6824   3.6854   3.7213   3.7247
     3.8560   3.9215   3.9401   3.9441   3.9972   4.1322   4.1878   4.2002
     4.2180   4.2550   4.2909   4.3315   4.4990   4.5902   4.6881   4.7642
     4.8103   4.8391   4.8917   4.9321   4.9601   4.9869   5.2044   5.2460
     5.3022   5.3394   5.3522   5.5392   5.5694   5.7457   5.8125   5.8607
     5.9716   6.0665   6.0976   6.1080   6.1246   6.1891   6.1983   6.2543
     6.3210   6.4263   6.4985   6.5245   6.5322   6.6691   6.6784   6.6892
     6.7367   6.7459   6.8154   6.8531   6.9155   6.9535   6.9697   7.0016
     7.0617   7.0914   7.1768   7.2255   7.2397   7.3888   7.4601   7.5724
     7.7141   7.7366   7.7508   7.7573   7.8262   7.8838   7.9395   8.0051
     8.0171   8.0380   8.0740   8.0951   8.1108   8.1176   8.1535   8.2209
     8.2725   8.2889   8.3720   8.3885   8.4588   8.5208   8.5571   8.6771
     8.7050   8.7097   8.7181   8.7393   8.7661   8.7767   8.7903   8.8215
     8.8484   8.9348   9.0071   9.0364   9.1021   9.1104   9.1286   9.1609
     9.2043

          k =-0.5000 0.0000 0.0000 (256496 PWs)   bands (ev):

   -21.4236 -18.8717 -16.6824 -15.8973 -15.7059 -15.3383 -14.9046 -14.4187
   -13.7491 -13.1830 -12.4036 -12.2837 -12.0745 -11.8184 -11.6952 -11.6115
   -11.1742 -10.5907 -10.5150  -9.7569  -9.4271  -9.1216  -8.9366  -8.4363
    -8.2509  -7.7854  -7.3518  -6.7609  -6.2888  -5.9260  -5.6326  -5.6247
    -5.5568  -5.4605  -5.4188  -5.1724  -5.1537  -5.1256  -5.1212  -5.1204
    -5.0845  -5.0474  -4.8338  -4.6407  -4.6082  -4.5933  -4.4910  -4.3029
    -4.2079  -4.1924  -4.1807  -4.1640  -4.1608  -4.0415  -3.9762  -3.9327
    -3.8932  -3.7471  -3.7430  -3.7387  -3.7362  -3.6967  -3.5836  -3.4446
    -3.4377  -3.3766  -3.1063  -3.0934  -3.0495  -3.0429  -3.0313  -3.0157
    -2.9401  -2.8956  -2.8355  -2.7885  -2.7619  -2.7470  -2.6823  -2.5143
    -2.4455  -2.3887  -2.2283  -2.2249  -2.2235  -2.2203  -2.2186  -2.2176
    -2.2063  -2.2017  -2.1910  -2.1588  -2.0359  -2.0289  -2.0263  -2.0257
    -2.0223  -1.9614  -1.9579  -1.9530  -1.9514  -1.9489  -1.9456  -1.8893
    -1.8865  -1.8237  -1.8129  -1.8093  -1.8078  -1.8057  -1.7948  -1.7905
    -1.7866  -1.7715  -1.7684  -1.7501  -1.7483  -1.7416  -1.7197  -1.7185
    -1.7172  -1.7118  -1.6998  -1.6988  -1.6960  -1.6900  -1.6549  -1.6477
    -1.6459  -1.6445  -1.6396  -1.6019  -1.6009  -1.5944  -1.5935  -1.5859
    -1.5754  -1.5722  -1.5709  -1.5671  -1.5656  -1.5441  -1.5427  -1.5377
    -1.5229  -1.5072  -1.5065  -1.5041  -1.4937  -1.4569  -1.4491  -1.4419
    -1.4379  -1.4349  -1.4234  -1.4190  -1.3778  -1.3715  -1.3704  -1.3636
    -1.3562  -1.3549  -1.3537  -1.3490  -1.3345  -1.3331  -1.3325  -1.3314
    -1.3257  -1.3228  -1.3184  -1.3074  -1.2993  -1.2960  -1.2738  -1.2725
    -1.2583  -1.2545  -1.2523  -1.2508  -1.2164  -1.2123  -1.1044  -1.0923
    -1.0919  -1.0906  -1.0887  -1.0865  -1.0833  -1.0778  -1.0734  -1.0681
    -1.0614  -1.0534  -1.0512  -1.0469  -1.0448  -1.0381  -1.0291  -1.0290
    -1.0275  -1.0255  -1.0202  -0.9936  -0.9893  -0.9874  -0.9714  -0.8942
    -0.8933  -0.8846  -0.8609  -0.8579  -0.8562  -0.8552  -0.8535  -0.8533
    -0.8482  -0.8471  -0.8446  -0.8434  -0.8277  -0.8108  -0.8039  -0.8023
    -0.8014  -0.7776  -0.7640  -0.7631  -0.7602  -0.7587  -0.7552  -0.7376
    -0.7230  -0.7148  -0.7118  -0.7112  -0.7088  -0.7062  -0.7025  -0.6838
    -0.6804  -0.6767  -0.6604  -0.6589  -0.6575  -0.6547  -0.6200  -0.6163
    -0.6152  -0.6064  -0.5892  -0.5873  -0.5854  -0.5832  -0.5711  -0.5702
    -0.5684  -0.5646  -0.5214  -0.5189  -0.5119  -0.5075  -0.5056  -0.5044
    -0.5025  -0.5013  -0.4970  -0.4957  -0.4942  -0.4930  -0.4703  -0.4647
    -0.4596  -0.4551  -0.4492  -0.4462  -0.3977  -0.3954  -0.3853  -0.3848
    -0.3790  -0.3771  -0.3745  -0.3719  -0.3695  -0.3672  -0.3665  -0.3649
    -0.3605  -0.3599  -0.3588  -0.3574  -0.3563  -0.3539  -0.3309  -0.3306
    -0.3268  -0.3247  -0.3238  -0.3217  -0.3195  -0.3177  -0.3165  -0.3164
    -0.3157  -0.3145  -0.3140  -0.3131  -0.3115  -0.3107  -0.3070  -0.3056
    -0.2300  -0.2256  -0.2240  -0.2205  -0.1965  -0.1885  -0.1800  -0.1796
    -0.1779  -0.1762  -0.1123  -0.1055  -0.1018  -0.0963  -0.0959  -0.0936
    -0.0909  -0.0794  -0.0759  -0.0739  -0.0678  -0.0660  -0.0646  -0.0640
    -0.0625  -0.0624  -0.0611  -0.0583  -0.0578  -0.0573  -0.0558  -0.0515
    -0.0506  -0.0442  -0.0370  -0.0274  -0.0216  -0.0166  -0.0135   0.0158
     0.0296   0.0323   0.0409   0.0470   0.0577   0.0592   0.0626   0.0651
     0.0683   0.0711   0.0729   0.0738   0.0769   0.0788   0.0821   0.0836
     0.0867   0.0898   0.0916   0.0948   0.0961   0.0994   0.1005   0.1034
     0.1165   0.1235   0.1275   0.1292   0.1319   0.1493   0.1520   0.1549
     0.1596   0.1656   0.1679   0.1709   0.1724   0.1750   0.1786   0.1797
     0.1817   0.1877   0.1906   0.1932   0.1985   0.2035   0.2054   0.2096
     0.2162   0.2241   0.2337   0.2354   0.2428   0.2611   0.2633   0.2640
     0.2650   0.2674   0.2700   0.2776   0.2802   0.2913   0.2931   0.3018
     0.3078   0.3114   0.3195   0.3293   0.3421   0.3491   0.3518   0.3596
     0.3609   0.3618   0.3639   0.3681   0.3761   0.3823   0.3850   0.3906
     0.3946   0.4027   0.4036   0.4080   0.4143   0.4162   0.4170   0.4203
     0.4206   0.4233   0.4323   0.4415   0.4435   0.4504   0.4538   0.4557
     0.4580   0.4597   0.4711   0.4743   0.4858   0.4927   0.5249   0.5308
     0.5448   0.5459   0.5481   0.5520   0.5607   0.5678   0.5741   0.5859
     0.5887   0.5921   0.5984   0.6027   0.6066   0.6104   0.6121   0.6224
     0.6343   0.6367   0.6375   0.6380   0.6391   0.6434   0.6461   0.6499
     0.6551   0.6567   0.6595   0.6613   0.6634   0.6661   0.6712   0.6745
     0.6764   0.6778   0.6795   0.6823   0.6892   0.6921   0.6946   0.7041
     0.7089   0.7108   0.7293   0.7337   0.7350   0.7370   0.7395   0.7413
     0.7515   0.7541   0.7568   0.7595   0.7619   0.7629   0.7631   0.7642
     0.7647   0.7667   0.7787   0.7808   0.7821   0.7900   0.8092   0.8140
     0.8179   0.8210   0.8225   0.8231   0.8245   0.8261   0.8288   0.8295
     0.8369   0.8397   0.8440   0.8452   0.8465   0.8491   0.8544   0.8599
     0.8626   0.8644   0.8659   0.8690   0.8699   0.8720   0.8730   0.8739
     0.8782   0.8802   0.8820   0.8839   0.8864   0.8895   0.8923   0.9111
     0.9203   0.9242   0.9284   0.9316   0.9342   0.9359   0.9371   0.9390
     0.9570   0.9595   0.9616   0.9634   0.9652   0.9660   0.9683   0.9695
     0.9747   0.9809   0.9846   0.9864   0.9919   0.9973   1.0021   1.0047
     1.0065   1.0185   1.0236   1.0243   1.0258   1.0264   1.0277   1.0280
     1.0304   1.0403   1.0568   1.0649   1.0791   1.0803   1.0826   1.0889
     1.1087   1.1120   1.1180   1.1222   1.3714   1.4944   1.4993   1.5170
     1.5239   1.6809   1.7192   1.7897   1.7978   1.8376   1.8389   1.8410
     1.8449   1.9915   2.0177   2.0420   2.1001   2.3398   2.3423   2.3459
     2.3609   2.6493   2.7502   2.7565   2.7577   2.7873   2.9606   2.9950
     3.1237   3.1400   3.1499   3.1927   3.3943   3.4019   3.4064   3.4142
     3.4765   3.5556   3.5877   3.5923   3.5996   3.6130   3.9458   3.9971
     4.0578   4.1372   4.1722   4.3804   4.3889   4.3955   4.3967   4.5196
     4.5221   4.5373   4.5429   4.5555   4.5677   4.5988   4.6044   4.6117
     4.6225   4.6234   4.7863   4.8273   4.8912   4.9199   4.9349   4.9500
     4.9758   5.0159   5.0622   5.2836   5.3407   5.3516   5.3798   5.4144
     5.4588   5.4993   5.5083   5.5316   5.5367   5.5546   5.6233   5.7406
     5.7959   6.2354   6.3399   6.4787   6.4903   6.5092   6.5733   6.5837
     6.7058   6.8850   6.9909   7.0243   7.0555   7.0720   7.1226   7.1305
     7.1367   7.1525   7.2391   7.2719   7.2968   7.3212   7.3432   7.3583
     7.4301   7.4368   7.4455   7.4656   7.4749   7.5003   7.5103   7.6171
     7.6653   7.9785   8.0299   8.1551   8.1892   8.2205   8.2239   8.2542
     8.2584   8.3047   8.3424   8.3444   8.3714   8.4290   8.4810   8.4937
     8.7057   8.7290   8.7823   8.7879   8.8025   8.8258   8.8473   8.8768
     8.9041   8.9125   8.9489   8.9675   8.9877   9.0013   9.0165   9.1124
     9.1716

          k =-0.5000-0.2165 0.0000 (256328 PWs)   bands (ev):

   -21.4236 -18.8717 -16.6824 -15.8973 -15.7059 -15.3383 -14.9047 -14.4188
   -13.7489 -13.1829 -12.4040 -12.2837 -12.0746 -11.8184 -11.6952 -11.6115
   -11.1738 -10.5904 -10.5148  -9.7568  -9.4271  -9.1215  -8.9394  -8.4364
    -8.2507  -7.7818  -7.3513  -6.7620  -6.2903  -5.9262  -5.5702  -5.5057
    -5.5045  -5.4923  -5.4879  -5.4549  -5.4185  -5.1718  -5.1124  -5.0574
    -4.8341  -4.6018  -4.5400  -4.5369  -4.5251  -4.5223  -4.5173  -4.5112
    -4.5058  -4.4942  -4.4474  -4.2741  -4.1691  -4.0906  -3.9929  -3.9374
    -3.8919  -3.7433  -3.6821  -3.6523  -3.6405  -3.6264  -3.5540  -3.4408
    -3.4277  -3.3676  -3.0203  -3.0066  -3.0033  -2.9890  -2.9385  -2.9127
    -2.9121  -2.9073  -2.9061  -2.8895  -2.7606  -2.5601  -2.5150  -2.4778
    -2.4716  -2.4626  -2.4575  -2.4568  -2.4519  -2.4387  -2.4207  -2.3008
    -2.1573  -2.1549  -2.1530  -2.1419  -2.0358  -1.9949  -1.9897  -1.9808
    -1.9738  -1.9219  -1.9155  -1.9089  -1.8997  -1.8513  -1.8485  -1.8483
    -1.8451  -1.8384  -1.8358  -1.8339  -1.8325  -1.7581  -1.7545  -1.7535
    -1.7534  -1.7502  -1.7494  -1.7474  -1.7440  -1.7318  -1.7289  -1.7286
    -1.7230  -1.7219  -1.7098  -1.7089  -1.7058  -1.7037  -1.6931  -1.6776
    -1.6713  -1.6662  -1.6129  -1.5826  -1.5808  -1.5802  -1.5764  -1.5738
    -1.5677  -1.5630  -1.5617  -1.5582  -1.5507  -1.5473  -1.5374  -1.5344
    -1.5339  -1.5323  -1.5224  -1.5153  -1.5136  -1.5109  -1.4835  -1.4505
    -1.4480  -1.4455  -1.4378  -1.4363  -1.4325  -1.4293  -1.4267  -1.4228
    -1.4211  -1.4201  -1.4122  -1.4083  -1.3244  -1.3067  -1.3046  -1.3034
    -1.2914  -1.2762  -1.2292  -1.2232  -1.2221  -1.2213  -1.2197  -1.1991
    -1.1955  -1.1917  -1.1907  -1.1893  -1.1871  -1.1783  -1.1753  -1.1720
    -1.1713  -1.1705  -1.1059  -1.1033  -1.1021  -1.0978  -1.0959  -1.0876
    -1.0853  -1.0846  -1.0839  -1.0816  -1.0798  -1.0690  -1.0298  -0.9900
    -0.9833  -0.9815  -0.9786  -0.9781  -0.9695  -0.9673  -0.9601  -0.9258
    -0.9221  -0.9179  -0.9125  -0.8872  -0.8799  -0.8777  -0.8760  -0.8653
    -0.8650  -0.8628  -0.8596  -0.8347  -0.8141  -0.8110  -0.8085  -0.8075
    -0.8023  -0.7992  -0.7968  -0.7696  -0.7423  -0.7398  -0.7335  -0.7001
    -0.6819  -0.6794  -0.6762  -0.6754  -0.6731  -0.6720  -0.6673  -0.6666
    -0.6616  -0.6606  -0.6576  -0.6439  -0.6077  -0.6015  -0.5956  -0.5934
    -0.5906  -0.5890  -0.5875  -0.5799  -0.5781  -0.5771  -0.5766  -0.5747
    -0.5734  -0.5720  -0.5709  -0.5688  -0.5671  -0.5642  -0.5632  -0.5581
    -0.5133  -0.5116  -0.5077  -0.5049  -0.4644  -0.4602  -0.4574  -0.4547
    -0.4192  -0.4153  -0.4126  -0.4111  -0.4073  -0.4061  -0.4055  -0.4046
    -0.4041  -0.4035  -0.4023  -0.3992  -0.3810  -0.3795  -0.3754  -0.3748
    -0.3733  -0.3677  -0.3655  -0.3640  -0.3553  -0.3530  -0.3509  -0.3491
    -0.3289  -0.3278  -0.3267  -0.3264  -0.3258  -0.3251  -0.3236  -0.3219
    -0.2986  -0.2945  -0.2932  -0.2918  -0.2899  -0.2880  -0.2858  -0.2842
    -0.2198  -0.2162  -0.2143  -0.2134  -0.2122  -0.2096  -0.2022  -0.1882
    -0.1664  -0.1641  -0.1622  -0.1588  -0.1153  -0.0951  -0.0902  -0.0882
    -0.0859  -0.0836  -0.0727  -0.0701  -0.0657  -0.0652  -0.0636  -0.0618
    -0.0608  -0.0598  -0.0588  -0.0573  -0.0555  -0.0514  -0.0491  -0.0432
    -0.0340  -0.0194  -0.0152  -0.0115  -0.0102  -0.0065  -0.0009   0.0023
     0.0033   0.0040   0.0062   0.0078   0.0146   0.0286   0.0348   0.0393
     0.0423   0.0571   0.0614   0.0680   0.0693   0.0722   0.0889   0.0902
     0.0979   0.1012   0.1028   0.1048   0.1070   0.1157   0.1211   0.1224
     0.1248   0.1268   0.1292   0.1306   0.1329   0.1363   0.1389   0.1397
     0.1416   0.1451   0.1470   0.1523   0.1552   0.1585   0.1660   0.1694
     0.1774   0.1855   0.1994   0.2028   0.2082   0.2122   0.2147   0.2242
     0.2317   0.2358   0.2472   0.2485   0.2495   0.2524   0.2547   0.2601
     0.2620   0.2635   0.2661   0.2669   0.2672   0.2769   0.2806   0.2827
     0.2935   0.2943   0.3044   0.3103   0.3174   0.3283   0.3301   0.3378
     0.3479   0.3483   0.3506   0.3515   0.3715   0.3982   0.3988   0.4005
     0.4015   0.4044   0.4084   0.4093   0.4218   0.4319   0.4745   0.4762
     0.4767   0.4786   0.4953   0.4966   0.4994   0.5028   0.5056   0.5102
     0.5144   0.5255   0.5318   0.5327   0.5387   0.5471   0.5519   0.5533
     0.5558   0.5576   0.5598   0.5609   0.5624   0.5639   0.5684   0.5722
     0.5724   0.5734   0.5756   0.5766   0.5803   0.5860   0.5937   0.5955
     0.6032   0.6040   0.6088   0.6098   0.6116   0.6150   0.6176   0.6217
     0.6276   0.6360   0.6389   0.6415   0.6445   0.6456   0.6467   0.6512
     0.6595   0.6605   0.6617   0.6619   0.6662   0.6720   0.7127   0.7175
     0.7208   0.7232   0.7252   0.7253   0.7267   0.7281   0.7306   0.7326
     0.7418   0.7431   0.7442   0.7465   0.7479   0.7501   0.7526   0.7545
     0.7662   0.7896   0.7961   0.8016   0.8035   0.8040   0.8055   0.8058
     0.8072   0.8079   0.8134   0.8135   0.8161   0.8193   0.8457   0.8525
     0.8583   0.8629   0.8640   0.8712   0.8733   0.8756   0.8760   0.8772
     0.8792   0.8806   0.8815   0.8830   0.8832   0.8848   0.8856   0.8879
     0.8909   0.8942   0.8994   0.9006   0.9018   0.9057   0.9106   0.9135
     0.9144   0.9160   0.9171   0.9177   0.9187   0.9253   0.9290   0.9328
     0.9392   0.9512   0.9657   0.9659   0.9676   0.9690   0.9739   0.9774
     0.9785   0.9893   1.0010   1.0039   1.0057   1.0070   1.0226   1.0242
     1.0262   1.0294   1.0403   1.0430   1.0462   1.0529   1.0769   1.0809
     1.0820   1.0836   1.0875   1.0927   1.1052   1.1077   1.1088   1.1112
     1.1138   1.1405   1.1480   1.1485   1.1494   1.1600   1.3381   1.3421
     1.3464   1.3583   1.4145   1.7441   1.7657   1.7685   1.8238   2.1111
     2.1209   2.1227   2.1283   2.2515   2.2584   2.2668   2.2822   2.4666
     2.4757   2.4946   2.5571   2.6923   3.0220   3.0265   3.0273   3.0340
     3.1375   3.1423   3.1428   3.1770   3.5014   3.5052   3.5068   3.5090
     3.5609   3.6449   3.6583   3.7048   3.7401   3.7477   3.7545   3.7646
     3.9101   3.9672   3.9845   4.0174   4.1288   4.2090   4.2188   4.2259
     4.2366   4.5484   4.5996   4.6137   4.6264   4.6331   4.6499   4.6518
     4.6538   4.6700   4.6742   4.6821   4.7209   4.7857   4.8260   4.9595
     5.0142   5.1087   5.1238   5.1436   5.1992   5.2822   5.2912   5.2986
     5.3206   5.3447   5.3814   6.2397   6.3222   6.3568   6.3925   6.3941
     6.4083   6.4159   6.4436   6.5014   6.5237   6.5371   6.5460   6.5533
     6.5674   6.5719   6.6389   6.6654   6.7739   6.7924   6.8523   6.8609
     6.8658   6.8693   6.9157   6.9243   7.0094   7.1414   7.3314   7.3524
     7.3845   7.4757   7.4895   7.7202   7.7342   7.7436   7.7501   7.9374
     7.9894   8.2305   8.2319   8.2342   8.2469   8.3055   8.3421   8.3645
     8.3709   8.3738   8.3843   8.4015   8.4256   8.4730   8.5376   8.5518
     8.5686   8.5787   8.6056   8.6165   8.6224   8.6459   8.7191   8.7807
     8.8154   8.8540   8.8792   8.9034   8.9131   8.9401   9.0128   9.2243
     9.3346

     the Fermi energy is     2.8292 ev

!    total energy              =  -12581.01360965 Ry
     Harris-Foulkes estimate   =  -12581.01360970 Ry
     estimated scf accuracy    <          3.8E-09 Ry

     The total energy is the sum of the following terms:

     one-electron contribution = -103499.82933553 Ry
     hartree contribution      =   53075.27979377 Ry
     xc contribution           =   -4404.51181111 Ry
     ewald contribution        =   42251.41195595 Ry
     smearing contrib. (-TS)   =      -3.36421273 Ry

     convergence has been achieved in  45 iterations

     Writing output data file gc.save
 
     init_run     :    168.18s CPU    180.81s WALL (       1 calls)
     electrons    :  21313.40s CPU  22741.40s WALL (       1 calls)

     Called by init_run:
     wfcinit      :    165.27s CPU    176.43s WALL (       1 calls)
     potinit      :      0.94s CPU      1.07s WALL (       1 calls)

     Called by electrons:
     c_bands      :  19187.69s CPU  20440.62s WALL (      45 calls)
     sum_band     :   1664.14s CPU   1774.29s WALL (      45 calls)
     v_of_rho     :      5.35s CPU      6.84s WALL (      46 calls)
     newd         :     15.80s CPU     29.55s WALL (      46 calls)
     mix_rho      :    440.49s CPU    490.52s WALL (      45 calls)

     Called by c_bands:
     init_us_2    :     83.58s CPU     85.00s WALL (     546 calls)
     cegterg      :  18850.06s CPU  20088.37s WALL (     270 calls)

     Called by sum_band:
     sum_band:bec :      4.63s CPU      5.38s WALL (     270 calls)
     addusdens    :     23.15s CPU     35.75s WALL (      45 calls)

     Called by *egterg:
     h_psi        :   7182.76s CPU   7726.13s WALL (    1756 calls)
     s_psi        :   1796.43s CPU   1807.07s WALL (    1756 calls)
     g_psi        :     19.04s CPU     19.11s WALL (    1480 calls)
     cdiaghg      :   5163.99s CPU   5434.33s WALL (    1750 calls)

     Called by h_psi:
     add_vuspsi   :   1798.61s CPU   1811.07s WALL (    1756 calls)

     General routines
     calbec       :   2518.80s CPU   2537.84s WALL (    2026 calls)
     fft          :      4.45s CPU      5.60s WALL (     597 calls)
     ffts         :    186.85s CPU    222.54s WALL (   28416 calls)
     fftw         :   3521.01s CPU   4005.44s WALL ( 1202268 calls)
     davcio       :      0.22s CPU      7.09s WALL (       6 calls)
 
     Parallel routines
     fft_scatter  :   1789.15s CPU   2065.46s WALL ( 1231281 calls)
 
     PWSCF        :     5h58m CPU        6h22m WALL

 
   This run was terminated on:   1:18:13  26Oct2017            

=------------------------------------------------------------------------------=
   JOB DONE.
=------------------------------------------------------------------------------=
