
     Program PWSCF v.5.4.0 starts on 20Apr2017 at 12:31: 7 

     This program is part of the open-source Quantum ESPRESSO suite
     for quantum simulation of materials; please cite
         "P. Giannozzi et al., J. Phys.:Condens. Matter 21 395502 (2009);
          URL http://www.quantum-espresso.org", 
     in publications or presentations arising from this work. More details at
     http://www.quantum-espresso.org/quote

     Parallel version (MPI & OpenMP), running on      56 processor cores
     Number of MPI processes:                56
     Threads/MPI process:                     1
     R & G space division:  proc/nbgrp/npool/nimage =      56
     Waiting for input...
     Reading input from standard input
Warning: card &IONS ignored
Warning: card / ignored

     Current dimensions of program PWSCF are:
     Max number of different atomic species (ntypx) = 10
     Max number of k-points (npk) =  40000
     Max angular momentum in pseudopotentials (lmaxx) =  3

     -------------------------------------
     Parameters for Dispersion Correction:
     -------------------------------------
       atom      VdW radius       C_6     

        Cu         2.952        374.666
        C_h        2.744         60.710
        C          2.744         60.710

     Subspace diagonalization in iterative solution of the eigenvalue problem:
     one sub-group per band group will be used
     scalapack distributed-memory algorithm (size of sub-group:  5*  5 procs)

 
     Parallelization info
     --------------------
     sticks:   dense  smooth     PW     G-vecs:    dense   smooth      PW
     Min         204     204     54                36612    36612    4962
     Max         205     205     55                36617    36617    4968
     Sum       11433   11433   3039              2050409  2050409  278033
 


     bravais-lattice index     =            0
     lattice parameter (alat)  =      13.9425  a.u.
     unit-cell volume          =   21209.0878 (a.u.)^3
     number of atoms/cell      =          156
     number of atomic types    =            3
     number of electrons       =      1380.00
     number of Kohn-Sham states=          828
     kinetic-energy cutoff     =      80.0000  Ry
     charge density cutoff     =     320.0000  Ry
     convergence threshold     =      1.0E-08
     mixing beta               =       0.7000
     number of iterations used =            8  local-TF  mixing
     Exchange-correlation      =  SLA  PW   PBX  PBC ( 1  4  3  4 0 0)

     celldm(1)=  13.942539  celldm(2)=   0.000000  celldm(3)=   0.000000
     celldm(4)=   0.000000  celldm(5)=   0.000000  celldm(6)=   0.000000

     crystal axes: (cart. coord. in units of alat)
               a(1) = (   1.000000   0.000000   0.000000 )  
               a(2) = (   0.000000   2.309401   0.000000 )  
               a(3) = (   0.000000   0.000000   3.388418 )  

     reciprocal axes: (cart. coord. in units 2 pi/alat)
               b(1) = (  1.000000  0.000000  0.000000 )  
               b(2) = (  0.000000  0.433013  0.000000 )  
               b(3) = (  0.000000  0.000000  0.295123 )  


     PseudoPot. # 1 for Cu read from file:
     /home/549/hxw549/Short/pseudopotentials/Cu.pbe-n-van_ak.UPF
     MD5 check sum: 601f7c30f7467666bec936e0661ce3e1
     Pseudo is Ultrasoft + core correction, Zval = 11.0
     Generated by new atomic code, or converted to UPF format
     Using radial grid of  867 points,  6 beta functions with: 
                l(1) =   0
                l(2) =   0
                l(3) =   1
                l(4) =   1
                l(5) =   2
                l(6) =   2
     Q(r) pseudized with  8 coefficients,  rinner =    1.400   1.400   1.400
                                                       1.400   1.400

     PseudoPot. # 2 for C  read from file:
     /home/549/hxw549/Short/pseudopotentials/C.star1s-pbe-mt_gipaw.UPF
     MD5 check sum: ef0cb3dee31bd9e4ba2a832a2c716264
     Pseudo is Norm-conserving, Zval =  5.0
     Generated by new atomic code, or converted to UPF format
     Using radial grid of 1073 points,  1 beta functions with: 
                l(1) =   0

     PseudoPot. # 3 for C  read from file:
     /home/549/hxw549/Short/pseudopotentials/C.pbe-mt_gipaw.UPF
     MD5 check sum: 5ac2f21f2c440b14befe521540822c15
     Pseudo is Norm-conserving, Zval =  4.0
     Generated by new atomic code, or converted to UPF format
     Using radial grid of 1073 points,  1 beta functions with: 
                l(1) =   0

     atomic species   valence    mass     pseudopotential
        Cu            11.00    63.54600     Cu( 1.00)
        C_h            5.00    12.01070     C ( 1.00)
        C              4.00    12.01070     C ( 1.00)

     No symmetry found



   Cartesian axes

     site n.     atom                  positions (alat units)
         1           Cu  tau(   1) = (  -0.0000549   0.0038944   0.8895039  )
         2           Cu  tau(   2) = (   0.2498561   0.2364069   0.8931545  )
         3           Cu  tau(   3) = (   0.4999834   0.0040272   0.8891076  )
         4           Cu  tau(   4) = (   0.7500655   0.2365774   0.8930538  )
         5           Cu  tau(   5) = (  -0.0000562   0.4680485   0.8986857  )
         6           Cu  tau(   6) = (   0.2499204   0.6979601   0.9023997  )
         7           Cu  tau(   7) = (   0.4999770   0.4680600   0.8986438  )
         8           Cu  tau(   8) = (   0.7499919   0.6979170   0.9024188  )
         9           Cu  tau(   9) = (  -0.0000103   0.9272203   0.9035556  )
        10           Cu  tau(  10) = (   0.2499589   1.1564729   0.9037066  )
        11           Cu  tau(  11) = (   0.4999145   0.9271629   0.9034395  )
        12           Cu  tau(  12) = (   0.7499463   1.1564243   0.9036188  )
        13           Cu  tau(  13) = (  -0.0001139   1.3860246   0.9027183  )
        14           Cu  tau(  14) = (   0.2498801   1.6163418   0.8986746  )
        15           Cu  tau(  15) = (   0.5000280   1.3859803   0.9024834  )
        16           Cu  tau(  16) = (   0.7500312   1.6160597   0.8985479  )
        17           Cu  tau(  17) = (   0.0000423   1.8478793   0.8927838  )
        18           Cu  tau(  18) = (   0.2500275   2.0802463   0.8891797  )
        19           Cu  tau(  19) = (   0.4998824   1.8476458   0.8930400  )
        20           Cu  tau(  20) = (   0.7499023   2.0802466   0.8892023  )
        21           Cu  tau(  21) = (  -0.0000006   0.2314407   1.1418707  )
        22           Cu  tau(  22) = (   0.2498892   0.0016921   1.1383038  )
        23           Cu  tau(  23) = (   0.4999305   0.2313254   1.1417344  )
        24           Cu  tau(  24) = (   0.7500314   0.0017233   1.1384329  )
        25           Cu  tau(  25) = (  -0.0000709   0.6957747   1.1517252  )
        26           Cu  tau(  26) = (   0.2500244   0.4632860   1.1474081  )
        27           Cu  tau(  27) = (   0.4999876   0.6957836   1.1516684  )
        28           Cu  tau(  28) = (   0.7498984   0.4632432   1.1473117  )
        29           Cu  tau(  29) = (  -0.0000630   1.1568679   1.1543012  )
        30           Cu  tau(  30) = (   0.2499277   0.9268448   1.1543638  )
        31           Cu  tau(  31) = (   0.4999724   1.1568693   1.1541867  )
        32           Cu  tau(  32) = (   0.7500027   0.9269784   1.1543223  )
        33           Cu  tau(  33) = (  -0.0000082   1.6210599   1.1470060  )
        34           Cu  tau(  34) = (   0.2498596   1.3881448   1.1514236  )
        35           Cu  tau(  35) = (   0.4999174   1.6209561   1.1473344  )
        36           Cu  tau(  36) = (   0.7500490   1.3882920   1.1514093  )
        37           Cu  tau(  37) = (  -0.0001368   2.0821940   1.1384383  )
        38           Cu  tau(  38) = (   0.2500917   1.8528039   1.1417247  )
        39           Cu  tau(  39) = (   0.5000439   2.0824138   1.1382179  )
        40           Cu  tau(  40) = (   0.7498259   1.8528944   1.1417626  )
        41           Cu  tau(  41) = (  -0.0001378   0.0006883   1.3919862  )
        42           Cu  tau(  42) = (   0.2499845   0.2287190   1.3929011  )
        43           Cu  tau(  43) = (   0.5000483   0.0010692   1.3920855  )
        44           Cu  tau(  44) = (   0.7499379   0.2286829   1.3928022  )
        45           Cu  tau(  45) = (   0.0000062   0.4584630   1.3955340  )
        46           Cu  tau(  46) = (   0.2499963   0.6914661   1.3999671  )
        47           Cu  tau(  47) = (   0.4999185   0.4580848   1.3951344  )
        48           Cu  tau(  48) = (   0.7499533   0.6912121   1.4000695  )
        49           Cu  tau(  49) = (  -0.0000360   0.9252124   1.4043059  )
        50           Cu  tau(  50) = (   0.2499282   1.1590389   1.4037961  )
        51           Cu  tau(  51) = (   0.4999469   0.9251753   1.4044409  )
        52           Cu  tau(  52) = (   0.7500253   1.1590458   1.4042624  )
        53           Cu  tau(  53) = (  -0.0000739   1.3928481   1.3993409  )
        54           Cu  tau(  54) = (   0.2500691   1.6257625   1.3946926  )
        55           Cu  tau(  55) = (   0.4999884   1.3926344   1.3994945  )
        56           Cu  tau(  56) = (   0.7498314   1.6259215   1.3947318  )
        57           Cu  tau(  57) = (  -0.0000489   1.8554057   1.3928460  )
        58           Cu  tau(  58) = (   0.2499235   2.0832681   1.3919605  )
        59           Cu  tau(  59) = (   0.4999390   1.8556516   1.3922941  )
        60           Cu  tau(  60) = (   0.7499778   2.0829845   1.3920999  )
        61           Cu  tau(  61) = (  -0.0000594   0.2275935   1.6471819  )
        62           Cu  tau(  62) = (   0.2501001   0.0001540   1.6468201  )
        63           Cu  tau(  63) = (   0.4999427   0.2275226   1.6475724  )
        64           Cu  tau(  64) = (   0.7498079   0.0002051   1.6469932  )
        65           Cu  tau(  65) = (   0.0000357   0.6849101   1.6488244  )
        66           Cu  tau(  66) = (   0.2501027   0.4550203   1.6471545  )
        67           Cu  tau(  67) = (   0.4999170   0.6842384   1.6480417  )
        68           Cu  tau(  68) = (   0.7498109   0.4548594   1.6471270  )
        69           Cu  tau(  69) = (  -0.0000527   1.1637303   1.6506847  )
        70           Cu  tau(  70) = (   0.2501509   0.9216146   1.6509466  )
        71           Cu  tau(  71) = (   0.5000517   1.1629157   1.6515761  )
        72           Cu  tau(  72) = (   0.7497688   0.9213551   1.6514686  )
        73           Cu  tau(  73) = (  -0.0001140   1.6285458   1.6471528  )
        74           Cu  tau(  74) = (   0.2500948   1.3996204   1.6478345  )
        75           Cu  tau(  75) = (   0.5000089   1.6292832   1.6462570  )
        76           Cu  tau(  76) = (   0.7498648   1.4001992   1.6480762  )
        77           Cu  tau(  77) = (  -0.0001698   2.0839327   1.6471420  )
        78           Cu  tau(  78) = (   0.2497414   1.8566981   1.6467677  )
        79           Cu  tau(  79) = (   0.5001041   2.0836196   1.6465065  )
        80           Cu  tau(  80) = (   0.7501418   1.8567086   1.6473694  )
        81           Cu  tau(  81) = (   0.0000606   0.0005566   1.9026502  )
        82           Cu  tau(  82) = (   0.2503732   0.2248242   1.9015096  )
        83           Cu  tau(  83) = (   0.4998202  -0.0005144   1.9024713  )
        84           Cu  tau(  84) = (   0.7495713   0.2246990   1.9014783  )
        85           Cu  tau(  85) = (   0.0000338   0.4467760   1.9043256  )
        86           Cu  tau(  86) = (   0.2493514   0.6728710   1.9029509  )
        87           Cu  tau(  87) = (   0.4998802   0.4455824   1.9021670  )
        88           Cu  tau(  88) = (   0.7505658   0.6721677   1.9028605  )
        89           Cu  tau(  89) = (   0.0006263   0.9184138   1.8867044  )
        90           Cu  tau(  90) = (   0.2497779   1.1671666   1.8871488  )
        91           Cu  tau(  91) = (   0.4991665   0.9167096   1.8870412  )
        92           Cu  tau(  92) = (   0.7501328   1.1676623   1.8863851  )
        93           Cu  tau(  93) = (   0.0000031   1.4129974   1.9041958  )
        94           Cu  tau(  94) = (   0.2501514   1.6381240   1.9026581  )
        95           Cu  tau(  95) = (   0.4998962   1.4122563   1.9006415  )
        96           Cu  tau(  96) = (   0.7497848   1.6384651   1.9031469  )
        97           Cu  tau(  97) = (  -0.0000327   1.8590214   1.9016926  )
        98           Cu  tau(  98) = (   0.2493588   2.0836751   1.9022804  )
        99           Cu  tau(  99) = (   0.4999181   1.8599112   1.9009201  )
       100           Cu  tau( 100) = (   0.7504827   2.0840516   1.9026399  )
       101           Cu  tau( 101) = (   0.2536675   1.3944837   2.1357621  )
       102           Cu  tau( 102) = (   0.7464037   1.3942318   2.1363374  )
       103           Cu  tau( 103) = (  -0.0004629   1.1583394   2.1209052  )
       104           Cu  tau( 104) = (   0.2505084   0.9288428   2.1206185  )
       105           Cu  tau( 105) = (   0.5002771   1.1562048   2.1193217  )
       106           Cu  tau( 106) = (   0.7495267   0.9280549   2.1199382  )
       107           Cu  tau( 107) = (  -0.0000193   0.6948418   2.1354509  )
       108           Cu  tau( 108) = (   0.4998810   0.6882222   2.1355829  )
       109           C   tau( 109) = (   0.0000991   0.0901428   2.4031502  )
       110           C   tau( 110) = (   0.0000930   0.2823830   2.4180114  )
       111           C   tau( 111) = (   0.1666773  -0.0064510   2.3996578  )
       112           C   tau( 112) = (   0.1668787   0.3782408   2.4277671  )
       113           C   tau( 113) = (   0.3333089   0.0900211   2.4026227  )
       114           C   tau( 114) = (   0.3334028   0.2822316   2.4161361  )
       115           C   tau( 115) = (   0.5000830  -0.0063283   2.3982863  )
       116           C   tau( 116) = (   0.5000767   0.3780919   2.4227795  )
       117           C   tau( 117) = (   0.6669041   0.0900346   2.4025061  )
       118           C   tau( 118) = (   0.6667952   0.2822435   2.4160878  )
       119           C   tau( 119) = (   0.8334865  -0.0064471   2.3995724  )
       120           C   tau( 120) = (   0.8332736   0.3782539   2.4277003  )
       121           C   tau( 121) = (   0.0000735   0.6670179   2.4604097  )
       122           C   tau( 122) = (   0.0001050   0.8588633   2.4907114  )
       123           C   tau( 123) = (   0.1672571   0.5698504   2.4498428  )
       124           C   tau( 124) = (   0.1665971   0.9552497   2.4963875  )
       125           C   tau( 125) = (   0.3330385   0.6665151   2.4637668  )
       126           C_h tau( 126) = (   0.3335343   0.8585536   2.4894103  )
       127           C   tau( 127) = (   0.5001160   0.5707969   2.4446470  )
       128           C   tau( 128) = (   0.5000868   0.9548012   2.4981070  )
       129           C   tau( 129) = (   0.6671111   0.6664905   2.4640110  )
       130           C   tau( 130) = (   0.6666802   0.8585370   2.4895177  )
       131           C   tau( 131) = (   0.8329626   0.5698624   2.4498385  )
       132           C   tau( 132) = (   0.8335464   0.9552517   2.4962856  )
       133           C   tau( 133) = (   0.0000911   1.2451825   2.4876213  )
       134           C   tau( 134) = (   0.0001131   1.4371710   2.4617966  )
       135           C   tau( 135) = (   0.1670675   1.1488169   2.4970265  )
       136           C   tau( 136) = (   0.1662741   1.5330753   2.4437487  )
       137           C   tau( 137) = (   0.3332653   1.2449196   2.4879988  )
       138           C   tau( 138) = (   0.3337767   1.4368407   2.4576005  )
       139           C   tau( 139) = (   0.5001230   1.1482862   2.4940804  )
       140           C   tau( 140) = (   0.5000809   1.5342903   2.4464359  )
       141           C   tau( 141) = (   0.6669118   1.2449151   2.4881715  )
       142           C   tau( 142) = (   0.6664409   1.4368275   2.4575860  )
       143           C   tau( 143) = (   0.8331701   1.1488111   2.4971678  )
       144           C   tau( 144) = (   0.8339073   1.5330595   2.4436703  )
       145           C   tau( 145) = (   0.0001003   1.8211673   2.4126494  )
       146           C   tau( 146) = (   0.0000762   2.0135533   2.4010454  )
       147           C   tau( 147) = (   0.1666886   1.7253778   2.4216854  )
       148           C   tau( 148) = (   0.1666494   2.1103073   2.3983956  )
       149           C   tau( 149) = (   0.3333114   1.8216121   2.4144844  )
       150           C   tau( 150) = (   0.3333631   2.0140026   2.4017749  )
       151           C   tau( 151) = (   0.5000809   1.7256607   2.4249251  )
       152           C   tau( 152) = (   0.5001229   2.1104737   2.3992384  )
       153           C   tau( 153) = (   0.6668851   1.8216063   2.4144419  )
       154           C   tau( 154) = (   0.6667882   2.0139890   2.4016302  )
       155           C   tau( 155) = (   0.8334653   1.7253669   2.4216510  )
       156           C   tau( 156) = (   0.8335837   2.1103089   2.3982893  )

     number of k points=     6  gaussian smearing, width (Ry)=  0.1000
                       cart. coord. in units 2pi/alat
        k(    1) = (   0.0000000   0.0000000   0.0000000), wk =   0.2500000
        k(    2) = (   0.0000000  -0.2165064   0.0000000), wk =   0.2500000
        k(    3) = (   0.2500000   0.0000000   0.0000000), wk =   0.5000000
        k(    4) = (   0.2500000  -0.2165064   0.0000000), wk =   0.5000000
        k(    5) = (  -0.5000000   0.0000000   0.0000000), wk =   0.2500000
        k(    6) = (  -0.5000000  -0.2165064   0.0000000), wk =   0.2500000

     Dense  grid:  2050409 G-vectors     FFT dimensions: (  80, 192, 270)

     Largest allocated arrays     est. size (Mb)     dimensions
        Kohn-Sham Wavefunctions        58.17 Mb     (    4604,  828)
        NL pseudopotentials           139.94 Mb     (    4604, 1992)
        Each V/rho on FFT grid          1.17 Mb     (   76800)
        Each G-vector array             0.28 Mb     (   36616)
        G-vector shells                 0.14 Mb     (   17932)
     Largest temporary arrays     est. size (Mb)     dimensions
        Auxiliary wavefunctions       232.67 Mb     (    4604, 3312)
        Each subspace H/S matrix        6.69 Mb     (     662,  662)
        Each <psi_i|beta_j> matrix     25.17 Mb     (    1992,  828)
        Arrays for rho mixing           9.38 Mb     (   76800,    8)

     Initial potential from superposition of free atoms
     Check: negative starting charge=   -0.001553

     starting charge 1354.72292, renormalised to 1380.00000

     negative rho (up, down):  1.582E-03 0.000E+00
     Starting wfc are 1356 randomized atomic wfcs

     total cpu time spent up to now is      119.4 secs

     Self-consistent Calculation

     iteration #  1     ecut=    80.00 Ry     beta=0.70
     Davidson diagonalization with overlap
     c_bands:  3 eigenvalues not converged
     c_bands:  5 eigenvalues not converged
     ethr =  1.00E-04,  avg # of iterations = 45.2

     negative rho (up, down):  2.559E+01 0.000E+00

     total cpu time spent up to now is     2689.2 secs

     total energy              =  -10769.20786078 Ry
     Harris-Foulkes estimate   =  -19030.85532828 Ry
     estimated scf accuracy    <  214775.82904699 Ry

     iteration #  2     ecut=    80.00 Ry     beta=0.70
     Davidson diagonalization with overlap
     ethr =  1.00E-02,  avg # of iterations = 14.3

     negative rho (up, down):  3.142E+01 0.000E+00

     total cpu time spent up to now is     3864.4 secs

     total energy              =  -13083.56802543 Ry
     Harris-Foulkes estimate   =  -14667.74406621 Ry
     estimated scf accuracy    <   24983.23033959 Ry

     iteration #  3     ecut=    80.00 Ry     beta=0.70
     Davidson diagonalization with overlap
     ethr =  1.00E-02,  avg # of iterations =  6.3

     negative rho (up, down):  3.340E+01 0.000E+00

     total cpu time spent up to now is     4449.5 secs

     total energy              =  -13417.75937626 Ry
     Harris-Foulkes estimate   =  -14411.09198976 Ry
     estimated scf accuracy    <    7882.70383461 Ry

     iteration #  4     ecut=    80.00 Ry     beta=0.70
     Davidson diagonalization with overlap
     ethr =  1.00E-02,  avg # of iterations =  4.3

     negative rho (up, down):  2.758E+01 0.000E+00

     total cpu time spent up to now is     4994.3 secs

     total energy              =  -13750.66010740 Ry
     Harris-Foulkes estimate   =  -14106.69058902 Ry
     estimated scf accuracy    <    4468.44438385 Ry

     iteration #  5     ecut=    80.00 Ry     beta=0.70
     Davidson diagonalization with overlap
     ethr =  1.00E-02,  avg # of iterations =  4.0

     negative rho (up, down):  1.757E+01 0.000E+00

     total cpu time spent up to now is     5357.7 secs

     total energy              =  -13815.40116491 Ry
     Harris-Foulkes estimate   =  -13969.30021415 Ry
     estimated scf accuracy    <    1180.95334929 Ry

     iteration #  6     ecut=    80.00 Ry     beta=0.70
     Davidson diagonalization with overlap
     ethr =  1.00E-02,  avg # of iterations =  2.0

     negative rho (up, down):  1.290E+01 0.000E+00

     total cpu time spent up to now is     5584.6 secs

     total energy              =  -13800.33345028 Ry
     Harris-Foulkes estimate   =  -13846.49877476 Ry
     estimated scf accuracy    <     509.40338213 Ry

     iteration #  7     ecut=    80.00 Ry     beta=0.70
     Davidson diagonalization with overlap
     ethr =  1.00E-02,  avg # of iterations =  2.0

     negative rho (up, down):  8.722E+00 0.000E+00

     total cpu time spent up to now is     5783.4 secs

     total energy              =  -13779.09894495 Ry
     Harris-Foulkes estimate   =  -13814.27130054 Ry
     estimated scf accuracy    <     359.42817899 Ry

     iteration #  8     ecut=    80.00 Ry     beta=0.70
     Davidson diagonalization with overlap
     ethr =  1.00E-02,  avg # of iterations =  1.0

     negative rho (up, down):  6.901E+00 0.000E+00

     total cpu time spent up to now is     5969.8 secs

     total energy              =  -13764.45738227 Ry
     Harris-Foulkes estimate   =  -13784.94866742 Ry
     estimated scf accuracy    <     280.23028771 Ry

     iteration #  9     ecut=    80.00 Ry     beta=0.70
     Davidson diagonalization with overlap
     ethr =  1.00E-02,  avg # of iterations =  1.0

     negative rho (up, down):  5.400E+00 0.000E+00

     total cpu time spent up to now is     6154.9 secs

     total energy              =  -13752.19787241 Ry
     Harris-Foulkes estimate   =  -13769.01002516 Ry
     estimated scf accuracy    <     227.13389176 Ry

     iteration # 10     ecut=    80.00 Ry     beta=0.70
     Davidson diagonalization with overlap
     ethr =  1.00E-02,  avg # of iterations =  1.8

     negative rho (up, down):  9.660E-01 0.000E+00

     total cpu time spent up to now is     6351.0 secs

     total energy              =  -13712.41674271 Ry
     Harris-Foulkes estimate   =  -13755.91021864 Ry
     estimated scf accuracy    <     159.53243911 Ry

     iteration # 11     ecut=    80.00 Ry     beta=0.70
     Davidson diagonalization with overlap
     ethr =  1.00E-02,  avg # of iterations =  1.0

     negative rho (up, down):  2.348E+00 0.000E+00

     total cpu time spent up to now is     6536.8 secs

     total energy              =  -13695.73949544 Ry
     Harris-Foulkes estimate   =  -13719.43876361 Ry
     estimated scf accuracy    <     123.21999343 Ry

     iteration # 12     ecut=    80.00 Ry     beta=0.70
     Davidson diagonalization with overlap
     ethr =  8.93E-03,  avg # of iterations =  1.2

     negative rho (up, down):  1.933E+00 0.000E+00

     total cpu time spent up to now is     6724.4 secs

     total energy              =  -13695.79041719 Ry
     Harris-Foulkes estimate   =  -13703.77575789 Ry
     estimated scf accuracy    <     148.01768680 Ry

     iteration # 13     ecut=    80.00 Ry     beta=0.70
     Davidson diagonalization with overlap
     ethr =  8.93E-03,  avg # of iterations =  1.0

     negative rho (up, down):  4.636E+00 0.000E+00

     total cpu time spent up to now is     6909.7 secs

     total energy              =  -13689.59657728 Ry
     Harris-Foulkes estimate   =  -13699.33430691 Ry
     estimated scf accuracy    <      54.46396719 Ry

     iteration # 14     ecut=    80.00 Ry     beta=0.70
     Davidson diagonalization with overlap
     ethr =  3.95E-03,  avg # of iterations =  3.7

     negative rho (up, down):  6.604E+00 0.000E+00

     total cpu time spent up to now is     7131.2 secs

     total energy              =  -13684.47145124 Ry
     Harris-Foulkes estimate   =  -13693.38729268 Ry
     estimated scf accuracy    <     101.11876242 Ry

     iteration # 15     ecut=    80.00 Ry     beta=0.70
     Davidson diagonalization with overlap
     ethr =  3.95E-03,  avg # of iterations =  4.0

     negative rho (up, down):  6.769E+00 0.000E+00

     total cpu time spent up to now is     7356.6 secs

     total energy              =  -13686.58449943 Ry
     Harris-Foulkes estimate   =  -13689.10603646 Ry
     estimated scf accuracy    <      29.79155901 Ry

     iteration # 16     ecut=    80.00 Ry     beta=0.70
     Davidson diagonalization with overlap
     ethr =  2.16E-03,  avg # of iterations =  3.5

     negative rho (up, down):  5.646E+00 0.000E+00

     total cpu time spent up to now is     7575.5 secs

     total energy              =  -13686.42490235 Ry
     Harris-Foulkes estimate   =  -13688.50591641 Ry
     estimated scf accuracy    <      22.32755857 Ry

     iteration # 17     ecut=    80.00 Ry     beta=0.70
     Davidson diagonalization with overlap
     ethr =  1.62E-03,  avg # of iterations =  4.0

     negative rho (up, down):  4.341E+00 0.000E+00

     total cpu time spent up to now is     7800.0 secs

     total energy              =  -13685.52223031 Ry
     Harris-Foulkes estimate   =  -13686.99034714 Ry
     estimated scf accuracy    <      14.39665518 Ry

     iteration # 18     ecut=    80.00 Ry     beta=0.70
     Davidson diagonalization with overlap
     ethr =  1.04E-03,  avg # of iterations =  4.8

     negative rho (up, down):  1.967E+00 0.000E+00

     total cpu time spent up to now is     8040.5 secs

     total energy              =  -13683.79163877 Ry
     Harris-Foulkes estimate   =  -13685.79049533 Ry
     estimated scf accuracy    <      10.33616832 Ry

     iteration # 19     ecut=    80.00 Ry     beta=0.70
     Davidson diagonalization with overlap
     ethr =  7.49E-04,  avg # of iterations =  4.3

     negative rho (up, down):  1.257E+00 0.000E+00

     total cpu time spent up to now is     8269.2 secs

     total energy              =  -13682.96571313 Ry
     Harris-Foulkes estimate   =  -13684.02208122 Ry
     estimated scf accuracy    <      11.14330739 Ry

     iteration # 20     ecut=    80.00 Ry     beta=0.70
     Davidson diagonalization with overlap
     ethr =  7.49E-04,  avg # of iterations =  1.0

     negative rho (up, down):  3.629E-01 0.000E+00

     total cpu time spent up to now is     8454.8 secs

     total energy              =  -13681.82256824 Ry
     Harris-Foulkes estimate   =  -13683.10923050 Ry
     estimated scf accuracy    <       7.92259647 Ry

     iteration # 21     ecut=    80.00 Ry     beta=0.70
     Davidson diagonalization with overlap
     ethr =  5.74E-04,  avg # of iterations =  9.0

     negative rho (up, down):  4.707E-01 0.000E+00

     total cpu time spent up to now is     8750.0 secs

     total energy              =  -13680.30697330 Ry
     Harris-Foulkes estimate   =  -13682.05143608 Ry
     estimated scf accuracy    <       8.78288104 Ry

     iteration # 22     ecut=    80.00 Ry     beta=0.70
     Davidson diagonalization with overlap
     ethr =  5.74E-04,  avg # of iterations =  5.8

     negative rho (up, down):  1.164E-01 0.000E+00

     total cpu time spent up to now is     9002.6 secs

     total energy              =  -13679.80825519 Ry
     Harris-Foulkes estimate   =  -13680.49558147 Ry
     estimated scf accuracy    <       6.47297760 Ry

     iteration # 23     ecut=    80.00 Ry     beta=0.70
     Davidson diagonalization with overlap
     ethr =  4.69E-04,  avg # of iterations =  3.5

     negative rho (up, down):  1.161E+00 0.000E+00

     total cpu time spent up to now is     9221.6 secs

     total energy              =  -13679.18962431 Ry
     Harris-Foulkes estimate   =  -13680.29852492 Ry
     estimated scf accuracy    <       4.96967328 Ry

     iteration # 24     ecut=    80.00 Ry     beta=0.70
     Davidson diagonalization with overlap
     ethr =  3.60E-04,  avg # of iterations =  8.2

     negative rho (up, down):  1.043E+00 0.000E+00

     total cpu time spent up to now is     9525.5 secs

     total energy              =  -13679.28697547 Ry
     Harris-Foulkes estimate   =  -13679.45005047 Ry
     estimated scf accuracy    <       1.77118792 Ry

     iteration # 25     ecut=    80.00 Ry     beta=0.70
     Davidson diagonalization with overlap
     ethr =  1.28E-04,  avg # of iterations =  1.5

     negative rho (up, down):  7.669E-01 0.000E+00

     total cpu time spent up to now is     9719.6 secs

     total energy              =  -13679.26140675 Ry
     Harris-Foulkes estimate   =  -13679.35730317 Ry
     estimated scf accuracy    <       0.83177113 Ry

     iteration # 26     ecut=    80.00 Ry     beta=0.70
     Davidson diagonalization with overlap
     ethr =  6.03E-05,  avg # of iterations =  9.7

     negative rho (up, down):  6.947E-01 0.000E+00

     total cpu time spent up to now is    10051.2 secs

     total energy              =  -13679.26177120 Ry
     Harris-Foulkes estimate   =  -13679.30538082 Ry
     estimated scf accuracy    <       0.25659899 Ry

     iteration # 27     ecut=    80.00 Ry     beta=0.70
     Davidson diagonalization with overlap
     ethr =  1.86E-05,  avg # of iterations =  8.0

     negative rho (up, down):  3.996E-01 0.000E+00

     total cpu time spent up to now is    10357.7 secs

     total energy              =  -13679.27106807 Ry
     Harris-Foulkes estimate   =  -13679.29597974 Ry
     estimated scf accuracy    <       0.15529731 Ry

     iteration # 28     ecut=    80.00 Ry     beta=0.70
     Davidson diagonalization with overlap
     ethr =  1.13E-05,  avg # of iterations =  8.7

     negative rho (up, down):  3.358E-01 0.000E+00

     total cpu time spent up to now is    10664.9 secs

     total energy              =  -13679.27798765 Ry
     Harris-Foulkes estimate   =  -13679.28389468 Ry
     estimated scf accuracy    <       0.04410244 Ry

     iteration # 29     ecut=    80.00 Ry     beta=0.70
     Davidson diagonalization with overlap
     ethr =  3.20E-06,  avg # of iterations =  5.0

     negative rho (up, down):  2.073E-01 0.000E+00

     total cpu time spent up to now is    10912.3 secs

     total energy              =  -13679.27628024 Ry
     Harris-Foulkes estimate   =  -13679.28257807 Ry
     estimated scf accuracy    <       0.02354194 Ry

     iteration # 30     ecut=    80.00 Ry     beta=0.70
     Davidson diagonalization with overlap
     c_bands:  1 eigenvalues not converged
     ethr =  1.71E-06,  avg # of iterations = 13.0

     negative rho (up, down):  5.415E-02 0.000E+00

     total cpu time spent up to now is    11306.6 secs

     total energy              =  -13679.27115033 Ry
     Harris-Foulkes estimate   =  -13679.27804587 Ry
     estimated scf accuracy    <       0.01341835 Ry

     iteration # 31     ecut=    80.00 Ry     beta=0.70
     Davidson diagonalization with overlap
     c_bands:  1 eigenvalues not converged
     c_bands:  1 eigenvalues not converged
     ethr =  9.72E-07,  avg # of iterations = 16.2

     negative rho (up, down):  1.910E-02 0.000E+00

     total cpu time spent up to now is    11768.1 secs

     total energy              =  -13679.27108067 Ry
     Harris-Foulkes estimate   =  -13679.27199884 Ry
     estimated scf accuracy    <       0.00201703 Ry

     iteration # 32     ecut=    80.00 Ry     beta=0.70
     Davidson diagonalization with overlap
     c_bands:  1 eigenvalues not converged
     c_bands:  1 eigenvalues not converged
     c_bands:  1 eigenvalues not converged
     ethr =  1.46E-07,  avg # of iterations = 16.0

     negative rho (up, down):  8.638E-03 0.000E+00

     total cpu time spent up to now is    12198.4 secs

     total energy              =  -13679.27109299 Ry
     Harris-Foulkes estimate   =  -13679.27135273 Ry
     estimated scf accuracy    <       0.00112012 Ry

     iteration # 33     ecut=    80.00 Ry     beta=0.70
     Davidson diagonalization with overlap
     ethr =  8.12E-08,  avg # of iterations = 10.8

     negative rho (up, down):  3.602E-03 0.000E+00

     total cpu time spent up to now is    12541.4 secs

     total energy              =  -13679.27108591 Ry
     Harris-Foulkes estimate   =  -13679.27118907 Ry
     estimated scf accuracy    <       0.00029868 Ry

     iteration # 34     ecut=    80.00 Ry     beta=0.70
     Davidson diagonalization with overlap
     ethr =  2.16E-08,  avg # of iterations = 10.5

     negative rho (up, down):  2.733E-03 0.000E+00

     total cpu time spent up to now is    12882.9 secs

     total energy              =  -13679.27111743 Ry
     Harris-Foulkes estimate   =  -13679.27112945 Ry
     estimated scf accuracy    <       0.00019857 Ry

     iteration # 35     ecut=    80.00 Ry     beta=0.70
     Davidson diagonalization with overlap
     ethr =  1.44E-08,  avg # of iterations =  6.8

     negative rho (up, down):  2.296E-03 0.000E+00

     total cpu time spent up to now is    13163.7 secs

     total energy              =  -13679.27112834 Ry
     Harris-Foulkes estimate   =  -13679.27113745 Ry
     estimated scf accuracy    <       0.00008303 Ry

     iteration # 36     ecut=    80.00 Ry     beta=0.70
     Davidson diagonalization with overlap
     ethr =  6.02E-09,  avg # of iterations =  1.0

     negative rho (up, down):  1.907E-03 0.000E+00

     total cpu time spent up to now is    13355.9 secs

     total energy              =  -13679.27114892 Ry
     Harris-Foulkes estimate   =  -13679.27113298 Ry
     estimated scf accuracy    <       0.00002662 Ry

     iteration # 37     ecut=    80.00 Ry     beta=0.70
     Davidson diagonalization with overlap
     c_bands:  2 eigenvalues not converged
     ethr =  1.93E-09,  avg # of iterations = 13.0

     negative rho (up, down):  2.044E-03 0.000E+00

     total cpu time spent up to now is    13724.8 secs

     total energy              =  -13679.27114964 Ry
     Harris-Foulkes estimate   =  -13679.27115069 Ry
     estimated scf accuracy    <       0.00000705 Ry

     iteration # 38     ecut=    80.00 Ry     beta=0.70
     Davidson diagonalization with overlap
     ethr =  5.11E-10,  avg # of iterations =  2.2

     negative rho (up, down):  1.665E-03 0.000E+00

     total cpu time spent up to now is    13938.6 secs

     total energy              =  -13679.27115046 Ry
     Harris-Foulkes estimate   =  -13679.27115068 Ry
     estimated scf accuracy    <       0.00000444 Ry

     iteration # 39     ecut=    80.00 Ry     beta=0.70
     Davidson diagonalization with overlap
     ethr =  3.22E-10,  avg # of iterations =  3.0

     negative rho (up, down):  1.694E-03 0.000E+00

     total cpu time spent up to now is    14164.8 secs

     total energy              =  -13679.27115053 Ry
     Harris-Foulkes estimate   =  -13679.27115092 Ry
     estimated scf accuracy    <       0.00000100 Ry

     iteration # 40     ecut=    80.00 Ry     beta=0.70
     Davidson diagonalization with overlap
     ethr =  7.27E-11,  avg # of iterations =  2.5

     negative rho (up, down):  1.649E-03 0.000E+00

     total cpu time spent up to now is    14381.7 secs

     total energy              =  -13679.27115069 Ry
     Harris-Foulkes estimate   =  -13679.27115064 Ry
     estimated scf accuracy    <       0.00000027 Ry

     iteration # 41     ecut=    80.00 Ry     beta=0.70
     Davidson diagonalization with overlap
     ethr =  1.97E-11,  avg # of iterations =  2.7

     negative rho (up, down):  1.672E-03 0.000E+00

     total cpu time spent up to now is    14602.6 secs

     total energy              =  -13679.27115078 Ry
     Harris-Foulkes estimate   =  -13679.27115071 Ry
     estimated scf accuracy    <       0.00000007 Ry

     iteration # 42     ecut=    80.00 Ry     beta=0.70
     Davidson diagonalization with overlap
     ethr =  5.26E-12,  avg # of iterations =  3.0

     negative rho (up, down):  1.703E-03 0.000E+00

     total cpu time spent up to now is    14871.0 secs

     total energy              =  -13679.27115080 Ry
     Harris-Foulkes estimate   =  -13679.27115079 Ry
     estimated scf accuracy    <       0.00000005 Ry

     iteration # 43     ecut=    80.00 Ry     beta=0.70
     Davidson diagonalization with overlap
     ethr =  3.54E-12,  avg # of iterations =  3.0

     negative rho (up, down):  1.718E-03 0.000E+00

     total cpu time spent up to now is    15094.8 secs

     total energy              =  -13679.27115083 Ry
     Harris-Foulkes estimate   =  -13679.27115080 Ry
     estimated scf accuracy    <       0.00000001 Ry

     iteration # 44     ecut=    80.00 Ry     beta=0.70
     Davidson diagonalization with overlap
     ethr =  7.87E-13,  avg # of iterations =  3.0

     negative rho (up, down):  1.711E-03 0.000E+00

     total cpu time spent up to now is    15312.4 secs

     End of self-consistent calculation

          k = 0.0000 0.0000 0.0000 (256287 PWs)   bands (ev):

   -16.7288 -15.5572 -15.4070 -14.7982 -14.3916 -14.1954 -14.1394 -13.5969
   -13.5239 -13.4431 -13.4160 -12.8177 -12.6731 -12.4971 -12.4686 -12.4341
   -12.4244 -11.0364 -10.8933 -10.8491 -10.7497 -10.6014  -9.7047  -9.1740
    -9.1392  -9.0147  -8.9123  -8.3204  -8.1204  -8.0484  -7.9609  -7.4059
    -7.2081  -7.1363  -6.9883  -6.9476  -6.9228  -6.9045  -6.8679  -5.7340
    -5.7219  -5.4939  -5.4135  -5.3830  -5.3155  -5.2606  -5.2440  -5.2351
    -4.9923  -4.8629  -4.8098  -4.3853  -4.1962  -4.1856  -4.0682  -4.0174
    -3.9184  -3.8291  -3.7596  -3.5421  -3.3913  -3.3798  -3.3666  -3.3624
    -3.0669  -3.0372  -2.9832  -2.9487  -2.8434  -2.8247  -2.8136  -2.7971
    -2.7723  -2.6329  -2.5826  -2.4685  -2.4491  -2.4176  -2.4008  -2.3842
    -2.3833  -2.3412  -2.3329  -2.3256  -2.2988  -2.2742  -2.1422  -2.1062
    -2.0578  -2.0549  -2.0213  -1.9463  -1.8457  -1.7832  -1.7487  -1.7456
    -1.7031  -1.6832  -1.6236  -1.5873  -1.5817  -1.5295  -1.5288  -1.5189
    -1.5182  -1.5043  -1.4545  -1.4289  -1.4282  -1.3922  -1.3921  -1.3830
    -1.3644  -1.2783  -1.2719  -1.2530  -1.2496  -1.2377  -1.1768  -1.1586
    -1.1574  -1.1558  -1.1390  -1.1143  -1.1127  -1.0906  -1.0396  -1.0383
    -1.0354  -1.0332  -0.9937  -0.9770  -0.9596  -0.9580  -0.9560  -0.9314
    -0.9300  -0.9169  -0.9161  -0.9030  -0.8623  -0.8622  -0.8312  -0.8054
    -0.7887  -0.7867  -0.7477  -0.7406  -0.6889  -0.6873  -0.6712  -0.6662
    -0.6410  -0.6388  -0.6373  -0.6111  -0.6007  -0.5984  -0.5816  -0.5741
    -0.5731  -0.5651  -0.5536  -0.5287  -0.5224  -0.4888  -0.4802  -0.4697
    -0.4593  -0.4576  -0.4512  -0.4479  -0.4476  -0.4353  -0.4311  -0.4292
    -0.4272  -0.4256  -0.3916  -0.3825  -0.3769  -0.3727  -0.3587  -0.3534
    -0.3504  -0.3385  -0.3366  -0.3314  -0.3303  -0.3261  -0.3208  -0.3190
    -0.2925  -0.2834  -0.2812  -0.2776  -0.2690  -0.2679  -0.2545  -0.2541
    -0.2435  -0.2326  -0.2323  -0.2310  -0.2289  -0.2223  -0.2205  -0.2105
    -0.1965  -0.1920  -0.1517  -0.1448  -0.1372  -0.1187  -0.1116  -0.0982
    -0.0701  -0.0657  -0.0646  -0.0562  -0.0546  -0.0439  -0.0375  -0.0355
    -0.0236  -0.0221  -0.0102  -0.0082  -0.0065   0.0020   0.0096   0.0235
     0.0252   0.0256   0.0402   0.0410   0.0415   0.0766   0.0780   0.0862
     0.1104   0.1267   0.1351   0.1367   0.1429   0.1437   0.1643   0.1650
     0.1709   0.1749   0.1955   0.1958   0.1963   0.2064   0.2070   0.2088
     0.2092   0.2113   0.2151   0.2294   0.2397   0.2431   0.2502   0.2552
     0.2556   0.2591   0.2603   0.2779   0.2798   0.2918   0.2919   0.2995
     0.3148   0.3150   0.3276   0.3283   0.3285   0.3336   0.3338   0.3455
     0.3475   0.3549   0.3570   0.3678   0.3680   0.3685   0.3734   0.3737
     0.3870   0.3871   0.4087   0.4128   0.4144   0.4159   0.4203   0.4204
     0.4218   0.4229   0.4283   0.4289   0.4567   0.4594   0.4615   0.4653
     0.4852   0.4868   0.5103   0.5113   0.5132   0.5141   0.5219   0.5340
     0.5359   0.5434   0.5494   0.5499   0.5532   0.5540   0.5648   0.5767
     0.5821   0.5826   0.5847   0.5890   0.5904   0.5981   0.6105   0.6137
     0.6146   0.6204   0.6206   0.6378   0.6403   0.6406   0.6447   0.6462
     0.6472   0.6492   0.6567   0.6690   0.6698   0.6730   0.6739   0.6748
     0.6757   0.6792   0.6814   0.6922   0.7185   0.7190   0.7346   0.7493
     0.7511   0.7679   0.7706   0.7741   0.7760   0.7770   0.7822   0.8060
     0.8065   0.8258   0.8263   0.8387   0.8402   0.8413   0.8416   0.8532
     0.8541   0.8643   0.8780   0.8917   0.8955   0.8963   0.8999   0.9017
     0.9054   0.9298   0.9318   0.9392   0.9444   0.9463   0.9512   0.9592
     0.9608   0.9714   0.9899   1.0003   1.0053   1.0082   1.0133   1.0145
     1.0169   1.0193   1.0247   1.0341   1.0349   1.0380   1.0388   1.0450
     1.0601   1.0677   1.0755   1.0780   1.0811   1.0914   1.1019   1.1022
     1.1413   1.1414   1.1450   1.1485   1.1555   1.1582   1.1602   1.1625
     1.1642   1.1686   1.1724   1.1750   1.1822   1.1883   1.1900   1.1904
     1.2008   1.2009   1.2047   1.2113   1.2137   1.2224   1.2251   1.2274
     1.2306   1.2328   1.2422   1.2455   1.2477   1.2547   1.2624   1.2629
     1.2687   1.2767   1.2798   1.2831   1.2832   1.2855   1.2861   1.2889
     1.2952   1.3022   1.3142   1.3212   1.3244   1.3285   1.3306   1.3329
     1.3334   1.3343   1.3409   1.3428   1.3459   1.3463   1.3573   1.3584
     1.3608   1.3640   1.3720   1.3753   1.3782   1.3822   1.3847   1.3939
     1.3970   1.4022   1.4223   1.4303   1.4345   1.4379   1.4447   1.4488
     1.4537   1.4595   1.4718   1.4723   1.4750   1.4768   1.4814   1.4844
     1.4891   1.4903   1.4912   1.5047   1.5087   1.5117   1.5204   1.5253
     1.5318   1.5326   1.5372   1.5413   1.5430   1.5466   1.5510   1.5562
     1.5594   1.5646   1.5672   1.5686   1.5805   1.5841   1.5863   1.5972
     1.5984   1.5986   1.6076   1.6106   1.6153   1.6186   1.6255   1.6317
     1.6375   1.6377   1.6412   1.6505   1.6516   1.6585   1.6621   1.6696
     1.6751   1.6791   1.6811   1.6846   1.6851   1.6860   1.6894   1.6930
     1.6964   1.7040   1.7073   1.7101   1.7123   1.7195   1.7211   1.7222
     1.7224   1.7291   1.7319   1.7357   1.7417   1.7472   1.7473   1.7517
     1.7549   1.7619   1.7631   1.7674   1.7791   1.7891   1.7934   1.7977
     1.7991   1.8014   1.8087   1.8104   1.8213   1.8278   1.8335   1.8348
     1.8388   1.8400   1.8426   1.8467   1.8527   1.8585   1.8590   1.8705
     1.8736   1.8764   1.8776   1.8790   1.8803   1.8843   1.8883   1.8973
     1.9002   1.9034   1.9040   1.9096   1.9139   1.9157   1.9170   1.9266
     1.9277   1.9423   1.9446   1.9459   1.9485   1.9493   1.9510   1.9549
     1.9568   1.9581   1.9613   1.9660   1.9791   1.9812   1.9848   1.9888
     1.9920   1.9929   1.9939   1.9948   1.9994   2.0023   2.0054   2.0064
     2.0067   2.0072   2.0123   2.0132   2.0147   2.0248   2.0267   2.0296
     2.0308   2.0370   2.0380   2.0383   2.0413   2.0543   2.0549   2.0638
     2.0674   2.0691   2.0692   2.0707   2.0807   2.0845   2.0864   2.1089
     2.1150   2.1159   2.1356   2.1365   2.1400   2.1589   2.1594   2.1634
     2.1663   2.1895   2.1915   2.1915   2.2189   2.2224   2.2294   2.2322
     2.2345   2.2355   2.2409   2.2541   2.2987   2.4048   2.4822   2.5530
     2.5850   2.6473   2.6545   2.6604   2.7456   2.7464   2.7752   2.7789
     2.8040   2.8047   2.8161   2.8165   2.8814   2.8886   2.9257   2.9408
     2.9413   2.9855   2.9906   3.1686   3.1688   3.2238   3.2303   3.2933
     3.4008   3.5117   3.5748   3.6007   3.6525   3.7878   3.8089   3.9732
     4.0239   4.0346   4.0753   4.2049   4.2107   4.2829   4.2873   4.4701
     4.4882   4.5068   4.5076   4.5432   4.5437   4.5799   4.6052   4.6060
     4.6096   4.6104   4.9132   4.9905   5.0092   5.0344   5.0736   5.2706
     5.3329   5.3788   5.4581   5.5105   5.5413   5.5628   5.6448   5.6615
     5.8021   5.9057   6.0979   6.1162   6.2649   6.3560   6.3594   6.4519
     6.5096   6.7828   6.8093   6.8110   6.8280   6.9083   7.0402   7.0518
     7.0723   7.1528   7.2495   7.2971   7.3186   7.3885   7.4018   7.4060
     7.4063   7.4213   7.4360   7.4392   7.5445   7.6754   7.6832   7.7152
     7.8452   7.9355   7.9406   8.0323   8.0927   8.1168   8.1549   8.2667
     8.2891   8.3037   8.3048   8.5340   8.5741   8.5782   8.6176   8.6617
     8.6960   8.7035   8.7251   8.7948   8.8243   8.8378   8.8876   8.9053
     8.9252   8.9652   9.0950   9.1243   9.1392   9.1417   9.1688   9.2006
     9.2015   9.2865   9.2924   9.2972   9.3008   9.3338   9.3363   9.3596
     9.3858   9.5145   9.5677   9.6778   9.6963   9.7743   9.8100   9.8147
     9.8355  10.0056  10.0371  10.0516  10.0825  10.0874  10.0892  10.2702
    10.3752  10.4174  10.4698  10.4952  10.5181  10.5395  10.5739  10.5883
    10.6062  10.6232  10.6395  10.6516

          k = 0.0000-0.2165 0.0000 (256176 PWs)   bands (ev):

   -16.7285 -15.6197 -15.2296 -14.9895 -14.4932 -14.1349 -13.6973 -13.6463
   -13.6285 -13.5584 -13.1605 -13.0815 -13.0450 -13.0313 -11.9604 -11.7955
   -11.7346 -11.6592 -11.5555 -11.4086 -10.0541  -9.9250  -9.8987  -9.7392
    -8.8643  -8.8343  -8.6749  -8.5053  -8.3208  -8.3075  -7.7271  -7.6106
    -7.5521  -7.4999  -6.8649  -6.7265  -6.3693  -6.3192  -6.2435  -6.2380
    -6.2085  -6.1926  -5.5816  -5.5068  -5.3046  -5.2546  -4.9752  -4.8667
    -4.7887  -4.5793  -4.4427  -4.3574  -4.2792  -4.2579  -4.1950  -4.1776
    -4.1575  -4.0331  -4.0061  -3.9659  -3.3842  -3.3575  -3.2812  -3.2482
    -3.1063  -3.0712  -2.9303  -2.7428  -2.7300  -2.7042  -2.6747  -2.6742
    -2.6417  -2.6071  -2.5132  -2.5043  -2.4961  -2.4107  -2.4101  -2.3374
    -2.2789  -2.2308  -2.1864  -2.1532  -2.1322  -2.1258  -2.0935  -2.0333
    -2.0052  -1.9919  -1.9710  -1.9615  -1.9564  -1.9403  -1.9230  -1.9054
    -1.8752  -1.8702  -1.7790  -1.7416  -1.7019  -1.6456  -1.5835  -1.5681
    -1.5654  -1.5467  -1.5257  -1.5207  -1.4774  -1.3774  -1.3619  -1.3617
    -1.3432  -1.3431  -1.2372  -1.2335  -1.1891  -1.1856  -1.1766  -1.1718
    -1.1569  -1.1383  -1.1128  -1.1122  -1.1004  -1.0973  -1.0886  -1.0592
    -1.0537  -1.0361  -1.0279  -1.0261  -1.0084  -0.9731  -0.9602  -0.9526
    -0.9120  -0.9047  -0.8803  -0.8755  -0.8628  -0.8120  -0.7924  -0.7639
    -0.7537  -0.7219  -0.7093  -0.7084  -0.7022  -0.7001  -0.6973  -0.6923
    -0.6763  -0.6688  -0.6559  -0.6530  -0.6519  -0.6500  -0.6416  -0.6350
    -0.6245  -0.6117  -0.6102  -0.5864  -0.5396  -0.5372  -0.5187  -0.5151
    -0.4906  -0.4748  -0.4712  -0.4522  -0.4507  -0.4358  -0.4337  -0.4295
    -0.4283  -0.4148  -0.4069  -0.3866  -0.3740  -0.3726  -0.3666  -0.3574
    -0.3529  -0.3516  -0.3467  -0.3236  -0.3161  -0.3146  -0.3127  -0.3019
    -0.2993  -0.2649  -0.2646  -0.2639  -0.2506  -0.2429  -0.2338  -0.2334
    -0.2268  -0.2150  -0.2053  -0.1917  -0.1745  -0.1725  -0.1723  -0.1351
    -0.1140  -0.1104  -0.0993  -0.0886  -0.0852  -0.0595  -0.0582  -0.0530
    -0.0528  -0.0291  -0.0267  -0.0246  -0.0243  -0.0160  -0.0146  -0.0061
     0.0056   0.0061   0.0150   0.0154   0.0191   0.0239   0.0284   0.0358
     0.0487   0.0499   0.0620   0.0645   0.0773   0.0807   0.0831   0.0978
     0.1191   0.1228   0.1233   0.1239   0.1247   0.1295   0.1387   0.1445
     0.1493   0.1537   0.1615   0.1977   0.2054   0.2057   0.2219   0.2279
     0.2357   0.2434   0.2475   0.2479   0.2601   0.2614   0.2653   0.2692
     0.2765   0.2807   0.2885   0.2931   0.2935   0.2975   0.3121   0.3159
     0.3170   0.3177   0.3188   0.3227   0.3249   0.3265   0.3334   0.3457
     0.3546   0.3560   0.3656   0.3668   0.3681   0.3761   0.3838   0.3860
     0.3940   0.3982   0.4011   0.4066   0.4092   0.4117   0.4156   0.4200
     0.4271   0.4316   0.4347   0.4391   0.4569   0.4686   0.4713   0.4754
     0.4815   0.4889   0.4895   0.5007   0.5034   0.5098   0.5128   0.5233
     0.5246   0.5254   0.5290   0.5302   0.5394   0.5435   0.5579   0.5646
     0.5729   0.5761   0.5802   0.5807   0.5860   0.5880   0.5960   0.5973
     0.6150   0.6170   0.6183   0.6284   0.6292   0.6360   0.6363   0.6449
     0.6472   0.6577   0.6600   0.6701   0.6807   0.6811   0.6882   0.6916
     0.6962   0.6972   0.7059   0.7064   0.7068   0.7164   0.7213   0.7225
     0.7301   0.7303   0.7343   0.7477   0.7497   0.7535   0.7567   0.7712
     0.7746   0.7792   0.7929   0.8005   0.8135   0.8201   0.8359   0.8466
     0.8480   0.8515   0.8533   0.8647   0.8808   0.8883   0.8886   0.8912
     0.8957   0.9089   0.9155   0.9213   0.9269   0.9288   0.9502   0.9520
     0.9524   0.9709   0.9733   0.9888   0.9898   1.0020   1.0072   1.0159
     1.0207   1.0221   1.0357   1.0360   1.0491   1.0526   1.0529   1.0691
     1.0694   1.0834   1.0867   1.0909   1.0936   1.1019   1.1022   1.1188
     1.1261   1.1269   1.1324   1.1333   1.1370   1.1379   1.1479   1.1482
     1.1512   1.1569   1.1681   1.1689   1.1698   1.1718   1.1758   1.1776
     1.1836   1.1914   1.1925   1.2087   1.2108   1.2167   1.2190   1.2219
     1.2237   1.2277   1.2298   1.2331   1.2377   1.2441   1.2442   1.2562
     1.2579   1.2686   1.2688   1.2695   1.2729   1.2777   1.2881   1.2897
     1.2915   1.2920   1.2932   1.2946   1.3015   1.3058   1.3129   1.3162
     1.3227   1.3245   1.3270   1.3291   1.3296   1.3369   1.3381   1.3544
     1.3554   1.3557   1.3602   1.3726   1.3850   1.4000   1.4010   1.4060
     1.4074   1.4102   1.4162   1.4169   1.4329   1.4584   1.4597   1.4793
     1.4811   1.4895   1.4924   1.4949   1.4956   1.4962   1.5060   1.5084
     1.5095   1.5135   1.5142   1.5165   1.5175   1.5258   1.5284   1.5339
     1.5346   1.5360   1.5455   1.5601   1.5614   1.5630   1.5645   1.5721
     1.5729   1.5754   1.5768   1.5789   1.5823   1.5853   1.5859   1.5863
     1.5878   1.5894   1.6025   1.6043   1.6061   1.6073   1.6079   1.6149
     1.6157   1.6183   1.6193   1.6206   1.6276   1.6426   1.6429   1.6435
     1.6508   1.6578   1.6681   1.6710   1.6743   1.6779   1.6793   1.6831
     1.6907   1.6954   1.6958   1.7125   1.7145   1.7191   1.7278   1.7290
     1.7292   1.7308   1.7401   1.7523   1.7550   1.7648   1.7731   1.7755
     1.7759   1.7800   1.7810   1.7878   1.7901   1.7913   1.7965   1.7996
     1.8016   1.8031   1.8076   1.8080   1.8104   1.8174   1.8202   1.8236
     1.8249   1.8305   1.8322   1.8473   1.8489   1.8529   1.8588   1.8600
     1.8632   1.8666   1.8723   1.8761   1.8773   1.8778   1.8839   1.8870
     1.8875   1.8983   1.9011   1.9064   1.9075   1.9176   1.9177   1.9186
     1.9202   1.9261   1.9286   1.9293   1.9331   1.9358   1.9442   1.9470
     1.9560   1.9562   1.9640   1.9672   1.9683   1.9749   1.9809   1.9839
     1.9911   1.9937   1.9951   1.9973   1.9979   2.0004   2.0062   2.0088
     2.0220   2.0221   2.0281   2.0303   2.0387   2.0394   2.0456   2.0458
     2.0493   2.0517   2.0521   2.0526   2.0701   2.0721   2.0735   2.0764
     2.0824   2.0922   2.1068   2.1075   2.1120   2.1193   2.1218   2.1228
     2.1240   2.1255   2.1269   2.1323   2.1376   2.1421   2.1450   2.1499
     2.1740   2.2026   2.2281   2.2452   2.2461   2.3187   2.3359   2.3443
     2.3450   2.3645   2.3699   2.3786   2.3901   2.4127   2.4258   2.4303
     2.4405   2.4540   2.4575   2.5992   2.6446   2.6513   2.6998   2.7116
     2.7358   2.8193   2.8753   2.8875   2.9829   2.9867   3.0055   3.0300
     3.0333   3.0848   3.1619   3.1752   3.1763   3.2656   3.2672   3.2674
     3.3111   3.5114   3.5114   3.5633   3.5815   3.5842   3.7680   3.7680
     3.7845   3.7969   4.0277   4.0683   4.0942   4.1619   4.2547   4.2712
     4.3039   4.4810   4.5101   4.5453   4.5738   4.6018   4.6563   4.6624
     4.6657   4.7925   4.9978   5.0220   5.1509   5.1605   5.3417   5.5021
     5.5727   5.6055   5.6406   5.6888   5.6907   5.8037   5.8718   5.8736
     5.9740   5.9776   6.0018   6.0727   6.1499   6.1934   6.2723   6.3278
     6.3406   6.3883   6.5059   6.5500   6.5956   6.7050   6.8257   6.9418
     7.0366   7.0513   7.1974   7.1979   7.2089   7.2969   7.5118   7.5314
     7.5500   7.6043   7.6130   7.6167   7.6689   7.7141   7.7296   7.7483
     7.7501   7.7722   7.8559   8.0118   8.0143   8.1435   8.1548   8.1873
     8.1954   8.2630   8.2862   8.3039   8.4422   8.5504   8.5983   8.5992
     8.7511   8.8134   8.8562   8.8671   8.9127   8.9314   8.9418   8.9905
     8.9936   9.0317   9.0365   9.0700   9.1005   9.1208   9.1236   9.2268
     9.2845   9.2963   9.3237   9.3791   9.4645   9.4902   9.5012   9.5304
     9.7179   9.7243   9.7298   9.7323   9.8670   9.8728   9.9242   9.9274
     9.9307   9.9365   9.9576   9.9678   9.9972  10.0378  10.0965  10.1017
    10.2390  10.2795  10.2853  10.3549  10.3926  10.4594  10.4646  10.4831
    10.5735  10.6122  10.6669  10.6877

          k = 0.2500 0.0000 0.0000 (256240 PWs)   bands (ev):

   -16.6757 -15.4597 -15.2997 -15.0702 -14.4652 -14.3744 -14.2433 -14.2303
   -13.4682 -13.3025 -13.1886 -12.5913 -12.5456 -12.4386 -12.3415 -11.7076
   -11.5920 -11.4978 -11.4227 -10.6430 -10.5487 -10.1504  -9.9237  -9.7451
    -9.5787  -9.3773  -9.2788  -8.8566  -8.5798  -8.4863  -8.0489  -7.3692
    -7.1701  -7.1218  -6.9457  -6.9228  -6.8264  -6.4555  -6.3507  -5.6390
    -5.5887  -5.4062  -5.3226  -5.2414  -5.2326  -4.8551  -4.8324  -4.6905
    -4.6842  -4.6537  -4.3182  -4.2310  -4.0137  -3.9519  -3.9287  -3.8586
    -3.8493  -3.7609  -3.7441  -3.6465  -3.6171  -3.5048  -3.3927  -3.3769
    -3.3263  -3.3028  -3.2181  -3.2153  -3.1839  -3.0319  -3.0236  -2.9487
    -2.9188  -2.8558  -2.8310  -2.7332  -2.7052  -2.6976  -2.5861  -2.5741
    -2.5243  -2.4889  -2.4630  -2.3957  -2.2796  -2.2241  -2.2040  -2.1890
    -2.1745  -2.1733  -2.0016  -1.8547  -1.8459  -1.8262  -1.7946  -1.7520
    -1.7072  -1.6082  -1.5309  -1.4991  -1.4894  -1.4844  -1.4691  -1.4604
    -1.4464  -1.4196  -1.3901  -1.3254  -1.3209  -1.2766  -1.2518  -1.2294
    -1.1955  -1.1836  -1.1771  -1.1756  -1.1719  -1.1705  -1.1587  -1.1551
    -1.1067  -1.1026  -1.0847  -1.0764  -1.0489  -1.0469  -1.0436  -0.9960
    -0.9720  -0.9700  -0.9659  -0.9500  -0.9394  -0.9375  -0.9152  -0.9080
    -0.8976  -0.8860  -0.8840  -0.8470  -0.8387  -0.7988  -0.7718  -0.7482
    -0.7224  -0.7009  -0.6918  -0.6857  -0.6664  -0.6567  -0.6430  -0.6368
    -0.6292  -0.6259  -0.6206  -0.6141  -0.5950  -0.5933  -0.5804  -0.5756
    -0.5730  -0.5556  -0.5492  -0.5302  -0.5281  -0.5272  -0.5168  -0.5120
    -0.5085  -0.5067  -0.5003  -0.4861  -0.4830  -0.4636  -0.4508  -0.4452
    -0.4405  -0.4287  -0.4245  -0.4181  -0.4141  -0.4134  -0.4102  -0.4090
    -0.4071  -0.3970  -0.3933  -0.3799  -0.3737  -0.3720  -0.3686  -0.3671
    -0.3619  -0.3602  -0.3560  -0.3460  -0.3304  -0.2981  -0.2903  -0.2822
    -0.2761  -0.2664  -0.2575  -0.2510  -0.2329  -0.1968  -0.1957  -0.1866
    -0.1825  -0.1753  -0.1681  -0.1678  -0.1518  -0.1371  -0.1316  -0.1283
    -0.1180  -0.1150  -0.1130  -0.0989  -0.0712  -0.0260  -0.0187  -0.0094
    -0.0060   0.0119   0.0165   0.0195   0.0232   0.0427   0.0535   0.0554
     0.0619   0.0628   0.0716   0.0761   0.0886   0.0957   0.1037   0.1060
     0.1094   0.1126   0.1173   0.1383   0.1401   0.1412   0.1429   0.1582
     0.1693   0.1759   0.1938   0.1985   0.2068   0.2085   0.2122   0.2174
     0.2187   0.2205   0.2291   0.2317   0.2375   0.2399   0.2419   0.2508
     0.2671   0.2692   0.2788   0.2836   0.2878   0.2920   0.2984   0.3031
     0.3074   0.3125   0.3175   0.3226   0.3252   0.3277   0.3295   0.3362
     0.3462   0.3562   0.3575   0.3717   0.3760   0.3778   0.3865   0.4015
     0.4106   0.4120   0.4140   0.4179   0.4277   0.4304   0.4378   0.4398
     0.4463   0.4572   0.4635   0.4725   0.4779   0.4825   0.4853   0.4929
     0.4951   0.4991   0.5051   0.5115   0.5188   0.5237   0.5283   0.5334
     0.5451   0.5497   0.5540   0.5623   0.5683   0.5700   0.5864   0.5896
     0.5918   0.5988   0.6009   0.6047   0.6067   0.6075   0.6124   0.6149
     0.6239   0.6275   0.6305   0.6316   0.6492   0.6551   0.6583   0.6611
     0.6630   0.6679   0.6750   0.6779   0.6793   0.6811   0.6839   0.6898
     0.6978   0.7073   0.7149   0.7228   0.7392   0.7407   0.7463   0.7521
     0.7565   0.7594   0.7620   0.7805   0.7913   0.7946   0.7979   0.8047
     0.8167   0.8225   0.8314   0.8436   0.8563   0.8574   0.8627   0.8688
     0.8725   0.8818   0.8921   0.8947   0.9013   0.9039   0.9069   0.9091
     0.9108   0.9187   0.9208   0.9227   0.9266   0.9320   0.9333   0.9372
     0.9407   0.9492   0.9544   0.9552   0.9597   0.9633   0.9669   0.9703
     0.9792   0.9918   0.9953   1.0099   1.0155   1.0305   1.0370   1.0444
     1.0468   1.0503   1.0562   1.0585   1.0599   1.0638   1.0677   1.0716
     1.0766   1.0871   1.0993   1.1022   1.1025   1.1111   1.1164   1.1250
     1.1281   1.1304   1.1420   1.1460   1.1469   1.1573   1.1607   1.1645
     1.1668   1.1697   1.1833   1.1861   1.1890   1.1946   1.1989   1.2009
     1.2023   1.2132   1.2160   1.2207   1.2262   1.2294   1.2347   1.2401
     1.2427   1.2440   1.2544   1.2568   1.2575   1.2619   1.2666   1.2674
     1.2833   1.2843   1.2860   1.2897   1.2924   1.3106   1.3155   1.3168
     1.3255   1.3390   1.3422   1.3438   1.3468   1.3557   1.3575   1.3635
     1.3647   1.3759   1.3799   1.3828   1.3867   1.3892   1.4026   1.4042
     1.4093   1.4133   1.4159   1.4188   1.4338   1.4381   1.4492   1.4514
     1.4525   1.4544   1.4598   1.4615   1.4666   1.4746   1.4792   1.4836
     1.4859   1.4872   1.4927   1.4998   1.5019   1.5090   1.5104   1.5172
     1.5197   1.5212   1.5257   1.5321   1.5501   1.5530   1.5569   1.5604
     1.5705   1.5733   1.5778   1.5828   1.5894   1.5901   1.5921   1.6014
     1.6050   1.6070   1.6113   1.6140   1.6151   1.6237   1.6273   1.6295
     1.6308   1.6321   1.6428   1.6433   1.6451   1.6482   1.6489   1.6546
     1.6581   1.6597   1.6632   1.6654   1.6659   1.6698   1.6742   1.6811
     1.6883   1.6908   1.6941   1.6985   1.7009   1.7065   1.7089   1.7118
     1.7169   1.7228   1.7255   1.7270   1.7324   1.7388   1.7483   1.7494
     1.7563   1.7605   1.7684   1.7688   1.7733   1.7871   1.7931   1.7948
     1.7962   1.7998   1.8052   1.8119   1.8151   1.8188   1.8197   1.8281
     1.8296   1.8380   1.8416   1.8447   1.8512   1.8543   1.8560   1.8588
     1.8688   1.8708   1.8725   1.8743   1.8767   1.8787   1.8809   1.8822
     1.8899   1.8930   1.8991   1.8997   1.9040   1.9062   1.9115   1.9141
     1.9153   1.9198   1.9263   1.9282   1.9356   1.9494   1.9537   1.9620
     1.9629   1.9669   1.9701   1.9713   1.9732   1.9755   1.9782   1.9846
     1.9867   1.9914   1.9926   1.9957   2.0088   2.0098   2.0108   2.0142
     2.0151   2.0208   2.0241   2.0254   2.0267   2.0304   2.0360   2.0370
     2.0399   2.0429   2.0443   2.0463   2.0536   2.0553   2.0607   2.0654
     2.0676   2.0701   2.0730   2.0761   2.0809   2.0844   2.0925   2.0959
     2.0987   2.1044   2.1066   2.1074   2.1194   2.1269   2.1294   2.1458
     2.1508   2.1613   2.1655   2.1709   2.1827   2.1934   2.2032   2.2130
     2.2197   2.2334   2.2395   2.3259   2.3347   2.3403   2.3747   2.3953
     2.4109   2.4329   2.4488   2.4840   2.5217   2.5996   2.6093   2.6288
     2.6410   2.6799   2.7015   2.9729   3.0433   3.0600   3.0720   3.1077
     3.1830   3.3373   3.4783   3.5166   3.5714   3.5729   3.6094   3.6920
     3.7348   3.7676   3.8153   3.8197   3.8499   3.9953   4.0491   4.0703
     4.1623   4.1788   4.2297   4.2389   4.2454   4.2722   4.2768   4.2834
     4.2863   4.3421   4.5355   4.6754   4.7701   4.7960   4.8599   4.8812
     4.9576   5.0289   5.1128   5.1568   5.1690   5.2025   5.2316   5.3542
     5.4053   5.5829   5.6154   5.6548   5.6680   5.7175   5.7659   5.8038
     5.8319   5.8924   5.9316   5.9761   5.9854   6.1010   6.1852   6.1885
     6.2782   6.3585   6.4198   6.4926   6.5331   6.5429   6.5606   6.5862
     6.8013   6.9057   6.9689   7.0621   7.1500   7.1885   7.2337   7.2890
     7.3307   7.3389   7.3595   7.4020   7.4304   7.4536   7.4781   7.5147
     7.5268   7.5522   7.6265   7.6463   7.7754   7.8819   7.9016   7.9337
     8.0983   8.1076   8.2016   8.2350   8.2812   8.3094   8.3612   8.3960
     8.4557   8.4879   8.5188   8.6018   8.6178   8.6488   8.7172   8.7567
     8.8581   8.9621   8.9638   8.9774   9.0199   9.0377   9.0995   9.1469
     9.2209   9.3118   9.3628   9.3836   9.4165   9.4627   9.4779   9.4852
     9.5311   9.5377   9.5690   9.6146   9.7013   9.7418   9.7612   9.7727
     9.8377   9.8567   9.9376   9.9798   9.9928  10.0173  10.0727  10.0761
    10.1898  10.2552  10.2721  10.3105  10.3168  10.3675  10.3751  10.4242
    10.5161  10.5412  10.5606  10.5919

          k = 0.2500-0.2165 0.0000 (256316 PWs)   bands (ev):

   -16.6755 -15.5009 -15.2564 -14.8711 -14.8472 -14.4994 -14.0402 -13.8930
   -13.6084 -13.4800 -13.1524 -12.6140 -12.5679 -12.5140 -12.0900 -11.9920
   -11.5693 -11.3457 -10.8992 -10.7960 -10.6753 -10.4496 -10.3683  -9.8898
    -9.2466  -9.1859  -8.7814  -8.7164  -8.4340  -8.3888  -8.0704  -7.9759
    -7.8221  -7.7837  -6.7179  -6.4177  -6.2464  -6.0213  -5.9263  -5.9024
    -5.7170  -5.6563  -5.4708  -5.4473  -5.1284  -5.0763  -4.8284  -4.7656
    -4.6193  -4.4336  -4.3245  -4.2082  -4.0944  -4.0317  -4.0120  -3.9524
    -3.8896  -3.8273  -3.7610  -3.7171  -3.6013  -3.5748  -3.4964  -3.4810
    -3.2172  -3.2125  -3.1776  -3.0689  -3.0281  -2.9612  -2.9041  -2.8894
    -2.8550  -2.8091  -2.7828  -2.7808  -2.6965  -2.6644  -2.6120  -2.5282
    -2.4910  -2.4577  -2.4136  -2.3277  -2.2887  -2.2883  -2.1813  -2.1684
    -2.1316  -2.0822  -2.0410  -1.9136  -1.8998  -1.8704  -1.7955  -1.7189
    -1.6933  -1.6517  -1.5995  -1.5561  -1.5414  -1.5385  -1.5150  -1.4847
    -1.4575  -1.4325  -1.4066  -1.4050  -1.3462  -1.3258  -1.3141  -1.2918
    -1.2591  -1.2084  -1.1884  -1.1857  -1.1506  -1.1436  -1.1410  -1.0985
    -1.0946  -1.0905  -1.0828  -1.0820  -1.0784  -1.0679  -1.0639  -1.0578
    -1.0549  -0.9968  -0.9889  -0.9604  -0.9589  -0.9529  -0.9379  -0.8861
    -0.8649  -0.8400  -0.8348  -0.7787  -0.7673  -0.7508  -0.7488  -0.7189
    -0.7165  -0.7024  -0.6714  -0.6700  -0.6691  -0.6666  -0.6478  -0.6346
    -0.6297  -0.6213  -0.6188  -0.6136  -0.6037  -0.5939  -0.5911  -0.5892
    -0.5888  -0.5799  -0.5778  -0.5472  -0.5397  -0.5174  -0.5061  -0.5050
    -0.5026  -0.5001  -0.4928  -0.4849  -0.4657  -0.4575  -0.4519  -0.4465
    -0.4427  -0.4375  -0.4343  -0.4301  -0.4203  -0.4131  -0.4031  -0.4004
    -0.3915  -0.3796  -0.3736  -0.3671  -0.3620  -0.3612  -0.3586  -0.3556
    -0.3445  -0.3429  -0.3145  -0.3116  -0.2954  -0.2891  -0.2762  -0.2747
    -0.2667  -0.2563  -0.2508  -0.2348  -0.2239  -0.2117  -0.2082  -0.1993
    -0.1884  -0.1757  -0.1636  -0.1586  -0.1349  -0.1312  -0.1245  -0.1048
    -0.0966  -0.0863  -0.0816  -0.0690  -0.0668  -0.0548  -0.0427  -0.0160
    -0.0034   0.0044   0.0144   0.0237   0.0325   0.0329   0.0375   0.0413
     0.0473   0.0545   0.0627   0.0665   0.0754   0.0880   0.0943   0.1077
     0.1089   0.1149   0.1285   0.1324   0.1448   0.1512   0.1553   0.1558
     0.1576   0.1697   0.1818   0.1843   0.1866   0.2029   0.2044   0.2103
     0.2123   0.2175   0.2227   0.2294   0.2314   0.2325   0.2392   0.2466
     0.2480   0.2528   0.2597   0.2605   0.2612   0.2744   0.2771   0.2805
     0.2860   0.2968   0.3033   0.3148   0.3296   0.3318   0.3396   0.3463
     0.3558   0.3598   0.3631   0.3682   0.3754   0.3836   0.3895   0.3923
     0.4010   0.4031   0.4156   0.4188   0.4211   0.4296   0.4326   0.4413
     0.4538   0.4735   0.4815   0.4851   0.4897   0.4909   0.4924   0.4963
     0.5061   0.5101   0.5105   0.5224   0.5303   0.5314   0.5378   0.5443
     0.5456   0.5532   0.5560   0.5612   0.5660   0.5666   0.5789   0.5810
     0.5906   0.5932   0.5962   0.5973   0.6001   0.6057   0.6105   0.6265
     0.6280   0.6310   0.6366   0.6379   0.6390   0.6493   0.6576   0.6635
     0.6867   0.6894   0.6918   0.6937   0.6950   0.6961   0.6989   0.7086
     0.7151   0.7332   0.7381   0.7423   0.7480   0.7514   0.7544   0.7608
     0.7638   0.7657   0.7677   0.7776   0.7838   0.7871   0.7897   0.7918
     0.8027   0.8046   0.8081   0.8172   0.8273   0.8338   0.8437   0.8591
     0.8673   0.8717   0.8808   0.8843   0.8909   0.8933   0.9032   0.9076
     0.9156   0.9182   0.9229   0.9257   0.9274   0.9279   0.9331   0.9420
     0.9488   0.9555   0.9571   0.9599   0.9640   0.9710   0.9753   0.9870
     0.9890   0.9925   0.9954   0.9978   1.0090   1.0169   1.0273   1.0281
     1.0295   1.0341   1.0387   1.0439   1.0528   1.0574   1.0778   1.0940
     1.0956   1.1044   1.1078   1.1114   1.1125   1.1140   1.1203   1.1243
     1.1339   1.1417   1.1497   1.1541   1.1641   1.1702   1.1791   1.1829
     1.1840   1.1856   1.1954   1.1982   1.1990   1.2041   1.2049   1.2127
     1.2187   1.2208   1.2246   1.2330   1.2396   1.2418   1.2471   1.2514
     1.2598   1.2621   1.2624   1.2695   1.2706   1.2800   1.2829   1.2879
     1.2918   1.2956   1.2988   1.3006   1.3057   1.3079   1.3099   1.3159
     1.3204   1.3287   1.3388   1.3408   1.3430   1.3437   1.3467   1.3489
     1.3545   1.3559   1.3609   1.3643   1.3674   1.3781   1.3793   1.3918
     1.3950   1.3958   1.4042   1.4090   1.4231   1.4268   1.4310   1.4322
     1.4434   1.4466   1.4481   1.4520   1.4549   1.4574   1.4718   1.4765
     1.4778   1.4828   1.4871   1.4885   1.4894   1.4919   1.4942   1.5002
     1.5159   1.5180   1.5204   1.5249   1.5273   1.5299   1.5355   1.5430
     1.5488   1.5549   1.5630   1.5665   1.5689   1.5737   1.5755   1.5892
     1.5901   1.5951   1.5972   1.6066   1.6094   1.6277   1.6340   1.6347
     1.6388   1.6493   1.6554   1.6579   1.6609   1.6652   1.6703   1.6760
     1.6834   1.6843   1.6896   1.6905   1.6921   1.6981   1.7023   1.7043
     1.7049   1.7077   1.7086   1.7125   1.7176   1.7225   1.7251   1.7271
     1.7466   1.7481   1.7538   1.7570   1.7586   1.7642   1.7657   1.7667
     1.7680   1.7707   1.7729   1.7749   1.7791   1.7798   1.7811   1.7828
     1.7977   1.7987   1.8019   1.8032   1.8060   1.8066   1.8080   1.8125
     1.8145   1.8261   1.8297   1.8376   1.8405   1.8439   1.8458   1.8524
     1.8550   1.8589   1.8602   1.8666   1.8678   1.8726   1.8823   1.8900
     1.8945   1.8957   1.9005   1.9070   1.9109   1.9127   1.9153   1.9204
     1.9235   1.9303   1.9322   1.9362   1.9426   1.9482   1.9524   1.9560
     1.9575   1.9619   1.9640   1.9680   1.9695   1.9748   1.9760   1.9794
     1.9812   1.9844   1.9890   1.9930   1.9976   1.9993   2.0050   2.0114
     2.0162   2.0214   2.0225   2.0241   2.0294   2.0307   2.0320   2.0328
     2.0419   2.0438   2.0453   2.0493   2.0498   2.0517   2.0530   2.0642
     2.0656   2.0712   2.0727   2.0744   2.0752   2.0833   2.0849   2.0888
     2.0952   2.0966   2.1039   2.1064   2.1120   2.1204   2.1232   2.1377
     2.1385   2.1454   2.1470   2.1514   2.1725   2.1754   2.1904   2.2237
     2.2360   2.2511   2.2839   2.3047   2.3154   2.3260   2.3274   2.3365
     2.3476   2.3517   2.3702   2.4775   2.6989   2.7075   2.7253   2.7368
     2.7642   2.8268   2.8338   2.8521   2.9539   3.0758   3.1551   3.1598
     3.1727   3.2183   3.2810   3.3727   3.3796   3.4222   3.4607   3.4887
     3.5181   3.6767   3.7530   3.7626   3.7869   3.9760   4.1560   4.2021
     4.2346   4.3062   4.3190   4.3930   4.4178   4.4322   4.4558   4.5794
     4.6300   4.6731   4.7391   4.7397   4.7663   4.8294   4.8547   4.8995
     4.9387   4.9449   5.0091   5.0501   5.1100   5.1773   5.1925   5.2531
     5.2952   5.3593   5.4007   5.4278   5.4816   5.5741   5.5896   5.7480
     5.7900   5.8025   5.9790   5.9974   6.0486   6.0770   6.1332   6.2072
     6.3123   6.3179   6.3872   6.4366   6.5452   6.5996   6.6362   6.6528
     6.8212   6.8470   7.0102   7.0362   7.0557   7.0926   7.1517   7.3184
     7.3763   7.3867   7.4273   7.4835   7.5863   7.6123   7.6606   7.6815
     7.7084   7.7141   7.7315   7.7508   7.7808   7.9176   7.9253   7.9681
     8.0163   8.0825   8.0892   8.1752   8.3366   8.3983   8.4185   8.4766
     8.5054   8.5573   8.5982   8.6273   8.6849   8.7796   8.7899   8.8066
     8.8454   8.8711   8.8806   8.9191   9.0318   9.0822   9.0944   9.1012
     9.1565   9.1857   9.2300   9.2824   9.3175   9.3252   9.3330   9.3455
     9.4394   9.5068   9.5951   9.6175   9.6328   9.6575   9.6918   9.7267
     9.7823   9.8048   9.8336   9.8639   9.8966   9.9440  10.0250  10.0621
    10.0958  10.1007  10.1505  10.2121  10.2294  10.2933  10.3378  10.4232
    10.4431  10.4733  10.4993  10.5442

          k =-0.5000 0.0000 0.0000 (256496 PWs)   bands (ev):

   -16.6119 -15.4496 -15.0774 -14.9640 -14.9370 -14.8428 -14.1438 -13.9573
   -13.8603 -13.8250 -12.5988 -12.2612 -12.1338 -12.0723 -11.8831 -11.8692
   -11.2831 -11.1906 -11.1375 -11.0709 -10.5283 -10.5150 -10.3600 -10.1545
    -9.7102  -9.6971  -9.4307  -9.1054  -8.5082  -8.4909  -8.3361  -8.3286
    -7.2061  -6.9986  -6.9539  -6.7976  -6.7562  -6.7380  -5.7205  -5.6142
    -5.2173  -4.7445  -4.7205  -4.6990  -4.5917  -4.5187  -4.2799  -4.2510
    -4.2281  -4.1962  -4.1850  -4.1774  -4.1749  -4.1346  -4.0717  -4.0150
    -4.0060  -3.9683  -3.9182  -3.9053  -3.7813  -3.7613  -3.7537  -3.6165
    -3.4772  -3.4114  -3.2930  -3.2834  -3.1731  -3.1320  -3.0566  -2.9851
    -2.9295  -2.8980  -2.7998  -2.7975  -2.7956  -2.7945  -2.7922  -2.7800
    -2.7450  -2.7292  -2.4702  -2.4300  -2.3215  -2.2790  -2.2356  -2.1887
    -2.1792  -2.1720  -2.1456  -2.1042  -2.0798  -1.9255  -1.9111  -1.8955
    -1.8921  -1.8796  -1.8672  -1.8071  -1.3693  -1.3404  -1.3379  -1.3329
    -1.2709  -1.2697  -1.2658  -1.2634  -1.2598  -1.2577  -1.2547  -1.2525
    -1.2081  -1.2042  -1.0838  -1.0476  -1.0470  -1.0447  -1.0432  -0.9992
    -0.9938  -0.9915  -0.9881  -0.9815  -0.9746  -0.9333  -0.9295  -0.9120
    -0.8794  -0.8790  -0.8595  -0.8525  -0.8395  -0.8377  -0.8265  -0.8203
    -0.8053  -0.7784  -0.7769  -0.7740  -0.7509  -0.7481  -0.7400  -0.7389
    -0.7245  -0.7152  -0.7091  -0.7021  -0.6891  -0.6889  -0.6853  -0.6817
    -0.6731  -0.6713  -0.6670  -0.6642  -0.6530  -0.6064  -0.6039  -0.5946
    -0.5902  -0.5820  -0.5692  -0.5679  -0.5585  -0.5487  -0.5474  -0.5423
    -0.5415  -0.5184  -0.5102  -0.5027  -0.5013  -0.4944  -0.4941  -0.4791
    -0.4774  -0.4700  -0.4516  -0.4332  -0.4307  -0.4255  -0.4241  -0.4014
    -0.3882  -0.3809  -0.3765  -0.3751  -0.3641  -0.3626  -0.3622  -0.3612
    -0.3534  -0.3520  -0.3441  -0.3365  -0.3355  -0.3266  -0.3248  -0.3099
    -0.3082  -0.3001  -0.2982  -0.2950  -0.2938  -0.2827  -0.2798  -0.2352
    -0.2266  -0.1636  -0.1599  -0.1322  -0.1258  -0.1179  -0.1164  -0.0963
    -0.0920  -0.0906  -0.0800  -0.0711  -0.0691  -0.0579  -0.0556  -0.0492
    -0.0444  -0.0325  -0.0296  -0.0123  -0.0086  -0.0041  -0.0037   0.0091
     0.0139   0.0196   0.0226   0.0273   0.0345   0.0538   0.0725   0.0844
     0.0908   0.1009   0.1144   0.1214   0.1234   0.1296   0.1419   0.1425
     0.1448   0.1455   0.1708   0.1749   0.1829   0.1844   0.1977   0.1998
     0.2187   0.2296   0.2312   0.2330   0.2462   0.2518   0.2536   0.2639
     0.2667   0.2762   0.2793   0.2861   0.2977   0.3018   0.3085   0.3099
     0.3180   0.3269   0.3288   0.3391   0.3394   0.3507   0.3526   0.3552
     0.3578   0.3617   0.3624   0.3913   0.3934   0.3990   0.4164   0.4250
     0.4315   0.4346   0.4389   0.4505   0.4591   0.4620   0.4633   0.4685
     0.4754   0.4784   0.4846   0.4916   0.4979   0.5225   0.5253   0.5361
     0.5367   0.5390   0.5445   0.5527   0.5541   0.5604   0.5678   0.5683
     0.5699   0.5711   0.5850   0.5858   0.5883   0.5898   0.5912   0.5951
     0.6071   0.6104   0.6179   0.6295   0.6349   0.6370   0.6509   0.6537
     0.6747   0.6798   0.6804   0.6938   0.6947   0.6956   0.6963   0.6973
     0.6975   0.7022   0.7034   0.7083   0.7123   0.7127   0.7144   0.7261
     0.7306   0.7307   0.7321   0.7327   0.7353   0.7371   0.7404   0.7423
     0.7459   0.7481   0.7505   0.7624   0.7668   0.7682   0.7708   0.7949
     0.8000   0.8113   0.8124   0.8276   0.8291   0.8315   0.8628   0.8710
     0.8776   0.8827   0.8862   0.8927   0.9001   0.9029   0.9049   0.9084
     0.9149   0.9323   0.9354   0.9393   0.9430   0.9493   0.9521   0.9575
     0.9596   0.9608   0.9676   0.9680   0.9708   0.9869   0.9871   0.9885
     0.9891   0.9903   0.9935   0.9960   0.9968   1.0096   1.0101   1.0166
     1.0179   1.0213   1.0272   1.0435   1.0540   1.0594   1.0683   1.0715
     1.0725   1.0912   1.0926   1.0928   1.1002   1.1030   1.1069   1.1103
     1.1107   1.1225   1.1261   1.1377   1.1426   1.1448   1.1489   1.1517
     1.1523   1.1616   1.1638   1.1685   1.1700   1.1735   1.1768   1.1785
     1.1795   1.2039   1.2083   1.2100   1.2107   1.2168   1.2179   1.2231
     1.2245   1.2301   1.2309   1.2354   1.2433   1.2465   1.2490   1.2586
     1.2608   1.2627   1.2640   1.2690   1.2785   1.2797   1.2873   1.2879
     1.2919   1.2943   1.3053   1.3062   1.3335   1.3342   1.3380   1.3426
     1.3476   1.3482   1.3572   1.3599   1.3643   1.3650   1.3662   1.3674
     1.3793   1.3836   1.3857   1.3906   1.3986   1.4010   1.4107   1.4147
     1.4158   1.4342   1.4347   1.4369   1.4370   1.4449   1.4496   1.4576
     1.4586   1.4592   1.4623   1.4662   1.4698   1.4704   1.4739   1.4774
     1.4923   1.4948   1.4998   1.5014   1.5042   1.5043   1.5231   1.5238
     1.5331   1.5444   1.5509   1.5525   1.5597   1.5646   1.5720   1.5775
     1.5915   1.5945   1.6053   1.6061   1.6115   1.6180   1.6338   1.6345
     1.6366   1.6512   1.6532   1.6582   1.6613   1.6669   1.6763   1.6798
     1.6813   1.6819   1.6846   1.6865   1.6879   1.6928   1.7003   1.7017
     1.7082   1.7139   1.7184   1.7217   1.7264   1.7279   1.7282   1.7295
     1.7361   1.7390   1.7439   1.7448   1.7502   1.7517   1.7646   1.7698
     1.7726   1.7746   1.7755   1.7811   1.7825   1.7836   1.7853   1.7949
     1.8039   1.8052   1.8098   1.8104   1.8130   1.8151   1.8181   1.8246
     1.8263   1.8283   1.8287   1.8303   1.8367   1.8406   1.8416   1.8469
     1.8546   1.8665   1.8680   1.8731   1.8817   1.8868   1.8884   1.8901
     1.8910   1.8930   1.8974   1.8983   1.9044   1.9075   1.9101   1.9146
     1.9161   1.9168   1.9196   1.9204   1.9241   1.9244   1.9274   1.9276
     1.9312   1.9365   1.9396   1.9459   1.9484   1.9561   1.9598   1.9613
     1.9692   1.9706   1.9718   1.9724   1.9755   1.9855   1.9874   1.9953
     1.9962   1.9975   1.9984   2.0120   2.0138   2.0147   2.0161   2.0188
     2.0192   2.0204   2.0282   2.0286   2.0325   2.0344   2.0425   2.0437
     2.0447   2.0450   2.0560   2.0644   2.0670   2.0678   2.0760   2.0770
     2.0873   2.0876   2.0934   2.0940   2.0996   2.1061   2.1063   2.1066
     2.1069   2.1156   2.1168   2.1378   2.1488   2.1548   2.1614   2.1629
     2.1699   2.1720   2.2011   2.2023   2.2087   2.2145   2.3390   2.3440
     2.3831   2.3860   2.5348   2.5367   2.8008   2.8027   2.8514   2.8533
     2.8604   2.8625   2.8791   2.8808   2.9026   2.9046   3.3141   3.3169
     3.3546   3.3578   3.6418   3.6519   3.6753   3.6848   3.7353   3.7401
     3.7689   3.7712   3.8988   3.9000   3.9340   3.9383   4.3050   4.3852
     4.3992   4.4008   4.4151   4.5137   4.5267   4.5825   4.5969   4.6295
     4.6641   4.7211   4.7280   4.9593   4.9933   5.0455   5.2293   5.2567
     5.2675   5.2702   5.2928   5.3102   5.4017   5.4510   5.4548   5.4569
     5.4721   5.5261   5.5856   5.6106   5.6167   5.6215   5.6508   5.6699
     5.7104   5.7217   5.7291   5.7714   5.7993   5.8011   5.8967   5.9010
     5.9229   6.0061   6.3169   6.3340   6.3559   6.3839   6.4661   6.4673
     6.5029   6.5080   6.5115   6.5418   6.6025   6.6059   6.6364   6.6561
     6.8314   7.0278   7.0716   7.0933   7.1086   7.1316   7.1955   7.2238
     7.6798   7.6999   7.7137   7.7237   7.8104   7.8134   7.8622   7.8767
     8.1165   8.1227   8.1887   8.1931   8.2156   8.2197   8.2534   8.2580
     8.4028   8.4090   8.4645   8.4662   8.5020   8.5042   8.6715   8.7011
     8.7530   8.7776   8.8241   8.8445   8.8499   8.8683   9.1328   9.1459
     9.1699   9.2171   9.2624   9.2638   9.3192   9.3230   9.4414   9.4448
     9.4716   9.4724   9.4901   9.6314   9.6585   9.6645   9.6746   9.7644
     9.7950   9.8682   9.8793   9.9411   9.9569   9.9597   9.9650   9.9719
     9.9823  10.0331  10.1584  10.1642  10.1757  10.1804  10.2703  10.2728
    10.3240  10.3354  10.4459  10.4651

          k =-0.5000-0.2165 0.0000 (256328 PWs)   bands (ev):

   -16.6118 -15.4384 -15.1443 -15.0874 -14.7142 -14.5437 -14.4861 -14.4431
   -13.3985 -13.1992 -13.0653 -13.0273 -12.1239 -11.8983 -11.3405 -11.3347
   -11.2957 -11.1012 -11.0751 -10.9199 -10.8948 -10.8899 -10.7057 -10.6713
    -9.4637  -9.4395  -9.0807  -9.0406  -8.6191  -8.2656  -8.1951  -8.1114
    -7.6986  -7.6541  -7.3327  -7.3112  -5.9288  -5.7612  -5.5255  -5.3517
    -5.2362  -5.0408  -4.7896  -4.6957  -4.6842  -4.6490  -4.6034  -4.5905
    -4.5534  -4.5495  -4.5006  -4.3036  -4.2825  -4.0328  -3.8726  -3.7516
    -3.7100  -3.6263  -3.6169  -3.6078  -3.5889  -3.5557  -3.5546  -3.5351
    -3.5313  -3.5268  -3.4753  -3.3935  -3.3342  -3.3099  -3.1249  -3.1093
    -3.0827  -3.0381  -2.8906  -2.8819  -2.8168  -2.7962  -2.7881  -2.7834
    -2.7267  -2.5574  -2.5518  -2.4864  -2.3808  -2.3684  -2.0862  -2.0826
    -2.0764  -1.9901  -1.9578  -1.9570  -1.9556  -1.9543  -1.8171  -1.7635
    -1.6933  -1.6745  -1.6515  -1.6386  -1.5482  -1.5264  -1.4886  -1.4798
    -1.4703  -1.4649  -1.4196  -1.3394  -1.3284  -1.2319  -1.2217  -1.1976
    -1.1955  -1.1879  -1.1853  -1.1409  -1.1322  -1.1153  -1.0972  -1.0100
    -0.9930  -0.9743  -0.9737  -0.9054  -0.8764  -0.8731  -0.8701  -0.8687
    -0.8344  -0.8298  -0.8284  -0.8269  -0.8246  -0.8242  -0.8226  -0.8133
    -0.8126  -0.8103  -0.7860  -0.7822  -0.7782  -0.7777  -0.7582  -0.7575
    -0.7568  -0.7546  -0.7462  -0.7453  -0.7426  -0.7420  -0.7033  -0.6999
    -0.6528  -0.6350  -0.6325  -0.6234  -0.6201  -0.6101  -0.5989  -0.5895
    -0.5877  -0.5769  -0.5763  -0.5579  -0.5523  -0.5424  -0.5415  -0.5247
    -0.5241  -0.5215  -0.5202  -0.5110  -0.5089  -0.5049  -0.5037  -0.4986
    -0.4963  -0.4937  -0.4737  -0.4645  -0.4611  -0.4589  -0.4412  -0.4404
    -0.4370  -0.4355  -0.4178  -0.4173  -0.4161  -0.4155  -0.3953  -0.3739
    -0.3724  -0.3649  -0.3493  -0.3440  -0.3228  -0.3208  -0.3159  -0.3137
    -0.2607  -0.2593  -0.2477  -0.2349  -0.2255  -0.2112  -0.2101  -0.2022
    -0.2011  -0.1610  -0.1603  -0.1473  -0.1464  -0.1455  -0.1446  -0.1358
    -0.1314  -0.1236  -0.1199  -0.0998  -0.0965  -0.0868  -0.0843  -0.0791
    -0.0754  -0.0657  -0.0646  -0.0601  -0.0569  -0.0066   0.0184   0.0267
     0.0394   0.0405   0.0557   0.0645   0.0666   0.0682   0.0726   0.0742
     0.0753   0.1039   0.1143   0.1175   0.1195   0.1205   0.1316   0.1560
     0.1652   0.1673   0.1679   0.1688   0.1697   0.1710   0.1735   0.2035
     0.2059   0.2111   0.2209   0.2325   0.2361   0.2384   0.2458   0.2822
     0.2872   0.3070   0.3143   0.3241   0.3343   0.3403   0.3406   0.3419
     0.3437   0.3452   0.3482   0.3561   0.3571   0.3609   0.3630   0.3673
     0.3734   0.3742   0.3874   0.4196   0.4228   0.4312   0.4314   0.4324
     0.4395   0.4398   0.4442   0.4698   0.4718   0.4761   0.4794   0.4818
     0.4847   0.4855   0.4861   0.4889   0.4894   0.4928   0.4945   0.5136
     0.5194   0.5234   0.5325   0.5360   0.5415   0.5510   0.5621   0.5656
     0.5704   0.5794   0.6002   0.6018   0.6037   0.6189   0.6295   0.6325
     0.6361   0.6374   0.6381   0.6400   0.6464   0.6607   0.6625   0.6636
     0.6686   0.6750   0.6784   0.6800   0.6893   0.6933   0.6953   0.6955
     0.6975   0.6979   0.7055   0.7074   0.7107   0.7126   0.7139   0.7147
     0.7264   0.7343   0.7374   0.7405   0.7412   0.7431   0.7436   0.7480
     0.7538   0.7560   0.7680   0.7922   0.7968   0.8044   0.8072   0.8124
     0.8156   0.8179   0.8200   0.8290   0.8410   0.8467   0.8495   0.8504
     0.8530   0.8589   0.8684   0.8736   0.8804   0.8862   0.8963   0.9011
     0.9068   0.9203   0.9223   0.9391   0.9424   0.9570   0.9594   0.9606
     0.9628   0.9730   0.9750   0.9765   0.9908   0.9910   0.9922   0.9965
     0.9968   1.0065   1.0081   1.0133   1.0138   1.0225   1.0228   1.0309
     1.0356   1.0366   1.0399   1.0482   1.0512   1.0563   1.0611   1.0673
     1.0710   1.0750   1.0797   1.0830   1.0857   1.0872   1.0960   1.0997
     1.1061   1.1063   1.1163   1.1230   1.1344   1.1378   1.1403   1.1518
     1.1598   1.1602   1.1634   1.1700   1.1738   1.1757   1.1759   1.1989
     1.2011   1.2034   1.2049   1.2065   1.2094   1.2209   1.2222   1.2236
     1.2253   1.2286   1.2320   1.2324   1.2348   1.2541   1.2591   1.2634
     1.2650   1.2679   1.2717   1.2738   1.2823   1.2843   1.2845   1.2943
     1.2995   1.3034   1.3106   1.3142   1.3189   1.3220   1.3239   1.3269
     1.3321   1.3344   1.3374   1.3425   1.3478   1.3497   1.3572   1.3617
     1.3640   1.3740   1.3782   1.3794   1.3843   1.3881   1.3885   1.3943
     1.3976   1.4051   1.4096   1.4102   1.4177   1.4252   1.4364   1.4492
     1.4557   1.4617   1.4641   1.4721   1.4769   1.4842   1.4851   1.4960
     1.5064   1.5129   1.5258   1.5353   1.5498   1.5535   1.5664   1.5680
     1.5702   1.5738   1.5785   1.5796   1.6039   1.6039   1.6071   1.6169
     1.6198   1.6201   1.6218   1.6229   1.6240   1.6273   1.6288   1.6315
     1.6319   1.6342   1.6380   1.6388   1.6420   1.6429   1.6460   1.6469
     1.6474   1.6490   1.6562   1.6578   1.6694   1.6835   1.6844   1.6863
     1.6934   1.6945   1.6990   1.6991   1.7023   1.7084   1.7130   1.7138
     1.7245   1.7254   1.7311   1.7321   1.7339   1.7350   1.7377   1.7392
     1.7404   1.7411   1.7492   1.7544   1.7762   1.7769   1.7790   1.7808
     1.7953   1.7987   1.8041   1.8078   1.8096   1.8154   1.8190   1.8197
     1.8230   1.8246   1.8301   1.8422   1.8534   1.8541   1.8587   1.8613
     1.8713   1.8762   1.8772   1.8782   1.8805   1.8840   1.8886   1.8890
     1.8941   1.8998   1.9038   1.9072   1.9203   1.9225   1.9238   1.9242
     1.9289   1.9366   1.9372   1.9382   1.9395   1.9402   1.9448   1.9453
     1.9499   1.9515   1.9534   1.9572   1.9575   1.9583   1.9632   1.9679
     1.9700   1.9708   1.9723   1.9728   1.9793   1.9805   1.9858   1.9902
     1.9909   1.9994   2.0027   2.0050   2.0059   2.0084   2.0105   2.0149
     2.0222   2.0246   2.0253   2.0306   2.0329   2.0332   2.0458   2.0463
     2.0468   2.0480   2.0630   2.0639   2.0705   2.0754   2.0904   2.0925
     2.0948   2.0961   2.0994   2.1026   2.1061   2.1067   2.1208   2.1213
     2.1244   2.1268   2.1300   2.1357   2.1705   2.1726   2.1728   2.1737
     2.1787   2.1805   2.1982   2.2019   2.2138   2.2169   2.2209   2.2323
     2.3888   2.3900   2.3922   2.3973   2.4398   2.4455   2.7084   2.7092
     2.9898   2.9971   3.0224   3.0267   3.1205   3.1235   3.1434   3.1439
     3.3442   3.3474   3.3856   3.3926   3.8482   3.8504   4.0017   4.0139
     4.0312   4.0334   4.0398   4.0478   4.1729   4.1753   4.2465   4.2612
     4.3941   4.4414   4.4560   4.5211   4.5221   4.5237   4.5307   4.6185
     4.6525   4.8055   4.8096   4.8181   4.8226   4.9841   5.0244   5.0707
     5.1270   5.1816   5.1894   5.2324   5.2469   5.2729   5.3158   5.3778
     5.3954   5.4824   5.5351   5.5814   5.6119   5.6190   5.6227   5.6343
     5.6455   5.6784   5.7356   5.7407   5.8476   5.8717   6.0154   6.0480
     6.0529   6.0654   6.1305   6.1542   6.1612   6.1863   6.3740   6.3819
     6.3934   6.4100   6.4659   6.5205   6.7336   6.7860   6.8085   6.8179
     7.1847   7.1896   7.2660   7.2696   7.4874   7.4963   7.4977   7.5108
     7.5759   7.5837   7.7194   7.7285   7.7335   7.7393   7.9355   7.9362
     7.9382   7.9392   8.0975   8.1231   8.1399   8.1892   8.2112   8.3873
     8.4006   8.4699   8.5055   8.5373   8.5896   8.6250   8.6342   8.6400
     8.6676   8.6758   8.8752   8.8927   8.9234   8.9554   9.0261   9.0277
     9.2244   9.2325   9.2781   9.2945   9.4103   9.4121   9.4127   9.4150
     9.5021   9.5047   9.5135   9.5169   9.5858   9.5901   9.6012   9.6028
     9.6258   9.6337   9.6572   9.6659   9.7166   9.7297   9.9548   9.9796
    10.0294  10.0488  10.2463  10.2731  10.2773  10.2793  10.3499  10.3581
    10.5073  10.5187  10.5261  10.5304

     the Fermi energy is     3.9148 ev

!    total energy              =  -13679.27115084 Ry
     Harris-Foulkes estimate   =  -13679.27115083 Ry
     estimated scf accuracy    <          6.1E-09 Ry

     The total energy is the sum of the following terms:

     one-electron contribution = -106316.83210073 Ry
     hartree contribution      =   54653.73408837 Ry
     xc contribution           =   -4789.50214797 Ry
     ewald contribution        =   42780.03902853 Ry
     Dispersion Correction     =      -3.10053462 Ry
     smearing contrib. (-TS)   =      -3.60948443 Ry

     convergence has been achieved in  44 iterations

     Writing output data file gc.save
 
     init_run     :    109.77s CPU    118.71s WALL (       1 calls)
     electrons    :  14216.43s CPU  15193.29s WALL (       1 calls)

     Called by init_run:
     wfcinit      :    107.51s CPU    115.64s WALL (       1 calls)
     potinit      :      0.35s CPU      0.42s WALL (       1 calls)

     Called by electrons:
     c_bands      :  13145.42s CPU  14019.13s WALL (      44 calls)
     sum_band     :    898.81s CPU    974.18s WALL (      44 calls)
     v_of_rho     :      3.04s CPU      3.64s WALL (      45 calls)
     newd         :      8.42s CPU     14.39s WALL (      45 calls)
     mix_rho      :    160.58s CPU    181.90s WALL (      44 calls)

     Called by c_bands:
     init_us_2    :     39.54s CPU     40.13s WALL (     534 calls)
     cegterg      :  12971.00s CPU  13836.79s WALL (     274 calls)

     Called by sum_band:
     sum_band:bec :      5.33s CPU      6.08s WALL (     264 calls)
     addusdens    :      8.45s CPU     14.16s WALL (      44 calls)

     Called by *egterg:
     h_psi        :   4571.42s CPU   4959.35s WALL (    1939 calls)
     s_psi        :   1152.25s CPU   1166.72s WALL (    1939 calls)
     g_psi        :     11.31s CPU     11.31s WALL (    1659 calls)
     cdiaghg      :   3973.84s CPU   4130.90s WALL (    1923 calls)

     Called by h_psi:
     add_vuspsi   :   1160.96s CPU   1177.98s WALL (    1939 calls)

     General routines
     calbec       :   1613.60s CPU   1624.95s WALL (    2203 calls)
     fft          :      3.47s CPU      4.11s WALL (     584 calls)
     ffts         :     94.52s CPU    107.40s WALL (   24451 calls)
     fftw         :   2514.25s CPU   2831.40s WALL ( 1396576 calls)
     davcio       :      0.32s CPU      4.57s WALL (       6 calls)
 
     Parallel routines
     fft_scatter  :   1622.73s CPU   1796.19s WALL ( 1421611 calls)
 
     PWSCF        :     3h58m CPU        4h15m WALL

 
   This run was terminated on:  16:46:27  20Apr2017            

=------------------------------------------------------------------------------=
   JOB DONE.
=------------------------------------------------------------------------------=
