mpirun: INFO: switching to OpenMPI runtime version 1.10.2

     Program PWSCF v.5.4.0 starts on  7Sep2017 at 20:41:15 

     This program is part of the open-source Quantum ESPRESSO suite
     for quantum simulation of materials; please cite
         "P. Giannozzi et al., J. Phys.:Condens. Matter 21 395502 (2009);
          URL http://www.quantum-espresso.org", 
     in publications or presentations arising from this work. More details at
     http://www.quantum-espresso.org/quote

     Parallel version (MPI & OpenMP), running on      56 processor cores
     Number of MPI processes:                56
     Threads/MPI process:                     1
     R & G space division:  proc/nbgrp/npool/nimage =      56
     Waiting for input...
     Reading input from standard input
Warning: card &IONS ignored
Warning: card / ignored

     Current dimensions of program PWSCF are:
     Max number of different atomic species (ntypx) = 10
     Max number of k-points (npk) =  40000
     Max angular momentum in pseudopotentials (lmaxx) =  3

     -------------------------------------
     Parameters for Dispersion Correction:
     -------------------------------------
       atom      VdW radius       C_6     

        Cu         2.952        374.666
        C_h        2.744         60.710
        C          2.744         60.710

     Subspace diagonalization in iterative solution of the eigenvalue problem:
     one sub-group per band group will be used
     scalapack distributed-memory algorithm (size of sub-group:  5*  5 procs)

 
     Parallelization info
     --------------------
     sticks:   dense  smooth     PW     G-vecs:    dense   smooth      PW
     Min         204     204     54                36612    36612    4962
     Max         205     205     55                36617    36617    4968
     Sum       11433   11433   3039              2050409  2050409  278033
 


     bravais-lattice index     =            0
     lattice parameter (alat)  =      13.9425  a.u.
     unit-cell volume          =   21209.0878 (a.u.)^3
     number of atoms/cell      =          148
     number of atomic types    =            3
     number of electrons       =      1292.00
     number of Kohn-Sham states=          775
     kinetic-energy cutoff     =      80.0000  Ry
     charge density cutoff     =     320.0000  Ry
     convergence threshold     =      1.0E-08
     mixing beta               =       0.7000
     number of iterations used =            8  local-TF  mixing
     Exchange-correlation      =  SLA  PW   PBX  PBC ( 1  4  3  4 0 0)

     celldm(1)=  13.942539  celldm(2)=   0.000000  celldm(3)=   0.000000
     celldm(4)=   0.000000  celldm(5)=   0.000000  celldm(6)=   0.000000

     crystal axes: (cart. coord. in units of alat)
               a(1) = (   1.000000   0.000000   0.000000 )  
               a(2) = (   0.000000   2.309401   0.000000 )  
               a(3) = (   0.000000   0.000000   3.388418 )  

     reciprocal axes: (cart. coord. in units 2 pi/alat)
               b(1) = (  1.000000  0.000000  0.000000 )  
               b(2) = (  0.000000  0.433013  0.000000 )  
               b(3) = (  0.000000  0.000000  0.295123 )  


     PseudoPot. # 1 for Cu read from file:
     /home/549/hxw549/Short/pseudopotentials/Cu.pbe-n-van_ak.UPF
     MD5 check sum: 601f7c30f7467666bec936e0661ce3e1
     Pseudo is Ultrasoft + core correction, Zval = 11.0
     Generated by new atomic code, or converted to UPF format
     Using radial grid of  867 points,  6 beta functions with: 
                l(1) =   0
                l(2) =   0
                l(3) =   1
                l(4) =   1
                l(5) =   2
                l(6) =   2
     Q(r) pseudized with  8 coefficients,  rinner =    1.400   1.400   1.400
                                                       1.400   1.400

     PseudoPot. # 2 for C  read from file:
     /home/549/hxw549/Short/pseudopotentials/C.star1s-pbe-mt_gipaw.UPF
     MD5 check sum: ef0cb3dee31bd9e4ba2a832a2c716264
     Pseudo is Norm-conserving, Zval =  5.0
     Generated by new atomic code, or converted to UPF format
     Using radial grid of 1073 points,  1 beta functions with: 
                l(1) =   0

     PseudoPot. # 3 for C  read from file:
     /home/549/hxw549/Short/pseudopotentials/C.pbe-mt_gipaw.UPF
     MD5 check sum: 5ac2f21f2c440b14befe521540822c15
     Pseudo is Norm-conserving, Zval =  4.0
     Generated by new atomic code, or converted to UPF format
     Using radial grid of 1073 points,  1 beta functions with: 
                l(1) =   0

     atomic species   valence    mass     pseudopotential
        Cu            11.00    63.54600     Cu( 1.00)
        C_h            5.00    12.01070     C ( 1.00)
        C              4.00    12.01070     C ( 1.00)

     No symmetry found



   Cartesian axes

     site n.     atom                  positions (alat units)
         1           Cu  tau(   1) = (   0.0000000   0.0000567   0.9971194  )
         2           Cu  tau(   2) = (   0.2499927   0.2309760   0.9972946  )
         3           Cu  tau(   3) = (   0.5000000   0.0000313   0.9971490  )
         4           Cu  tau(   4) = (   0.7500073   0.2309760   0.9972946  )
         5           Cu  tau(   5) = (   0.0000000   0.4618437   0.9973425  )
         6           Cu  tau(   6) = (   0.2499840   0.6927701   0.9971914  )
         7           Cu  tau(   7) = (   0.5000000   0.4618722   0.9973119  )
         8           Cu  tau(   8) = (   0.7500160   0.6927701   0.9971914  )
         9           Cu  tau(   9) = (   0.0000000   0.9237521   0.9970621  )
        10           Cu  tau(  10) = (   0.2500157   1.1547420   0.9971373  )
        11           Cu  tau(  11) = (   0.5000000   0.9237453   0.9970727  )
        12           Cu  tau(  12) = (   0.7499843   1.1547420   0.9971373  )
        13           Cu  tau(  13) = (   0.0000000   1.3856555   0.9972830  )
        14           Cu  tau(  14) = (   0.2500029   1.6165618   0.9973242  )
        15           Cu  tau(  15) = (   0.5000000   1.3857014   0.9973005  )
        16           Cu  tau(  16) = (   0.7499971   1.6165618   0.9973242  )
        17           Cu  tau(  17) = (   0.0000000   1.8474941   0.9971969  )
        18           Cu  tau(  18) = (   0.2500043   2.0784518   0.9970745  )
        19           Cu  tau(  19) = (   0.5000000   1.8474499   0.9971773  )
        20           Cu  tau(  20) = (   0.7499957   2.0784518   0.9970745  )
        21           Cu  tau(  21) = (   0.0000000   0.2308065   1.2457643  )
        22           Cu  tau(  22) = (   0.2499892  -0.0001010   1.2455764  )
        23           Cu  tau(  23) = (   0.5000000   0.2308938   1.2456746  )
        24           Cu  tau(  24) = (   0.7500108  -0.0001010   1.2455764  )
        25           Cu  tau(  25) = (   0.0000000   0.6929786   1.2456406  )
        26           Cu  tau(  26) = (   0.2499874   0.4619293   1.2457459  )
        27           Cu  tau(  27) = (   0.5000000   0.6929012   1.2456074  )
        28           Cu  tau(  28) = (   0.7500126   0.4619293   1.2457459  )
        29           Cu  tau(  29) = (   0.0000000   1.1546142   1.2455676  )
        30           Cu  tau(  30) = (   0.2499981   0.9237849   1.2455149  )
        31           Cu  tau(  31) = (   0.5000000   1.1545763   1.2455800  )
        32           Cu  tau(  32) = (   0.7500019   0.9237849   1.2455149  )
        33           Cu  tau(  33) = (   0.0000000   1.6166029   1.2456910  )
        34           Cu  tau(  34) = (   0.2500161   1.3855492   1.2457134  )
        35           Cu  tau(  35) = (   0.5000000   1.6166555   1.2458019  )
        36           Cu  tau(  36) = (   0.7499839   1.3855492   1.2457134  )
        37           Cu  tau(  37) = (   0.0000000   2.0784993   1.2455162  )
        38           Cu  tau(  38) = (   0.2500161   1.8476387   1.2456210  )
        39           Cu  tau(  39) = (   0.5000000   2.0784755   1.2455152  )
        40           Cu  tau(  40) = (   0.7499839   1.8476387   1.2456210  )
        41           Cu  tau(  41) = (   0.0000000  -0.0003182   1.4954305  )
        42           Cu  tau(  42) = (   0.2500224   0.2307186   1.4951678  )
        43           Cu  tau(  43) = (   0.5000000  -0.0002059   1.4952775  )
        44           Cu  tau(  44) = (   0.7499776   0.2307186   1.4951678  )
        45           Cu  tau(  45) = (   0.0000000   0.4620254   1.4950571  )
        46           Cu  tau(  46) = (   0.2500339   0.6931225   1.4952807  )
        47           Cu  tau(  47) = (   0.5000000   0.4619896   1.4952144  )
        48           Cu  tau(  48) = (   0.7499661   0.6931225   1.4952807  )
        49           Cu  tau(  49) = (   0.0000000   0.9238798   1.4954544  )
        50           Cu  tau(  50) = (   0.2499708   1.1544329   1.4953374  )
        51           Cu  tau(  51) = (   0.5000000   0.9237633   1.4954072  )
        52           Cu  tau(  52) = (   0.7500292   1.1544329   1.4953374  )
        53           Cu  tau(  53) = (   0.0000000   1.3854453   1.4952066  )
        54           Cu  tau(  54) = (   0.2499861   1.6167017   1.4951298  )
        55           Cu  tau(  55) = (   0.5000000   1.3853760   1.4951346  )
        56           Cu  tau(  56) = (   0.7500139   1.6167017   1.4951298  )
        57           Cu  tau(  57) = (   0.0000000   1.8477718   1.4952308  )
        58           Cu  tau(  58) = (   0.2499930   2.0785254   1.4954090  )
        59           Cu  tau(  59) = (   0.5000000   1.8478762   1.4953503  )
        60           Cu  tau(  60) = (   0.7500070   2.0785254   1.4954090  )
        61           Cu  tau(  61) = (   0.0000000   0.2310733   1.7440777  )
        62           Cu  tau(  62) = (   0.2501089  -0.0001294   1.7450479  )
        63           Cu  tau(  63) = (   0.5000000   0.2306045   1.7445985  )
        64           Cu  tau(  64) = (   0.7498911  -0.0001294   1.7450479  )
        65           Cu  tau(  65) = (   0.0000000   0.6927994   1.7446059  )
        66           Cu  tau(  66) = (   0.2502918   0.4619532   1.7441197  )
        67           Cu  tau(  67) = (   0.5000000   0.6931011   1.7451318  )
        68           Cu  tau(  68) = (   0.7497082   0.4619532   1.7441197  )
        69           Cu  tau(  69) = (   0.0000000   1.1545789   1.7453503  )
        70           Cu  tau(  70) = (   0.2500220   0.9237908   1.7453835  )
        71           Cu  tau(  71) = (   0.5000000   1.1545999   1.7449118  )
        72           Cu  tau(  72) = (   0.7499780   0.9237908   1.7453835  )
        73           Cu  tau(  73) = (   0.0000000   1.6167791   1.7444075  )
        74           Cu  tau(  74) = (   0.2497438   1.3855115   1.7442733  )
        75           Cu  tau(  75) = (   0.5000000   1.6164906   1.7439233  )
        76           Cu  tau(  76) = (   0.7502562   1.3855115   1.7442733  )
        77           Cu  tau(  77) = (   0.0000000   2.0782721   1.7455014  )
        78           Cu  tau(  78) = (   0.2498426   1.8476765   1.7447807  )
        79           Cu  tau(  79) = (   0.5000000   2.0787016   1.7454002  )
        80           Cu  tau(  80) = (   0.7501574   1.8476765   1.7447807  )
        81           Cu  tau(  81) = (   0.0000000   0.0010732   1.9906710  )
        82           Cu  tau(  82) = (   0.2503054   0.2314650   1.9904877  )
        83           Cu  tau(  83) = (   0.5000000   0.0001335   1.9924670  )
        84           Cu  tau(  84) = (   0.7496946   0.2314650   1.9904877  )
        85           Cu  tau(  85) = (   0.0000000   0.4618379   1.9901778  )
        86           Cu  tau(  86) = (   0.2508441   0.6921348   1.9910282  )
        87           Cu  tau(  87) = (   0.5000000   0.4613052   1.9913358  )
        88           Cu  tau(  88) = (   0.7491559   0.6921348   1.9910282  )
        89           Cu  tau(  89) = (   0.0000000   0.9224699   1.9915918  )
        90           Cu  tau(  90) = (   0.2491275   1.1552920   1.9912642  )
        91           Cu  tau(  91) = (   0.5000000   0.9247757   1.9920574  )
        92           Cu  tau(  92) = (   0.7508725   1.1552920   1.9912642  )
        93           Cu  tau(  93) = (   0.0000000   1.3865904   1.9916296  )
        94           Cu  tau(  94) = (   0.2499532   1.6162906   1.9903050  )
        95           Cu  tau(  95) = (   0.5000000   1.3858063   1.9901800  )
        96           Cu  tau(  96) = (   0.7500468   1.6162906   1.9903050  )
        97           Cu  tau(  97) = (   0.0000000   1.8468318   1.9923212  )
        98           Cu  tau(  98) = (   0.2497561   2.0783183   1.9915134  )
        99           Cu  tau(  99) = (   0.5000000   1.8467805   1.9903847  )
       100           Cu  tau( 100) = (   0.7502439   2.0783183   1.9915134  )
       101           C   tau( 101) = (   0.0499887   0.0962962   2.3888871  )
       102           C   tau( 102) = (   0.0499887   0.2886925   2.3900713  )
       103           C   tau( 103) = (   0.2166216   0.0000435   2.3878440  )
       104           C   tau( 104) = (   0.2164793   0.3848966   2.3886743  )
       105           C   tau( 105) = (   0.3831122   0.0962174   2.3860158  )
       106           C   tau( 106) = (   0.3831162   0.2886629   2.3856823  )
       107           C   tau( 107) = (   0.5499891  -0.0000818   2.3845687  )
       108           C   tau( 108) = (   0.5499891   0.3849277   2.3842391  )
       109           C   tau( 109) = (   0.7168646   0.0962174   2.3860158  )
       110           C   tau( 110) = (   0.7168605   0.2886629   2.3856823  )
       111           C   tau( 111) = (   0.8833566   0.0000435   2.3878440  )
       112           C   tau( 112) = (   0.8834989   0.3848966   2.3886743  )
       113           C   tau( 113) = (   0.0499887   0.6735163   2.3892509  )
       114           C   tau( 114) = (   0.0499887   0.8659398   2.3870960  )
       115           C   tau( 115) = (   0.2164644   0.5773226   2.3882842  )
       116           C   tau( 116) = (   0.2167314   0.9622141   2.3870264  )
       117           C   tau( 117) = (   0.3831976   0.6735984   2.3858047  )
       118           C   tau( 118) = (   0.3831921   0.8660537   2.3866148  )
       119           C   tau( 119) = (   0.5499891   0.5773685   2.3848465  )
       120           C_h tau( 120) = (   0.5499891   0.9623380   2.3860825  )
       121           C   tau( 121) = (   0.7167792   0.6735984   2.3858047  )
       122           C   tau( 122) = (   0.7167860   0.8660537   2.3866148  )
       123           C   tau( 123) = (   0.8835124   0.5773226   2.3882842  )
       124           C   tau( 124) = (   0.8832454   0.9622141   2.3870264  )
       125           C   tau( 125) = (   0.0499887   1.2508867   2.3852683  )
       126           C   tau( 126) = (   0.0499887   1.4433300   2.3840871  )
       127           C   tau( 127) = (   0.2167246   1.1546708   2.3859697  )
       128           C   tau( 128) = (   0.2168832   1.5396104   2.3857176  )
       129           C   tau( 129) = (   0.3834985   1.2509657   2.3878953  )
       130           C   tau( 130) = (   0.3834754   1.4433958   2.3886602  )
       131           C   tau( 131) = (   0.5499891   1.1547731   2.3885512  )
       132           C   tau( 132) = (   0.5499891   1.5396099   2.3901428  )
       133           C   tau( 133) = (   0.7164797   1.2509657   2.3878953  )
       134           C   tau( 134) = (   0.7165027   1.4433958   2.3886602  )
       135           C   tau( 135) = (   0.8832522   1.1546708   2.3859697  )
       136           C   tau( 136) = (   0.8830950   1.5396104   2.3857176  )
       137           C   tau( 137) = (   0.0499887   1.8283510   2.3842019  )
       138           C   tau( 138) = (   0.0499887   2.0207949   2.3863399  )
       139           C   tau( 139) = (   0.2168845   1.7320513   2.3858703  )
       140           C   tau( 140) = (   0.2166067   2.1169980   2.3865340  )
       141           C   tau( 141) = (   0.3834036   1.8282368   2.3882160  )
       142           C   tau( 142) = (   0.3834239   2.0206763   2.3869561  )
       143           C   tau( 143) = (   0.5499891   1.7319961   2.3895398  )
       144           C   tau( 144) = (   0.5499891   2.1168754   2.3870198  )
       145           C   tau( 145) = (   0.7165732   1.8282368   2.3882160  )
       146           C   tau( 146) = (   0.7165529   2.0206763   2.3869561  )
       147           C   tau( 147) = (   0.8830923   1.7320513   2.3858703  )
       148           C   tau( 148) = (   0.8833701   2.1169980   2.3865340  )

     number of k points=     6  gaussian smearing, width (Ry)=  0.1000
                       cart. coord. in units 2pi/alat
        k(    1) = (   0.0000000   0.0000000   0.0000000), wk =   0.2500000
        k(    2) = (   0.0000000  -0.2165064   0.0000000), wk =   0.2500000
        k(    3) = (   0.2500000   0.0000000   0.0000000), wk =   0.5000000
        k(    4) = (   0.2500000  -0.2165064   0.0000000), wk =   0.5000000
        k(    5) = (  -0.5000000   0.0000000   0.0000000), wk =   0.2500000
        k(    6) = (  -0.5000000  -0.2165064   0.0000000), wk =   0.2500000

     Dense  grid:  2050409 G-vectors     FFT dimensions: (  80, 192, 270)

     Largest allocated arrays     est. size (Mb)     dimensions
        Kohn-Sham Wavefunctions        54.44 Mb     (    4604,  775)
        NL pseudopotentials           129.82 Mb     (    4604, 1848)
        Each V/rho on FFT grid          1.17 Mb     (   76800)
        Each G-vector array             0.28 Mb     (   36616)
        G-vector shells                 0.14 Mb     (   17932)
     Largest temporary arrays     est. size (Mb)     dimensions
        Auxiliary wavefunctions       217.78 Mb     (    4604, 3100)
        Each subspace H/S matrix        5.87 Mb     (     620,  620)
        Each <psi_i|beta_j> matrix     21.85 Mb     (    1848,  775)
        Arrays for rho mixing           9.38 Mb     (   76800,    8)

     Initial potential from superposition of free atoms
     Check: negative starting charge=   -0.001843

     starting charge 1266.81751, renormalised to 1292.00000

     negative rho (up, down):  1.879E-03 0.000E+00
     Starting wfc are 1284 randomized atomic wfcs

     total cpu time spent up to now is      106.7 secs

     Self-consistent Calculation

     iteration #  1     ecut=    80.00 Ry     beta=0.70
     Davidson diagonalization with overlap
     c_bands:  1 eigenvalues not converged
     c_bands:  1 eigenvalues not converged
     c_bands:  3 eigenvalues not converged
     c_bands:  1 eigenvalues not converged
     ethr =  1.00E-04,  avg # of iterations = 37.3

     negative rho (up, down):  2.723E+01 0.000E+00

     total cpu time spent up to now is     2054.2 secs

     total energy              =   -9475.72311507 Ry
     Harris-Foulkes estimate   =  -17310.57473737 Ry
     estimated scf accuracy    <  180105.15272634 Ry

     iteration #  2     ecut=    80.00 Ry     beta=0.70
     Davidson diagonalization with overlap
     ethr =  1.00E-02,  avg # of iterations = 12.2

     negative rho (up, down):  3.149E+01 0.000E+00

     total cpu time spent up to now is     2952.5 secs

     total energy              =  -12202.18479014 Ry
     Harris-Foulkes estimate   =  -13665.32815538 Ry
     estimated scf accuracy    <   24005.80243174 Ry

     iteration #  3     ecut=    80.00 Ry     beta=0.70
     Davidson diagonalization with overlap
     ethr =  1.00E-02,  avg # of iterations =  7.5

     negative rho (up, down):  3.201E+01 0.000E+00

     total cpu time spent up to now is     3479.2 secs

     total energy              =  -12463.68008286 Ry
     Harris-Foulkes estimate   =  -13406.31381355 Ry
     estimated scf accuracy    <    5791.70121654 Ry

     iteration #  4     ecut=    80.00 Ry     beta=0.70
     Davidson diagonalization with overlap
     ethr =  1.00E-02,  avg # of iterations =  5.8

     negative rho (up, down):  2.375E+01 0.000E+00

     total cpu time spent up to now is     3970.4 secs

     total energy              =  -12848.20472637 Ry
     Harris-Foulkes estimate   =  -13083.37497613 Ry
     estimated scf accuracy    <    1740.30396908 Ry

     iteration #  5     ecut=    80.00 Ry     beta=0.70
     Davidson diagonalization with overlap
     ethr =  1.00E-02,  avg # of iterations =  3.3

     negative rho (up, down):  1.860E+01 0.000E+00

     total cpu time spent up to now is     4231.6 secs

     total energy              =  -12845.74466661 Ry
     Harris-Foulkes estimate   =  -12959.77808575 Ry
     estimated scf accuracy    <    1281.36161041 Ry

     iteration #  6     ecut=    80.00 Ry     beta=0.70
     Davidson diagonalization with overlap
     ethr =  1.00E-02,  avg # of iterations =  3.0

     negative rho (up, down):  1.292E+01 0.000E+00

     total cpu time spent up to now is     4437.0 secs

     total energy              =  -12833.82844863 Ry
     Harris-Foulkes estimate   =  -12907.67840495 Ry
     estimated scf accuracy    <     569.80519278 Ry

     iteration #  7     ecut=    80.00 Ry     beta=0.70
     Davidson diagonalization with overlap
     ethr =  1.00E-02,  avg # of iterations =  2.0

     negative rho (up, down):  9.340E+00 0.000E+00

     total cpu time spent up to now is     4616.4 secs

     total energy              =  -12809.78673104 Ry
     Harris-Foulkes estimate   =  -12852.02687328 Ry
     estimated scf accuracy    <     448.58115505 Ry

     iteration #  8     ecut=    80.00 Ry     beta=0.70
     Davidson diagonalization with overlap
     ethr =  1.00E-02,  avg # of iterations =  2.0

     negative rho (up, down):  7.281E+00 0.000E+00

     total cpu time spent up to now is     4791.4 secs

     total energy              =  -12788.28473400 Ry
     Harris-Foulkes estimate   =  -12824.46150798 Ry
     estimated scf accuracy    <     486.72080150 Ry

     iteration #  9     ecut=    80.00 Ry     beta=0.70
     Davidson diagonalization with overlap
     ethr =  1.00E-02,  avg # of iterations =  1.8

     negative rho (up, down):  5.659E+00 0.000E+00

     total cpu time spent up to now is     4964.0 secs

     total energy              =  -12782.04149677 Ry
     Harris-Foulkes estimate   =  -12800.40254645 Ry
     estimated scf accuracy    <     191.60707705 Ry

     iteration # 10     ecut=    80.00 Ry     beta=0.70
     Davidson diagonalization with overlap
     ethr =  1.00E-02,  avg # of iterations =  1.3

     negative rho (up, down):  1.178E+00 0.000E+00

     total cpu time spent up to now is     5130.7 secs

     total energy              =  -12735.53045324 Ry
     Harris-Foulkes estimate   =  -12783.61213340 Ry
     estimated scf accuracy    <     151.69265696 Ry

     iteration # 11     ecut=    80.00 Ry     beta=0.70
     Davidson diagonalization with overlap
     ethr =  1.00E-02,  avg # of iterations =  2.8

     negative rho (up, down):  9.142E-01 0.000E+00

     total cpu time spent up to now is     5316.2 secs

     total energy              =  -12727.81798640 Ry
     Harris-Foulkes estimate   =  -12745.31920463 Ry
     estimated scf accuracy    <     372.56846941 Ry

     iteration # 12     ecut=    80.00 Ry     beta=0.70
     Davidson diagonalization with overlap
     ethr =  1.00E-02,  avg # of iterations =  1.3

     negative rho (up, down):  4.709E-01 0.000E+00

     total cpu time spent up to now is     5483.1 secs

     total energy              =  -12725.61150596 Ry
     Harris-Foulkes estimate   =  -12739.27648454 Ry
     estimated scf accuracy    <     253.55992852 Ry

     iteration # 13     ecut=    80.00 Ry     beta=0.70
     Davidson diagonalization with overlap
     ethr =  1.00E-02,  avg # of iterations =  1.8

     negative rho (up, down):  2.053E+00 0.000E+00

     total cpu time spent up to now is     5655.3 secs

     total energy              =  -12718.27906688 Ry
     Harris-Foulkes estimate   =  -12735.49202976 Ry
     estimated scf accuracy    <     138.07610150 Ry

     iteration # 14     ecut=    80.00 Ry     beta=0.70
     Davidson diagonalization with overlap
     ethr =  1.00E-02,  avg # of iterations =  2.0

     negative rho (up, down):  4.669E+00 0.000E+00

     total cpu time spent up to now is     5829.3 secs

     total energy              =  -12717.46138686 Ry
     Harris-Foulkes estimate   =  -12726.41678984 Ry
     estimated scf accuracy    <      65.94705141 Ry

     iteration # 15     ecut=    80.00 Ry     beta=0.70
     Davidson diagonalization with overlap
     ethr =  5.10E-03,  avg # of iterations =  2.2

     negative rho (up, down):  4.427E+00 0.000E+00

     total cpu time spent up to now is     6005.8 secs

     total energy              =  -12716.88123741 Ry
     Harris-Foulkes estimate   =  -12721.77686238 Ry
     estimated scf accuracy    <      42.20700502 Ry

     iteration # 16     ecut=    80.00 Ry     beta=0.70
     Davidson diagonalization with overlap
     ethr =  3.27E-03,  avg # of iterations =  2.0

     negative rho (up, down):  4.759E+00 0.000E+00

     total cpu time spent up to now is     6180.8 secs

     total energy              =  -12715.86896930 Ry
     Harris-Foulkes estimate   =  -12719.16915370 Ry
     estimated scf accuracy    <      26.23668716 Ry

     iteration # 17     ecut=    80.00 Ry     beta=0.70
     Davidson diagonalization with overlap
     ethr =  2.03E-03,  avg # of iterations =  3.5

     negative rho (up, down):  5.736E+00 0.000E+00

     total cpu time spent up to now is     6371.9 secs

     total energy              =  -12714.74206366 Ry
     Harris-Foulkes estimate   =  -12716.56205382 Ry
     estimated scf accuracy    <      17.06686939 Ry

     iteration # 18     ecut=    80.00 Ry     beta=0.70
     Davidson diagonalization with overlap
     ethr =  1.32E-03,  avg # of iterations =  6.2

     negative rho (up, down):  4.662E+00 0.000E+00

     total cpu time spent up to now is     6595.2 secs

     total energy              =  -12713.11330702 Ry
     Harris-Foulkes estimate   =  -12715.30732029 Ry
     estimated scf accuracy    <      12.28824690 Ry

     iteration # 19     ecut=    80.00 Ry     beta=0.70
     Davidson diagonalization with overlap
     ethr =  9.51E-04,  avg # of iterations =  5.5

     negative rho (up, down):  3.242E+00 0.000E+00

     total cpu time spent up to now is     6810.4 secs

     total energy              =  -12712.09871904 Ry
     Harris-Foulkes estimate   =  -12713.49234368 Ry
     estimated scf accuracy    <       7.81826716 Ry

     iteration # 20     ecut=    80.00 Ry     beta=0.70
     Davidson diagonalization with overlap
     ethr =  6.05E-04,  avg # of iterations =  3.5

     negative rho (up, down):  2.310E+00 0.000E+00

     total cpu time spent up to now is     7001.8 secs

     total energy              =  -12711.72440332 Ry
     Harris-Foulkes estimate   =  -12712.31712387 Ry
     estimated scf accuracy    <      11.97408383 Ry

     iteration # 21     ecut=    80.00 Ry     beta=0.70
     Davidson diagonalization with overlap
     ethr =  6.05E-04,  avg # of iterations =  2.0

     negative rho (up, down):  2.699E+00 0.000E+00

     total cpu time spent up to now is     7177.1 secs

     total energy              =  -12711.96258774 Ry
     Harris-Foulkes estimate   =  -12711.87606438 Ry
     estimated scf accuracy    <      10.30730266 Ry

     iteration # 22     ecut=    80.00 Ry     beta=0.70
     Davidson diagonalization with overlap
     ethr =  6.05E-04,  avg # of iterations =  1.0

     negative rho (up, down):  1.266E+00 0.000E+00

     total cpu time spent up to now is     7340.4 secs

     total energy              =  -12711.20842493 Ry
     Harris-Foulkes estimate   =  -12712.15946380 Ry
     estimated scf accuracy    <       7.85034753 Ry

     iteration # 23     ecut=    80.00 Ry     beta=0.70
     Davidson diagonalization with overlap
     ethr =  6.05E-04,  avg # of iterations =  5.0

     negative rho (up, down):  8.303E-01 0.000E+00

     total cpu time spent up to now is     7548.2 secs

     total energy              =  -12710.50431811 Ry
     Harris-Foulkes estimate   =  -12711.35162225 Ry
     estimated scf accuracy    <      10.91880088 Ry

     iteration # 24     ecut=    80.00 Ry     beta=0.70
     Davidson diagonalization with overlap
     ethr =  6.05E-04,  avg # of iterations =  1.0

     negative rho (up, down):  3.009E-02 0.000E+00

     total cpu time spent up to now is     7711.9 secs

     total energy              =  -12708.75679936 Ry
     Harris-Foulkes estimate   =  -12710.76910936 Ry
     estimated scf accuracy    <      14.30343910 Ry

     iteration # 25     ecut=    80.00 Ry     beta=0.70
     Davidson diagonalization with overlap
     ethr =  6.05E-04,  avg # of iterations =  1.0

     negative rho (up, down):  2.121E-07 0.000E+00

     total cpu time spent up to now is     7873.8 secs

     total energy              =  -12708.94076912 Ry
     Harris-Foulkes estimate   =  -12709.03663857 Ry
     estimated scf accuracy    <       7.59424934 Ry

     iteration # 26     ecut=    80.00 Ry     beta=0.70
     Davidson diagonalization with overlap
     ethr =  5.88E-04,  avg # of iterations =  5.7

     negative rho (up, down):  2.679E-03 0.000E+00

     total cpu time spent up to now is     8089.5 secs

     total energy              =  -12707.60491596 Ry
     Harris-Foulkes estimate   =  -12709.31469680 Ry
     estimated scf accuracy    <       5.24600913 Ry

     iteration # 27     ecut=    80.00 Ry     beta=0.70
     Davidson diagonalization with overlap
     ethr =  4.06E-04,  avg # of iterations =  6.2

     negative rho (up, down):  5.117E-01 0.000E+00

     total cpu time spent up to now is     8312.8 secs

     total energy              =  -12707.16495394 Ry
     Harris-Foulkes estimate   =  -12707.89611484 Ry
     estimated scf accuracy    <       3.77370539 Ry

     iteration # 28     ecut=    80.00 Ry     beta=0.70
     Davidson diagonalization with overlap
     ethr =  2.92E-04,  avg # of iterations = 10.0

     negative rho (up, down):  6.769E-01 0.000E+00

     total cpu time spent up to now is     8588.9 secs

     total energy              =  -12707.18425769 Ry
     Harris-Foulkes estimate   =  -12707.36342060 Ry
     estimated scf accuracy    <       1.14074614 Ry

     iteration # 29     ecut=    80.00 Ry     beta=0.70
     Davidson diagonalization with overlap
     ethr =  8.83E-05,  avg # of iterations =  8.8

     negative rho (up, down):  6.702E-01 0.000E+00

     total cpu time spent up to now is     8865.7 secs

     total energy              =  -12707.18202466 Ry
     Harris-Foulkes estimate   =  -12707.23674679 Ry
     estimated scf accuracy    <       0.42760064 Ry

     iteration # 30     ecut=    80.00 Ry     beta=0.70
     Davidson diagonalization with overlap
     ethr =  3.31E-05,  avg # of iterations =  8.7

     negative rho (up, down):  6.129E-01 0.000E+00

     total cpu time spent up to now is     9124.6 secs

     total energy              =  -12707.16822129 Ry
     Harris-Foulkes estimate   =  -12707.20767139 Ry
     estimated scf accuracy    <       0.21358619 Ry

     iteration # 31     ecut=    80.00 Ry     beta=0.70
     Davidson diagonalization with overlap
     ethr =  1.65E-05,  avg # of iterations =  9.2

     negative rho (up, down):  4.650E-01 0.000E+00

     total cpu time spent up to now is     9399.1 secs

     total energy              =  -12707.15441802 Ry
     Harris-Foulkes estimate   =  -12707.18618304 Ry
     estimated scf accuracy    <       0.14737300 Ry

     iteration # 32     ecut=    80.00 Ry     beta=0.70
     Davidson diagonalization with overlap
     c_bands:  1 eigenvalues not converged
     ethr =  1.14E-05,  avg # of iterations =  8.2

     negative rho (up, down):  3.653E-01 0.000E+00

     total cpu time spent up to now is     9655.4 secs

     total energy              =  -12707.15131767 Ry
     Harris-Foulkes estimate   =  -12707.16340538 Ry
     estimated scf accuracy    <       0.09841676 Ry

     iteration # 33     ecut=    80.00 Ry     beta=0.70
     Davidson diagonalization with overlap
     c_bands:  1 eigenvalues not converged
     ethr =  7.62E-06,  avg # of iterations = 11.3

     negative rho (up, down):  3.195E-01 0.000E+00

     total cpu time spent up to now is     9948.3 secs

     total energy              =  -12707.15055584 Ry
     Harris-Foulkes estimate   =  -12707.15522250 Ry
     estimated scf accuracy    <       0.04625988 Ry

     iteration # 34     ecut=    80.00 Ry     beta=0.70
     Davidson diagonalization with overlap
     ethr =  3.58E-06,  avg # of iterations =  9.3

     negative rho (up, down):  2.084E-01 0.000E+00

     total cpu time spent up to now is    10214.8 secs

     total energy              =  -12707.14855861 Ry
     Harris-Foulkes estimate   =  -12707.15237738 Ry
     estimated scf accuracy    <       0.01542286 Ry

     iteration # 35     ecut=    80.00 Ry     beta=0.70
     Davidson diagonalization with overlap
     c_bands:  3 eigenvalues not converged
     ethr =  1.19E-06,  avg # of iterations = 12.5

     negative rho (up, down):  1.596E-01 0.000E+00

     total cpu time spent up to now is    10536.9 secs

     total energy              =  -12707.14716732 Ry
     Harris-Foulkes estimate   =  -12707.14954689 Ry
     estimated scf accuracy    <       0.00867361 Ry

     iteration # 36     ecut=    80.00 Ry     beta=0.70
     Davidson diagonalization with overlap
     c_bands:  1 eigenvalues not converged
     ethr =  6.71E-07,  avg # of iterations = 11.5

     negative rho (up, down):  8.916E-02 0.000E+00

     total cpu time spent up to now is    10835.3 secs

     total energy              =  -12707.14465856 Ry
     Harris-Foulkes estimate   =  -12707.14785523 Ry
     estimated scf accuracy    <       0.00342167 Ry

     iteration # 37     ecut=    80.00 Ry     beta=0.70
     Davidson diagonalization with overlap
     c_bands:  1 eigenvalues not converged
     c_bands:  1 eigenvalues not converged
     ethr =  2.65E-07,  avg # of iterations = 12.0

     negative rho (up, down):  4.897E-02 0.000E+00

     total cpu time spent up to now is    11150.9 secs

     total energy              =  -12707.14383154 Ry
     Harris-Foulkes estimate   =  -12707.14507360 Ry
     estimated scf accuracy    <       0.00271859 Ry

     iteration # 38     ecut=    80.00 Ry     beta=0.70
     Davidson diagonalization with overlap
     c_bands:  2 eigenvalues not converged
     c_bands:  1 eigenvalues not converged
     ethr =  2.10E-07,  avg # of iterations = 12.0

     negative rho (up, down):  1.999E-02 0.000E+00

     total cpu time spent up to now is    11460.7 secs

     total energy              =  -12707.14331992 Ry
     Harris-Foulkes estimate   =  -12707.14409489 Ry
     estimated scf accuracy    <       0.00074668 Ry

     iteration # 39     ecut=    80.00 Ry     beta=0.70
     Davidson diagonalization with overlap
     c_bands:  1 eigenvalues not converged
     c_bands:  1 eigenvalues not converged
     ethr =  5.78E-08,  avg # of iterations = 13.0

     negative rho (up, down):  1.073E-02 0.000E+00

     total cpu time spent up to now is    11779.5 secs

     total energy              =  -12707.14313314 Ry
     Harris-Foulkes estimate   =  -12707.14336405 Ry
     estimated scf accuracy    <       0.00029394 Ry

     iteration # 40     ecut=    80.00 Ry     beta=0.70
     Davidson diagonalization with overlap
     c_bands:  1 eigenvalues not converged
     c_bands:  1 eigenvalues not converged
     ethr =  2.28E-08,  avg # of iterations = 14.3

     negative rho (up, down):  4.939E-03 0.000E+00

     total cpu time spent up to now is    12104.4 secs

     total energy              =  -12707.14305213 Ry
     Harris-Foulkes estimate   =  -12707.14314829 Ry
     estimated scf accuracy    <       0.00008461 Ry

     iteration # 41     ecut=    80.00 Ry     beta=0.70
     Davidson diagonalization with overlap
     c_bands:  1 eigenvalues not converged
     c_bands:  1 eigenvalues not converged
     ethr =  6.55E-09,  avg # of iterations = 11.3

     negative rho (up, down):  2.792E-03 0.000E+00

     total cpu time spent up to now is    12406.9 secs

     total energy              =  -12707.14302744 Ry
     Harris-Foulkes estimate   =  -12707.14305735 Ry
     estimated scf accuracy    <       0.00002588 Ry

     iteration # 42     ecut=    80.00 Ry     beta=0.70
     Davidson diagonalization with overlap
     ethr =  2.00E-09,  avg # of iterations =  4.3

     negative rho (up, down):  2.332E-03 0.000E+00

     total cpu time spent up to now is    12618.9 secs

     total energy              =  -12707.14302742 Ry
     Harris-Foulkes estimate   =  -12707.14302961 Ry
     estimated scf accuracy    <       0.00000938 Ry

     iteration # 43     ecut=    80.00 Ry     beta=0.70
     Davidson diagonalization with overlap
     ethr =  7.26E-10,  avg # of iterations =  2.3

     negative rho (up, down):  2.181E-03 0.000E+00

     total cpu time spent up to now is    12801.4 secs

     total energy              =  -12707.14302811 Ry
     Harris-Foulkes estimate   =  -12707.14302809 Ry
     estimated scf accuracy    <       0.00000239 Ry

     iteration # 44     ecut=    80.00 Ry     beta=0.70
     Davidson diagonalization with overlap
     ethr =  1.85E-10,  avg # of iterations =  3.0

     negative rho (up, down):  2.137E-03 0.000E+00

     total cpu time spent up to now is    12999.6 secs

     total energy              =  -12707.14302844 Ry
     Harris-Foulkes estimate   =  -12707.14302839 Ry
     estimated scf accuracy    <       0.00000055 Ry

     iteration # 45     ecut=    80.00 Ry     beta=0.70
     Davidson diagonalization with overlap
     ethr =  4.22E-11,  avg # of iterations =  3.0

     negative rho (up, down):  2.104E-03 0.000E+00

     total cpu time spent up to now is    13201.4 secs

     total energy              =  -12707.14302850 Ry
     Harris-Foulkes estimate   =  -12707.14302849 Ry
     estimated scf accuracy    <       0.00000012 Ry

     iteration # 46     ecut=    80.00 Ry     beta=0.70
     Davidson diagonalization with overlap
     ethr =  9.13E-12,  avg # of iterations =  2.8

     negative rho (up, down):  2.120E-03 0.000E+00

     total cpu time spent up to now is    13403.6 secs

     total energy              =  -12707.14302850 Ry
     Harris-Foulkes estimate   =  -12707.14302852 Ry
     estimated scf accuracy    <       0.00000003 Ry

     iteration # 47     ecut=    80.00 Ry     beta=0.70
     Davidson diagonalization with overlap
     ethr =  2.14E-12,  avg # of iterations =  3.0

     negative rho (up, down):  2.115E-03 0.000E+00

     total cpu time spent up to now is    13607.4 secs

     End of self-consistent calculation

          k = 0.0000 0.0000 0.0000 (256287 PWs)   bands (ev):

   -17.2863 -16.2344 -16.0878 -15.4315 -15.0440 -14.7914 -14.6914 -14.2529
   -14.1990 -14.1393 -14.1244 -13.4680 -13.3240 -13.1545 -13.1228 -13.0874
   -13.0796 -11.6699 -11.5336 -11.4873 -11.3887 -11.2060 -10.3536  -9.7701
    -9.7611  -9.6272  -9.5235  -8.9879  -8.7998  -8.6755  -8.6009  -8.0479
    -7.9031  -7.7624  -7.6418  -7.5804  -7.5748  -7.5355  -7.5228  -6.3596
    -6.3506  -6.1266  -6.0215  -6.0192  -5.9503  -5.8897  -5.8598  -5.8442
    -5.4986  -5.4851  -5.3060  -4.8934  -4.8396  -4.8000  -4.6363  -4.6216
    -4.5834  -4.4253  -4.2578  -4.1473  -3.9895  -3.9879  -3.9701  -3.9474
    -3.6182  -3.5510  -3.5310  -3.5259  -3.4212  -3.4181  -3.4075  -3.4001
    -3.2769  -3.1868  -3.1223  -3.0614  -3.0158  -3.0080  -3.0075  -3.0062
    -2.9916  -2.8587  -2.8352  -2.7995  -2.7814  -2.7441  -2.7405  -2.7396
    -2.7182  -2.7141  -2.5337  -2.4331  -2.3776  -2.3765  -2.3390  -2.3362
    -2.1947  -2.1921  -2.1816  -2.1772  -2.1521  -2.1521  -2.1519  -2.1517
    -2.1129  -2.0784  -2.0777  -2.0357  -2.0213  -2.0212  -2.0210  -2.0206
    -1.9609  -1.8418  -1.7771  -1.7446  -1.7388  -1.7379  -1.7377  -1.7028
    -1.6930  -1.6718  -1.6585  -1.6568  -1.6119  -1.6019  -1.5899  -1.5710
    -1.5647  -1.5632  -1.5609  -1.5510  -1.5397  -1.5352  -1.5348  -1.5156
    -1.5141  -1.4584  -1.4415  -1.4299  -1.4157  -1.3840  -1.3801  -1.3771
    -1.3716  -1.3530  -1.2990  -1.2911  -1.2636  -1.2622  -1.2508  -1.2117
    -1.2114  -1.1918  -1.1898  -1.1747  -1.1670  -1.1641  -1.1268  -1.1203
    -1.1092  -1.1073  -1.0495  -1.0469  -1.0357  -1.0295  -1.0271  -1.0248
    -1.0247  -1.0221  -1.0207  -1.0158  -1.0156  -0.9983  -0.9954  -0.9813
    -0.9518  -0.9408  -0.9380  -0.9348  -0.9234  -0.9190  -0.9180  -0.9173
    -0.8954  -0.8602  -0.8578  -0.8575  -0.8564  -0.8556  -0.8546  -0.8539
    -0.8528  -0.8526  -0.8504  -0.8483  -0.8482  -0.8480  -0.8458  -0.8427
    -0.8417  -0.8333  -0.8298  -0.8293  -0.8221  -0.7857  -0.6898  -0.6897
    -0.6858  -0.6834  -0.6826  -0.6604  -0.6586  -0.6416  -0.6414  -0.6201
    -0.6197  -0.6059  -0.6044  -0.6029  -0.6025  -0.5878  -0.5644  -0.5639
    -0.5619  -0.5613  -0.5539  -0.5530  -0.5423  -0.5421  -0.4922  -0.4921
    -0.4383  -0.4379  -0.4277  -0.4260  -0.4259  -0.4245  -0.4107  -0.4105
    -0.4049  -0.4048  -0.4046  -0.4042  -0.3999  -0.3998  -0.3859  -0.3851
    -0.3851  -0.3773  -0.3751  -0.3747  -0.3511  -0.3505  -0.2994  -0.2986
    -0.2967  -0.2911  -0.2910  -0.2645  -0.2645  -0.2644  -0.2644  -0.2493
    -0.2475  -0.2468  -0.2425  -0.2424  -0.2245  -0.2211  -0.2197  -0.2194
    -0.2150  -0.2146  -0.2145  -0.2142  -0.2117  -0.2088  -0.1926  -0.1901
    -0.1894  -0.1882  -0.1875  -0.1684  -0.1210  -0.1204  -0.1183  -0.1181
    -0.1155  -0.0736  -0.0721  -0.0698  -0.0685  -0.0680  -0.0625  -0.0621
    -0.0620  -0.0617  -0.0616  -0.0536  -0.0473  -0.0344  -0.0115  -0.0086
    -0.0081  -0.0078   0.0010   0.0190   0.0209   0.0211   0.0218   0.0264
     0.0302   0.0454   0.0461   0.0476   0.0480   0.0485   0.0491   0.0619
     0.0636   0.0638   0.0638   0.0692   0.0760   0.0771   0.0776   0.0988
     0.1022   0.1191   0.1351   0.1357   0.1575   0.1642   0.1648   0.1891
     0.1935   0.2330   0.2377   0.2382   0.2386   0.2397   0.2432   0.2496
     0.2696   0.2730   0.2736   0.2738   0.2745   0.2838   0.2843   0.2936
     0.3263   0.3407   0.3407   0.3484   0.3489   0.3502   0.3502   0.3774
     0.3832   0.3833   0.3840   0.3842   0.4078   0.4147   0.4152   0.4225
     0.4233   0.4361   0.4368   0.4391   0.4403   0.4772   0.4792   0.4929
     0.4943   0.4966   0.4968   0.4971   0.5092   0.5225   0.5271   0.5304
     0.5330   0.5345   0.5355   0.5356   0.5373   0.5396   0.5466   0.5471
     0.5476   0.5537   0.5543   0.5556   0.5634   0.5641   0.5822   0.5957
     0.6056   0.6057   0.6161   0.6164   0.6486   0.6494   0.6499   0.6506
     0.6526   0.6527   0.6533   0.6540   0.6640   0.6652   0.6739   0.6785
     0.6791   0.6793   0.6802   0.6873   0.6876   0.6974   0.6978   0.7136
     0.7200   0.7204   0.7208   0.7278   0.7309   0.7323   0.7426   0.7432
     0.7462   0.7485   0.7485   0.7530   0.7553   0.7563   0.7593   0.7620
     0.7685   0.7750   0.8057   0.8060   0.8160   0.8174   0.8231   0.8242
     0.8245   0.8251   0.8556   0.8561   0.8697   0.8708   0.8761   0.8762
     0.8906   0.8910   0.9001   0.9002   0.9008   0.9021   0.9090   0.9221
     0.9369   0.9378   0.9393   0.9418   0.9424   0.9436   0.9604   0.9645
     0.9776   0.9832   0.9858   0.9872   0.9970   0.9993   1.0064   1.0105
     1.0112   1.0128   1.0135   1.0139   1.0192   1.0237   1.0265   1.0286
     1.0288   1.0291   1.0306   1.0437   1.0439   1.0623   1.0628   1.0643
     1.0650   1.0690   1.0736   1.1024   1.1054   1.1057   1.1074   1.1082
     1.1098   1.1115   1.1122   1.1187   1.1195   1.1196   1.1198   1.1199
     1.1209   1.1356   1.1359   1.1611   1.1662   1.1834   1.1839   1.1968
     1.2016   1.2024   1.2034   1.2050   1.2053   1.2082   1.2131   1.2208
     1.2315   1.2333   1.2382   1.2397   1.2401   1.2408   1.2449   1.2461
     1.2466   1.2549   1.2738   1.2746   1.2755   1.2758   1.2773   1.2777
     1.2782   1.2783   1.2942   1.2948   1.2960   1.3020   1.3102   1.3105
     1.3114   1.3116   1.3119   1.3215   1.3236   1.3245   1.3353   1.3444
     1.3522   1.3535   1.3553   1.3559   1.3569   1.3577   1.3593   1.3714
     1.3839   1.3866   1.3881   1.3930   1.4027   1.4160   1.4162   1.4224
     1.4226   1.4227   1.4283   1.4301   1.4318   1.4341   1.4344   1.4345
     1.4348   1.4368   1.4383   1.4457   1.4462   1.4501   1.4673   1.4674
     1.4682   1.4683   1.4718   1.4794   1.4806   1.4937   1.5050   1.5094
     1.5103   1.5206   1.5567   1.5574   1.5602   1.5612   1.5790   1.5797
     1.5799   1.5877   1.5908   1.6059   1.6292   1.6321   1.6324   1.6328
     1.6335   1.6432   1.6438   1.6441   1.8999   1.9558   2.1056   2.1080
     2.1481   2.1548   2.2004   2.2051   2.2063   2.2069   2.2185   2.2236
     2.2251   2.2259   2.3988   2.4016   2.4591   2.4651   2.4667   2.4670
     2.4779   2.4807   2.6615   2.7185   2.7245   2.7247   2.7466   2.9714
     2.9866   3.0166   3.1686   3.5202   3.5226   3.8157   3.8177   3.8437
     3.8508   3.8541   3.8548   3.8913   3.9672   3.9804   3.9859   4.0061
     4.0073   4.0086   4.0094   4.0115   4.0138   4.2290   4.2488   4.2495
     4.2505   4.3559   4.3976   4.6941   4.7641   4.8414   4.8736   4.9142
     5.3045   5.3926   5.3984   5.4061   5.7055   5.7090   5.7207   5.7242
     5.9251   5.9296   6.1874   6.3450   6.3494   6.4087   6.4148   6.4692
     6.4711   6.4763   6.4827   6.5801   6.5994   6.6068   6.7167   6.7733
     6.7799   6.7939   6.8119   6.8184   7.0141   7.0476   7.0514   7.0591
     7.0700   7.0921   7.3569   7.3576   7.5092   7.5493   7.5508   7.6957
     7.6961   7.7067   7.7097   8.0033   8.0389   8.0844   8.1334   8.1938
     8.2303   8.2992   8.3055   8.3066   8.3324   8.3356   8.3466   8.4062
     8.4147   8.4232   8.4955   8.5558   8.5629   8.5698   8.6619   8.6647
     8.6680   8.6688   8.8133   8.8158   8.8283   8.8332   8.8384   8.8401
     9.1076   9.1094   9.1102   9.1160   9.1197   9.1398   9.1743   9.3194
     9.3442   9.3464   9.4233   9.4795   9.4900   9.5772   9.5784   9.6614
     9.6710   9.8055   9.8308  10.0435  10.0437  10.1189  10.1456

          k = 0.0000-0.2165 0.0000 (256176 PWs)   bands (ev):

   -17.2858 -16.3023 -15.8964 -15.6602 -15.0750 -14.6797 -14.3577 -14.3393
   -14.2663 -14.2320 -13.8276 -13.7711 -13.7204 -13.6943 -12.6072 -12.4382
   -12.3814 -12.3138 -12.1483 -12.0795 -10.6520 -10.5550 -10.5220 -10.3925
    -9.4592  -9.4390  -9.3024  -9.1170  -8.9906  -8.9564  -8.4048  -8.2865
    -8.2146  -8.1604  -7.4812  -7.3432  -7.0138  -6.9724  -6.9080  -6.8947
    -6.8525  -6.8392  -6.1905  -6.0827  -5.8913  -5.8827  -5.5189  -5.3871
    -5.2986  -5.2149  -5.1380  -4.9647  -4.9134  -4.8418  -4.8382  -4.7423
    -4.6862  -4.6313  -4.6102  -4.4707  -4.1579  -4.0482  -3.8265  -3.6972
    -3.6646  -3.5906  -3.3163  -3.3054  -3.3020  -3.3013  -3.2462  -3.2265
    -3.1423  -3.0928  -3.0678  -3.0495  -3.0401  -3.0313  -3.0066  -2.8968
    -2.8696  -2.8669  -2.8294  -2.7891  -2.7753  -2.7114  -2.6967  -2.6016
    -2.5879  -2.5878  -2.5786  -2.5784  -2.5780  -2.5770  -2.4779  -2.3686
    -2.3367  -2.3331  -2.2519  -2.2509  -2.2477  -2.2456  -2.1495  -2.1455
    -2.1449  -2.1443  -2.0854  -2.0412  -1.9868  -1.9867  -1.9613  -1.9612
    -1.8767  -1.8647  -1.8570  -1.8083  -1.7894  -1.7847  -1.7688  -1.7677
    -1.7498  -1.7496  -1.7408  -1.7408  -1.7228  -1.7225  -1.6456  -1.6454
    -1.6232  -1.5865  -1.5722  -1.5687  -1.5604  -1.4680  -1.4672  -1.4628
    -1.4623  -1.3793  -1.3766  -1.3709  -1.3706  -1.3689  -1.3169  -1.3167
    -1.2801  -1.2790  -1.2750  -1.2749  -1.2724  -1.2723  -1.2533  -1.2492
    -1.2291  -1.2289  -1.2240  -1.2230  -1.2134  -1.2120  -1.1691  -1.1543
    -1.1505  -1.1485  -1.1337  -1.1326  -1.0889  -1.0889  -1.0507  -1.0506
    -1.0475  -1.0474  -1.0045  -1.0031  -0.9841  -0.9837  -0.9830  -0.9823
    -0.9782  -0.9780  -0.9274  -0.9268  -0.9195  -0.9189  -0.9110  -0.9109
    -0.9011  -0.8987  -0.8973  -0.8969  -0.8319  -0.8282  -0.8282  -0.8196
    -0.8186  -0.8184  -0.8179  -0.8143  -0.7958  -0.7957  -0.7820  -0.7811
    -0.7548  -0.7546  -0.7518  -0.7506  -0.6549  -0.6548  -0.6543  -0.6542
    -0.6336  -0.6333  -0.6245  -0.6103  -0.6072  -0.6059  -0.6050  -0.6015
    -0.6015  -0.5756  -0.5752  -0.5660  -0.5421  -0.5415  -0.5404  -0.5394
    -0.5381  -0.5366  -0.5348  -0.5333  -0.5040  -0.5040  -0.4881  -0.4839
    -0.4839  -0.4714  -0.4483  -0.4478  -0.4476  -0.4469  -0.4448  -0.4367
    -0.4356  -0.4354  -0.4352  -0.4168  -0.4099  -0.3576  -0.3575  -0.3571
    -0.3570  -0.3265  -0.3255  -0.3037  -0.3036  -0.3021  -0.2972  -0.2968
    -0.2955  -0.2939  -0.2731  -0.2696  -0.2694  -0.2688  -0.2680  -0.2611
    -0.2520  -0.2479  -0.2472  -0.2470  -0.2460  -0.2435  -0.2433  -0.2393
    -0.2338  -0.2330  -0.2067  -0.2066  -0.2048  -0.2046  -0.1851  -0.1452
    -0.1423  -0.1408  -0.1406  -0.1342  -0.1316  -0.1314  -0.1287  -0.1281
    -0.1237  -0.1180  -0.1052  -0.1026  -0.0886  -0.0883  -0.0866  -0.0861
    -0.0775  -0.0773  -0.0752  -0.0741  -0.0738  -0.0733  -0.0456  -0.0178
    -0.0168  -0.0138  -0.0135   0.0013   0.0031   0.0051   0.0057   0.0110
     0.0111   0.0133   0.0280   0.0293   0.0297   0.0307   0.0407   0.0458
     0.0583   0.0593   0.0754   0.0757   0.0758   0.0763   0.0946   0.0947
     0.1108   0.1108   0.1216   0.1219   0.1342   0.1349   0.1354   0.1357
     0.1793   0.1805   0.1833   0.1843   0.1956   0.1964   0.2015   0.2019
     0.2287   0.2289   0.2607   0.2626   0.2647   0.2672   0.3001   0.3001
     0.3240   0.3357   0.3854   0.3859   0.3862   0.3871   0.3922   0.4120
     0.4130   0.4134   0.4138   0.4251   0.4444   0.4488   0.4528   0.4546
     0.4549   0.4549   0.4551   0.4554   0.4617   0.4664   0.4765   0.4773
     0.4788   0.4790   0.4805   0.4813   0.4831   0.4842   0.5160   0.5161
     0.5273   0.5275   0.5278   0.5282   0.5359   0.5359   0.5380   0.5557
     0.5568   0.5574   0.5575   0.5579   0.5582   0.5586   0.5587   0.5589
     0.5815   0.5816   0.5830   0.5835   0.5836   0.5844   0.5851   0.5852
     0.6014   0.6015   0.6445   0.6448   0.6566   0.6569   0.6657   0.6676
     0.6688   0.6692   0.6751   0.6752   0.6760   0.6767   0.6818   0.6822
     0.6831   0.6832   0.7231   0.7241   0.7243   0.7247   0.7385   0.7413
     0.7414   0.7424   0.7427   0.7438   0.7547   0.7584   0.7745   0.7757
     0.7787   0.7808   0.7822   0.7824   0.8337   0.8346   0.8849   0.8856
     0.8919   0.8921   0.8937   0.8943   0.9029   0.9040   0.9105   0.9106
     0.9169   0.9171   0.9222   0.9249   0.9255   0.9266   0.9375   0.9381
     0.9400   0.9412   0.9418   0.9422   0.9495   0.9553   0.9635   0.9664
     0.9664   0.9679   0.9687   0.9705   0.9707   0.9740   0.9775   0.9776
     0.9891   0.9891   0.9908   0.9914   0.9926   0.9932   1.0108   1.0112
     1.0204   1.0238   1.0265   1.0269   1.0290   1.0297   1.0385   1.0385
     1.0392   1.0394   1.0402   1.0404   1.0860   1.0882   1.1071   1.1142
     1.1271   1.1272   1.1420   1.1432   1.1518   1.1534   1.1540   1.1547
     1.1698   1.1701   1.1845   1.1860   1.1920   1.1927   1.1952   1.1959
     1.1973   1.1982   1.1986   1.1994   1.2003   1.2012   1.2027   1.2028
     1.2101   1.2101   1.2198   1.2237   1.2298   1.2306   1.2306   1.2314
     1.2396   1.2406   1.2663   1.2695   1.2696   1.2698   1.2764   1.2766
     1.2788   1.2795   1.2931   1.2950   1.2969   1.2970   1.3097   1.3104
     1.3123   1.3132   1.3145   1.3152   1.3318   1.3323   1.3325   1.3334
     1.3509   1.3515   1.3517   1.3544   1.3707   1.3723   1.3787   1.3788
     1.3794   1.3797   1.3948   1.3948   1.3950   1.3952   1.4118   1.4123
     1.4260   1.4262   1.4263   1.4283   1.4463   1.4468   1.4486   1.4490
     1.4500   1.4501   1.4507   1.4511   1.4788   1.4789   1.4868   1.4874
     1.4933   1.4963   1.4981   1.5045   1.5183   1.5194   1.5194   1.5196
     1.5285   1.5286   1.5408   1.5408   1.5823   1.5851   1.5876   1.5880
     1.6731   1.6887   1.6933   1.7124   1.7164   1.7289   1.7311   1.7333
     1.7832   1.7863   1.7919   1.7932   1.8017   1.8121   1.8132   1.8135
     1.8531   1.8532   1.8966   2.0553   2.0660   2.0951   2.4126   2.4148
     2.4188   2.4191   2.4955   2.4979   2.5597   2.5634   2.5636   2.5644
     2.5806   2.5811   2.7090   2.7105   2.7564   2.7603   2.7791   2.7800
     2.9231   2.9240   3.1695   3.1696   3.1778   3.1869   3.3941   3.4149
     3.5829   3.6698   3.6841   3.9055   3.9263   3.9555   4.0798   4.1029
     4.1059   4.1082   4.3225   4.3255   4.3264   4.3276   4.4973   4.4983
     4.6623   4.6896   4.7653   4.7705   4.9131   5.0723   5.0987   5.1021
     5.3218   5.3579   5.3582   5.3589   5.3607   5.4304   5.5263   5.6588
     5.6765   5.7171   5.7477   5.8192   6.3802   6.3889   6.4201   6.4268
     6.4391   6.4421   6.5480   6.5573   6.6632   6.6677   6.8073   6.8086
     6.9715   7.0203   7.0383   7.0415   7.0744   7.0802   7.1157   7.1202
     7.1296   7.1340   7.2284   7.3386   7.3486   7.3668   7.3793   7.4273
     7.5315   7.6040   7.6972   7.7150   7.7318   7.7543   8.1432   8.1436
     8.3357   8.3563   8.3645   8.4230   8.4274   8.4282   8.4323   8.4473
     8.4492   8.4827   8.6406   8.6497   8.7118   8.7138   8.7189   8.7197
     8.7575   8.7622   8.8572   8.9160   8.9415   9.0154   9.0223   9.0583
     9.1417   9.1545   9.2357   9.2377   9.2814   9.3154   9.3854   9.3856
     9.3864   9.3867   9.4578   9.4599   9.4800   9.4862   9.4890   9.4906
     9.6618   9.6648   9.7862   9.7874   9.7987   9.8893   9.8897

          k = 0.2500 0.0000 0.0000 (256240 PWs)   bands (ev):

   -17.2352 -16.1280 -15.9649 -15.6637 -15.1444 -15.0052 -14.9458 -14.8939
   -14.1129 -13.9545 -13.7724 -13.2472 -13.1736 -13.0916 -13.0444 -12.3505
   -12.2323 -12.1485 -12.0813 -11.2393 -11.1404 -10.7887 -10.6727 -10.3598
   -10.2270  -9.9552  -9.9052  -9.5082  -9.2552  -9.1595  -8.6807  -7.9937
    -7.7979  -7.7311  -7.5654  -7.5424  -7.4473  -7.0940  -6.9778  -6.3018
    -6.2215  -6.0443  -5.9685  -5.9150  -5.8422  -5.4541  -5.3315  -5.3120
    -5.3027  -5.1756  -4.9236  -4.7488  -4.6346  -4.5433  -4.4682  -4.4641
    -4.4619  -4.4272  -4.3720  -4.2284  -4.1396  -4.0014  -4.0002  -3.9978
    -3.9096  -3.8455  -3.8406  -3.8115  -3.7953  -3.6266  -3.6012  -3.5744
    -3.5249  -3.4856  -3.4070  -3.4042  -3.2792  -3.2352  -3.2131  -3.1976
    -3.1423  -3.0365  -2.9567  -2.8960  -2.8006  -2.7989  -2.7911  -2.7529
    -2.6553  -2.6256  -2.6234  -2.5069  -2.4015  -2.3946  -2.3482  -2.3377
    -2.1350  -2.0993  -2.0970  -2.0827  -2.0800  -2.0592  -2.0039  -1.9905
    -1.9810  -1.8978  -1.8957  -1.8416  -1.8033  -1.8018  -1.8006  -1.7941
    -1.7935  -1.7851  -1.7738  -1.7463  -1.7356  -1.7242  -1.7193  -1.7169
    -1.7130  -1.6539  -1.6472  -1.6037  -1.5905  -1.5831  -1.5812  -1.5787
    -1.5784  -1.5779  -1.5485  -1.5274  -1.5145  -1.5041  -1.5023  -1.4910
    -1.4890  -1.3728  -1.3366  -1.3291  -1.3131  -1.2791  -1.2698  -1.2576
    -1.2442  -1.2432  -1.2381  -1.2365  -1.2302  -1.2205  -1.2079  -1.1985
    -1.1919  -1.1853  -1.1838  -1.1782  -1.1591  -1.1401  -1.1359  -1.1340
    -1.1336  -1.1326  -1.1172  -1.1116  -1.1112  -1.0916  -1.0771  -1.0668
    -1.0513  -1.0498  -1.0470  -1.0468  -1.0407  -1.0211  -1.0133  -1.0127
    -1.0036  -1.0018  -0.9968  -0.9915  -0.9820  -0.9816  -0.9813  -0.9802
    -0.9763  -0.9758  -0.9648  -0.9546  -0.9528  -0.9465  -0.9458  -0.9392
    -0.9218  -0.9020  -0.9009  -0.8961  -0.8530  -0.8524  -0.8165  -0.8164
    -0.7973  -0.7958  -0.7865  -0.7710  -0.7709  -0.7577  -0.7547  -0.7526
    -0.7502  -0.7429  -0.7417  -0.7226  -0.6064  -0.6031  -0.5998  -0.5972
    -0.5686  -0.5673  -0.5668  -0.5509  -0.5501  -0.5497  -0.5482  -0.5390
    -0.5309  -0.5271  -0.5270  -0.5209  -0.5177  -0.5057  -0.4974  -0.4879
    -0.4851  -0.4850  -0.4820  -0.4813  -0.4609  -0.4609  -0.4576  -0.4020
    -0.3998  -0.3997  -0.3970  -0.3915  -0.3897  -0.3896  -0.3806  -0.3761
    -0.3568  -0.3566  -0.3440  -0.3335  -0.3333  -0.3311  -0.3286  -0.3076
    -0.2951  -0.2950  -0.2921  -0.2913  -0.2818  -0.2806  -0.2711  -0.2699
    -0.2662  -0.2594  -0.2495  -0.2387  -0.2302  -0.2203  -0.2020  -0.1992
    -0.1989  -0.1965  -0.1902  -0.1823  -0.1804  -0.1802  -0.1779  -0.1642
    -0.1523  -0.1522  -0.1413  -0.1395  -0.1375  -0.1267  -0.1127  -0.1111
    -0.1108  -0.0666  -0.0639  -0.0635  -0.0573  -0.0551  -0.0464  -0.0370
    -0.0194  -0.0176  -0.0125  -0.0120  -0.0111  -0.0070  -0.0061   0.0010
     0.0038   0.0046   0.0057   0.0073   0.0080   0.0126   0.0284   0.0329
     0.0334   0.0358   0.0397   0.0433   0.0585   0.0588   0.0707   0.0749
     0.0771   0.0928   0.1140   0.1143   0.1164   0.1166   0.1184   0.1345
     0.1388   0.1411   0.1415   0.1420   0.1424   0.1724   0.1769   0.1814
     0.1935   0.2531   0.2537   0.2547   0.2671   0.2714   0.2728   0.2748
     0.2767   0.2779   0.2824   0.2829   0.2840   0.2853   0.2876   0.2886
     0.2951   0.3049   0.3067   0.3070   0.3086   0.3207   0.3210   0.3263
     0.3286   0.3334   0.3356   0.3572   0.3587   0.3616   0.3691   0.3899
     0.3964   0.4051   0.4137   0.4246   0.4250   0.4426   0.4430   0.4439
     0.4472   0.4552   0.4602   0.4770   0.4799   0.4803   0.4851   0.4854
     0.4907   0.4914   0.4958   0.4959   0.5168   0.5221   0.5237   0.5348
     0.5392   0.5442   0.5444   0.5510   0.5514   0.5516   0.5547   0.5549
     0.5740   0.5794   0.5796   0.5911   0.5924   0.5934   0.5936   0.5964
     0.6097   0.6101   0.6131   0.6176   0.6177   0.6368   0.6374   0.6517
     0.6567   0.6610   0.6637   0.6639   0.6690   0.6712   0.6731   0.6904
     0.7009   0.7049   0.7238   0.7285   0.7404   0.7406   0.7447   0.7451
     0.7499   0.7653   0.7707   0.7737   0.7768   0.7784   0.7808   0.7865
     0.7899   0.7962   0.8027   0.8040   0.8150   0.8241   0.8244   0.8249
     0.8481   0.8518   0.8555   0.8562   0.8568   0.8790   0.8805   0.8911
     0.8927   0.8930   0.8939   0.8958   0.9012   0.9036   0.9052   0.9064
     0.9262   0.9390   0.9460   0.9507   0.9528   0.9544   0.9546   0.9681
     0.9692   0.9894   0.9908   0.9915   0.9927   0.9994   1.0007   1.0015
     1.0157   1.0166   1.0182   1.0187   1.0214   1.0221   1.0230   1.0252
     1.0270   1.0308   1.0326   1.0331   1.0398   1.0428   1.0569   1.0582
     1.0604   1.0635   1.0660   1.0688   1.0689   1.0758   1.0764   1.0899
     1.0904   1.1037   1.1071   1.1076   1.1083   1.1113   1.1217   1.1298
     1.1352   1.1360   1.1383   1.1434   1.1498   1.1510   1.1568   1.1573
     1.1574   1.1731   1.1821   1.1849   1.1894   1.1915   1.1917   1.2268
     1.2280   1.2347   1.2395   1.2427   1.2448   1.2521   1.2526   1.2529
     1.2538   1.2618   1.2662   1.2693   1.2752   1.2769   1.2788   1.2792
     1.2954   1.2962   1.3003   1.3005   1.3058   1.3102   1.3115   1.3134
     1.3146   1.3159   1.3164   1.3220   1.3234   1.3242   1.3323   1.3373
     1.3442   1.3486   1.3509   1.3515   1.3554   1.3556   1.3598   1.3641
     1.3724   1.3796   1.3801   1.3811   1.4031   1.4034   1.4117   1.4164
     1.4186   1.4224   1.4225   1.4251   1.4265   1.4266   1.4334   1.4336
     1.4344   1.4399   1.4405   1.4437   1.4602   1.4626   1.4630   1.4646
     1.4654   1.4692   1.4697   1.4825   1.4829   1.4906   1.4940   1.4967
     1.5056   1.5062   1.5080   1.5130   1.5141   1.5159   1.5456   1.5524
     1.5554   1.5689   1.5814   1.6232   1.6247   1.6276   1.6372   1.6547
     1.6607   1.7438   1.7523   1.7616   1.7623   1.7817   1.7931   1.7984
     1.8366   1.9581   2.0304   2.0628   2.0682   2.0805   2.0851   2.0864
     2.1889   2.2467   2.2533   2.5610   2.5613   2.5629   2.5656   2.9750
     2.9751   3.0085   3.1929   3.1932   3.2176   3.2177   3.2653   3.2794
     3.4556   3.4670   3.5657   3.5793   3.5963   3.6280   3.6495   3.6987
     3.7048   3.7158   3.7209   3.7901   3.8686   3.8705   3.9667   3.9689
     4.0491   4.1786   4.1845   4.1893   4.2784   4.3367   4.4105   4.5507
     4.7523   4.8191   4.8256   5.0948   5.1610   5.2173   5.2181   5.2281
     5.2581   5.3552   5.4614   5.4652   5.5051   5.5450   5.5822   5.5853
     5.6587   5.6761   5.6829   5.7297   5.7329   5.8021   5.8211   5.8266
     6.0082   6.0098   6.0275   6.0420   6.4037   6.6014   6.6919   6.6955
     6.7000   6.7477   6.7599   6.7863   6.8658   6.9251   7.0140   7.0349
     7.0492   7.0514   7.0672   7.2253   7.2424   7.2935   7.3032   7.4978
     7.5064   7.5165   7.5583   7.5676   7.6775   7.7588   7.7639   7.7925
     7.9875   8.0021   8.0271   8.0616   8.0985   8.1859   8.2044   8.2150
     8.2460   8.2631   8.3121   8.3124   8.3882   8.3975   8.4376   8.4710
     8.6438   8.6447   8.9449   8.9544   8.9833   8.9869   9.0066   9.1430
     9.1686   9.1887   9.2108   9.2217   9.2295   9.2531   9.2675   9.3373
     9.3997   9.4067   9.4418   9.4426   9.4823   9.5105   9.6405   9.6780
     9.7167   9.7191   9.8235   9.8313   9.8352   9.8459   9.9425

          k = 0.2500-0.2165 0.0000 (256316 PWs)   bands (ev):

   -17.2348 -16.1785 -15.8752 -15.5403 -15.4588 -15.1908 -14.7128 -14.5645
   -14.2564 -14.1162 -13.7230 -13.2687 -13.2535 -13.1600 -12.7669 -12.6631
   -12.1507 -12.0267 -11.5123 -11.4317 -11.2849 -11.1261 -10.9627 -10.6228
    -9.8687  -9.7866  -9.3923  -9.3578  -9.1043  -9.0507  -8.6775  -8.6248
    -8.4735  -8.4248  -7.3049  -7.0293  -6.8328  -6.6731  -6.5984  -6.5021
    -6.4506  -6.3183  -6.0844  -6.0318  -5.7143  -5.7045  -5.4293  -5.2561
    -5.1792  -5.0701  -4.9357  -4.8021  -4.6787  -4.6749  -4.5447  -4.5434
    -4.4775  -4.3494  -4.3460  -4.3166  -4.1865  -4.1616  -4.1494  -4.0549
    -3.9017  -3.7734  -3.7618  -3.7379  -3.5859  -3.5620  -3.5014  -3.4596
    -3.4584  -3.4555  -3.3629  -3.2917  -3.2547  -3.1960  -3.1425  -3.1031
    -3.0303  -2.9460  -2.9405  -2.9246  -2.9111  -2.9096  -2.8646  -2.8169
    -2.6936  -2.6559  -2.6075  -2.5057  -2.3347  -2.3139  -2.3118  -2.2689
    -2.1869  -2.1810  -2.1689  -2.1688  -2.1036  -2.0699  -2.0101  -2.0094
    -1.9778  -1.9765  -1.9723  -1.9692  -1.8938  -1.8302  -1.8224  -1.8132
    -1.8131  -1.7804  -1.7609  -1.7527  -1.7349  -1.7240  -1.7207  -1.7099
    -1.7097  -1.6933  -1.6791  -1.6778  -1.6766  -1.6764  -1.6675  -1.6673
    -1.5824  -1.5823  -1.5566  -1.4691  -1.4668  -1.3776  -1.3692  -1.3670
    -1.3615  -1.3303  -1.3299  -1.2778  -1.2775  -1.2696  -1.2629  -1.2629
    -1.2497  -1.2491  -1.2415  -1.2401  -1.2253  -1.2246  -1.2132  -1.2131
    -1.2114  -1.2041  -1.2009  -1.1990  -1.1874  -1.1874  -1.1710  -1.1340
    -1.1311  -1.1270  -1.1260  -1.1217  -1.1158  -1.1144  -1.1116  -1.0936
    -1.0834  -1.0818  -1.0400  -1.0398  -1.0358  -1.0300  -1.0267  -1.0240
    -0.9966  -0.9965  -0.9738  -0.9727  -0.9623  -0.9618  -0.9612  -0.9565
    -0.9559  -0.9521  -0.9501  -0.9341  -0.9244  -0.9242  -0.9116  -0.9053
    -0.8819  -0.8683  -0.8682  -0.8628  -0.8623  -0.8255  -0.7784  -0.7783
    -0.7741  -0.7740  -0.7704  -0.7696  -0.7233  -0.7216  -0.7165  -0.7127
    -0.7123  -0.7064  -0.7061  -0.6945  -0.6941  -0.6787  -0.6531  -0.6524
    -0.6160  -0.6146  -0.5838  -0.5682  -0.5667  -0.5666  -0.5641  -0.5613
    -0.5340  -0.5335  -0.5213  -0.5206  -0.5023  -0.5009  -0.4927  -0.4893
    -0.4889  -0.4753  -0.4608  -0.4579  -0.4519  -0.4498  -0.4431  -0.4429
    -0.4125  -0.4083  -0.4082  -0.3968  -0.3937  -0.3877  -0.3818  -0.3807
    -0.3682  -0.3678  -0.3636  -0.3633  -0.3574  -0.3560  -0.3521  -0.3521
    -0.3342  -0.3340  -0.3179  -0.3177  -0.2951  -0.2892  -0.2764  -0.2743
    -0.2623  -0.2570  -0.2403  -0.2402  -0.2356  -0.2312  -0.2183  -0.2177
    -0.2134  -0.2131  -0.1931  -0.1809  -0.1599  -0.1544  -0.1532  -0.1182
    -0.1181  -0.1092  -0.1092  -0.1056  -0.1039  -0.0877  -0.0876  -0.0848
    -0.0704  -0.0701  -0.0607  -0.0567  -0.0493  -0.0480  -0.0432  -0.0428
    -0.0413  -0.0402  -0.0166  -0.0138  -0.0131  -0.0058  -0.0043  -0.0033
    -0.0026  -0.0014  -0.0010   0.0009   0.0056   0.0072   0.0233   0.0312
     0.0313   0.0314   0.0315   0.0650   0.0653   0.0733   0.0734   0.0761
     0.0769   0.0981   0.0990   0.1044   0.1205   0.1308   0.1313   0.1320
     0.1404   0.1409   0.1515   0.1517   0.1547   0.1554   0.1686   0.1687
     0.1748   0.1762   0.2044   0.2048   0.2673   0.2688   0.2810   0.2813
     0.2826   0.2830   0.2861   0.2865   0.2875   0.2888   0.2917   0.2934
     0.3143   0.3167   0.3168   0.3192   0.3203   0.3271   0.3291   0.3311
     0.3341   0.3341   0.3656   0.3667   0.3781   0.3808   0.3825   0.3944
     0.3989   0.4021   0.4128   0.4433   0.4436   0.4490   0.4508   0.4544
     0.4571   0.4572   0.4687   0.4688   0.4749   0.4785   0.4797   0.4808
     0.4813   0.4818   0.5044   0.5120   0.5145   0.5176   0.5226   0.5341
     0.5344   0.5513   0.5665   0.5669   0.5672   0.5689   0.5990   0.6007
     0.6027   0.6045   0.6070   0.6082   0.6120   0.6141   0.6244   0.6260
     0.6271   0.6283   0.6328   0.6361   0.6478   0.6482   0.6581   0.6598
     0.6677   0.6678   0.6707   0.6708   0.6780   0.6794   0.6811   0.6861
     0.6887   0.6890   0.7018   0.7051   0.7094   0.7105   0.7155   0.7163
     0.7182   0.7185   0.7206   0.7209   0.7549   0.7556   0.7666   0.7675
     0.7852   0.7873   0.8028   0.8068   0.8228   0.8231   0.8244   0.8245
     0.8298   0.8309   0.8447   0.8533   0.8536   0.8539   0.8540   0.8551
     0.8554   0.8649   0.8691   0.8757   0.8829   0.8830   0.8922   0.8948
     0.8997   0.9046   0.9274   0.9282   0.9290   0.9416   0.9505   0.9513
     0.9571   0.9595   0.9641   0.9642   0.9707   0.9708   0.9744   0.9902
     1.0001   1.0028   1.0102   1.0166   1.0178   1.0248   1.0298   1.0377
     1.0456   1.0597   1.0620   1.0649   1.0788   1.0801   1.0863   1.0864
     1.0891   1.0892   1.0905   1.0906   1.0949   1.0950   1.1045   1.1050
     1.1125   1.1153   1.1160   1.1178   1.1353   1.1366   1.1629   1.1651
     1.1661   1.1693   1.1702   1.1728   1.1741   1.1750   1.1802   1.1838
     1.1873   1.1901   1.1908   1.1913   1.1947   1.1970   1.2010   1.2019
     1.2076   1.2094   1.2171   1.2202   1.2229   1.2231   1.2241   1.2243
     1.2358   1.2367   1.2445   1.2447   1.2668   1.2690   1.2770   1.2776
     1.2793   1.2919   1.2927   1.2958   1.3040   1.3095   1.3099   1.3122
     1.3186   1.3215   1.3302   1.3306   1.3344   1.3360   1.3426   1.3450
     1.3473   1.3474   1.3565   1.3594   1.3600   1.3701   1.3777   1.3807
     1.3808   1.3810   1.3858   1.3868   1.3907   1.3917   1.3941   1.4047
     1.4048   1.4088   1.4095   1.4174   1.4202   1.4214   1.4266   1.4330
     1.4362   1.4369   1.4371   1.4422   1.4437   1.4437   1.4442   1.4476
     1.4530   1.4531   1.4778   1.4779   1.4854   1.4858   1.4949   1.5004
     1.5099   1.5191   1.5247   1.5263   1.5273   1.5492   1.5496   1.5563
     1.5566   1.5805   1.5826   1.5896   1.6133   1.6456   1.6613   1.6626
     1.7107   1.7486   1.7580   1.7619   1.7697   1.7799   1.7851   1.7857
     1.7861   1.8096   1.8348   1.8428   2.1241   2.1247   2.1560   2.1568
     2.2815   2.2861   2.5819   2.5827   2.7784   2.7827   2.7861   2.7871
     2.7975   2.7996   2.8281   2.8313   2.9805   2.9817   3.0687   3.0789
     3.5246   3.5351   3.5972   3.6039   3.6518   3.6745   3.7628   3.8349
     3.8406   3.8437   3.8620   3.9892   3.9956   4.0565   4.0800   4.1591
     4.1621   4.3242   4.3713   4.3727   4.4295   4.5436   4.5441   4.6127
     4.6603   4.6795   4.7080   4.7224   4.9175   4.9251   4.9953   5.0182
     5.0205   5.1275   5.2580   5.2782   5.3960   5.4326   5.4386   5.4503
     5.4522   5.4727   5.7485   5.7562   5.8134   5.8786   5.8885   5.9486
     5.9537   5.9712   6.5782   6.5860   6.6068   6.6149   6.7228   6.7454
     6.7955   6.8510   6.8706   7.0233   7.0292   7.0456   7.0750   7.0891
     7.0971   7.1116   7.1871   7.2109   7.2145   7.3204   7.3240   7.3287
     7.3311   7.3979   7.4361   7.4377   7.6593   7.6626   7.7568   7.7841
     7.7891   7.8640   7.9723   7.9821   8.1793   8.1903   8.2302   8.2470
     8.2670   8.3897   8.5793   8.5828   8.5943   8.6039   8.6363   8.6375
     8.7039   8.7051   8.8008   8.8147   8.8996   8.9094   8.9378   8.9433
     9.0638   9.1077   9.1320   9.1418   9.1752   9.1799   9.1926   9.2034
     9.2157   9.2630   9.2679   9.3011   9.3416   9.3522   9.4272   9.4417
     9.4456   9.4788   9.6258   9.6270   9.9545   9.9593   9.9673

          k =-0.5000 0.0000 0.0000 (256496 PWs)   bands (ev):

   -17.1744 -16.0100 -15.7420 -15.6295 -15.6093 -15.5599 -14.8138 -14.6181
   -14.5145 -14.4816 -13.2100 -12.9076 -12.7666 -12.7012 -12.4574 -12.4337
   -11.9123 -11.8913 -11.8079 -11.7997 -11.2437 -11.2064 -10.9824 -10.7502
   -10.3358 -10.3039 -10.0807  -9.7615  -9.1487  -9.1481  -8.9778  -8.9449
    -7.8196  -7.6372  -7.5882  -7.4116  -7.3673  -7.3464  -6.3098  -6.2282
    -5.8463  -5.3235  -5.3221  -5.3092  -5.1455  -5.0083  -4.9676  -4.8650
    -4.8088  -4.8039  -4.8033  -4.8024  -4.7776  -4.7629  -4.7386  -4.6923
    -4.6663  -4.5440  -4.5430  -4.4725  -4.3793  -4.3779  -4.2929  -4.0547
    -4.0164  -3.9975  -3.9669  -3.9652  -3.6908  -3.6763  -3.6034  -3.5745
    -3.5731  -3.5561  -3.4285  -3.4211  -3.4199  -3.4192  -3.4187  -3.4127
    -3.3762  -3.3640  -2.9457  -2.9382  -2.8965  -2.8543  -2.8122  -2.7876
    -2.7671  -2.7600  -2.6224  -2.6093  -2.5682  -2.4792  -2.4511  -2.4398
    -2.3071  -2.3038  -2.3030  -2.3026  -1.8798  -1.8793  -1.8790  -1.8788
    -1.8769  -1.8767  -1.8655  -1.8138  -1.7798  -1.7598  -1.7568  -1.7555
    -1.6887  -1.6518  -1.6510  -1.6505  -1.6504  -1.6027  -1.6025  -1.6019
    -1.6012  -1.5128  -1.5066  -1.4886  -1.4886  -1.4872  -1.4771  -1.4532
    -1.4340  -1.4262  -1.4254  -1.4252  -1.4071  -1.4067  -1.3577  -1.3576
    -1.3570  -1.3546  -1.3535  -1.3429  -1.3423  -1.3411  -1.3407  -1.3382
    -1.2948  -1.2925  -1.2924  -1.2912  -1.2717  -1.2686  -1.2678  -1.2677
    -1.2331  -1.2049  -1.2048  -1.1834  -1.1827  -1.1823  -1.1818  -1.1590
    -1.1560  -1.1546  -1.1530  -1.1515  -1.1511  -1.1503  -1.1089  -1.1082
    -1.1071  -1.1071  -1.0862  -1.0861  -1.0724  -1.0561  -1.0559  -1.0533
    -1.0098  -1.0097  -1.0091  -0.9815  -0.9812  -0.9799  -0.9797  -0.9552
    -0.9537  -0.9529  -0.9519  -0.9476  -0.9465  -0.9439  -0.9322  -0.9318
    -0.9294  -0.9294  -0.9036  -0.9028  -0.8877  -0.8410  -0.8408  -0.8388
    -0.8380  -0.7949  -0.7949  -0.7168  -0.7122  -0.7117  -0.7115  -0.7078
    -0.6895  -0.6808  -0.6734  -0.6732  -0.6723  -0.6723  -0.6684  -0.6618
    -0.6416  -0.6334  -0.6301  -0.6296  -0.6252  -0.6180  -0.6148  -0.6027
    -0.6002  -0.5998  -0.5736  -0.5292  -0.5190  -0.5120  -0.4829  -0.4730
    -0.4667  -0.4659  -0.4567  -0.4566  -0.4327  -0.4166  -0.4137  -0.4101
    -0.4063  -0.4063  -0.4046  -0.4045  -0.3946  -0.3817  -0.3685  -0.3684
    -0.3680  -0.3680  -0.3298  -0.3295  -0.3288  -0.3287  -0.3193  -0.2960
    -0.2959  -0.2959  -0.2953  -0.2843  -0.2842  -0.2514  -0.2513  -0.2512
    -0.2499  -0.2499  -0.2465  -0.2407  -0.2279  -0.2135  -0.2035  -0.2011
    -0.1694  -0.1367  -0.1354  -0.1352  -0.1343  -0.1291  -0.1290  -0.1281
    -0.1279  -0.0886  -0.0885  -0.0869  -0.0861  -0.0676  -0.0524  -0.0521
    -0.0261  -0.0260  -0.0240  -0.0237  -0.0223  -0.0221  -0.0215  -0.0213
    -0.0202  -0.0201  -0.0197  -0.0193   0.0553   0.0567   0.0609   0.0623
     0.0664   0.0670   0.0717   0.0720   0.0724   0.0725   0.0773   0.0773
     0.0794   0.0796   0.0831   0.0832   0.0873   0.0887   0.1019   0.1019
     0.1116   0.1160   0.1164   0.1164   0.1166   0.1166   0.1171   0.1272
     0.1275   0.1278   0.1279   0.1403   0.1406   0.1434   0.1526   0.1527
     0.1533   0.1536   0.1717   0.1826   0.1834   0.1954   0.2514   0.2660
     0.2858   0.2859   0.2875   0.2876   0.3188   0.3193   0.3199   0.3204
     0.3343   0.3344   0.3398   0.3399   0.3441   0.3447   0.3452   0.3456
     0.3493   0.3502   0.3514   0.3518   0.3521   0.3521   0.3665   0.3666
     0.3714   0.3746   0.3810   0.3820   0.3892   0.3897   0.3949   0.3952
     0.4010   0.4015   0.4353   0.4382   0.4900   0.4916   0.4917   0.4922
     0.5003   0.5007   0.5213   0.5234   0.5253   0.5264   0.5278   0.5285
     0.5297   0.5299   0.5320   0.5327   0.5346   0.5350   0.5370   0.5372
     0.5435   0.5446   0.5453   0.5455   0.5622   0.5654   0.5831   0.5832
     0.5930   0.5969   0.6055   0.6102   0.6163   0.6179   0.6212   0.6216
     0.6300   0.6303   0.6309   0.6311   0.6332   0.6336   0.6465   0.6471
     0.6513   0.6516   0.6669   0.6676   0.6685   0.6687   0.7054   0.7057
     0.7063   0.7064   0.7070   0.7071   0.7245   0.7253   0.7525   0.7561
     0.7648   0.7663   0.7673   0.7673   0.7676   0.7677   0.7858   0.8075
     0.8343   0.8347   0.8382   0.8390   0.8397   0.8401   0.8438   0.8448
     0.8505   0.8520   0.8525   0.8528   0.8630   0.8648   0.8846   0.8846
     0.8863   0.8864   0.8886   0.8930   0.9053   0.9054   0.9060   0.9062
     0.9073   0.9075   0.9436   0.9452   0.9455   0.9456   0.9696   0.9907
     1.0118   1.0120   1.0120   1.0126   1.0382   1.0455   1.0460   1.0462
     1.0477   1.0489   1.0647   1.0653   1.0755   1.0764   1.0787   1.0845
     1.0876   1.0888   1.1094   1.1103   1.1151   1.1155   1.1157   1.1163
     1.1231   1.1237   1.1248   1.1251   1.1346   1.1346   1.1357   1.1361
     1.1373   1.1375   1.1380   1.1382   1.1724   1.1740   1.1754   1.1754
     1.1905   1.1985   1.2050   1.2065   1.2100   1.2109   1.2114   1.2119
     1.2289   1.2300   1.2336   1.2401   1.2404   1.2408   1.2424   1.2504
     1.2510   1.2513   1.2514   1.2557   1.2609   1.2645   1.2690   1.2746
     1.2980   1.2983   1.3108   1.3136   1.3138   1.3141   1.3143   1.3144
     1.3144   1.3145   1.3246   1.3267   1.3278   1.3279   1.3285   1.3286
     1.3306   1.3307   1.3358   1.3365   1.3409   1.3411   1.3417   1.3419
     1.3489   1.3490   1.3637   1.3639   1.3791   1.3821   1.3829   1.3831
     1.3909   1.3911   1.3925   1.3926   1.4058   1.4091   1.4129   1.4129
     1.4278   1.4284   1.4314   1.4348   1.4381   1.4473   1.4474   1.4476
     1.4484   1.4655   1.4673   1.4684   1.4692   1.4705   1.4782   1.4783
     1.4786   1.4787   1.4835   1.4878   1.4981   1.4982   1.5114   1.5123
     1.5123   1.5127   1.5127   1.5246   1.5256   1.5258   1.5759   1.5761
     1.5929   1.6058   1.6058   1.6102   1.6103   1.6210   2.0241   2.0274
     2.0285   2.0292   2.2304   2.2325   2.2470   2.2505   2.2828   2.2833
     2.2901   2.2904   2.6041   2.6124   2.6161   2.6173   2.8247   2.8275
     2.8330   2.8333   3.1825   3.1826   3.1850   3.1856   3.4623   3.4676
     3.7365   3.7505   3.7529   3.7541   3.8422   3.9167   3.9212   3.9217
     3.9591   4.0657   4.0690   4.0710   4.0765   4.1763   4.1835   4.3872
     4.4008   4.4812   4.7278   4.7400   4.7482   4.7516   4.8083   4.8229
     4.8234   4.8528   4.9291   5.0188   5.0195   5.0341   5.0387   5.0440
     5.0468   5.0506   5.0704   5.0712   5.0956   5.1061   5.1521   5.1622
     5.4825   5.5118   5.5333   5.5372   5.6393   5.6605   5.7565   5.8272
     5.9865   5.9899   5.9940   5.9998   6.0252   6.0331   6.0376   6.0434
     6.1882   6.3885   6.4287   6.4304   6.4328   6.4391   6.4507   6.4735
     7.0841   7.0907   7.1005   7.1063   7.1215   7.1230   7.5711   7.5813
     7.5934   7.5988   7.5991   7.5994   7.6154   7.6259   7.8101   7.8151
     7.8745   7.8808   7.8850   7.8868   8.0328   8.0496   8.0523   8.0554
     8.1128   8.1233   8.1270   8.1319   8.1575   8.1957   8.6438   8.6896
     8.6918   8.7062   8.8252   8.8267   8.8300   8.8315   8.9705   8.9862
     8.9930   9.0632   9.0666   9.0675   9.0774   9.2584   9.2607   9.3736
     9.4218   9.4444   9.4916   9.4946   9.4947   9.4953   9.5077   9.5131
     9.5169   9.5188   9.5299   9.5319   9.8242   9.8314  10.0189

          k =-0.5000-0.2165 0.0000 (256328 PWs)   bands (ev):

   -17.1742 -15.9783 -15.8203 -15.7954 -15.3897 -15.2199 -15.1506 -15.1147
   -14.0585 -13.8410 -13.7095 -13.6734 -12.6840 -12.4582 -12.0020 -11.9970
   -11.9225 -11.7752 -11.6709 -11.5897 -11.5421 -11.5346 -11.4235 -11.4054
   -10.0450 -10.0388  -9.7699  -9.7237  -9.2276  -8.9140  -8.7979  -8.7595
    -8.2696  -8.2318  -8.0223  -8.0000  -6.5368  -6.3463  -6.1229  -5.9495
    -5.8393  -5.6269  -5.3889  -5.3145  -5.3062  -5.2209  -5.2143  -5.1818
    -5.1799  -5.1797  -5.0187  -5.0048  -4.9599  -4.5122  -4.3888  -4.3512
    -4.3263  -4.3206  -4.2641  -4.2149  -4.2021  -4.1985  -4.1980  -4.1976
    -4.0821  -4.0767  -3.9157  -3.8773  -3.8652  -3.8585  -3.7553  -3.7462
    -3.7042  -3.6901  -3.6030  -3.5927  -3.5844  -3.4874  -3.4665  -3.4568
    -3.1736  -3.0872  -3.0724  -3.0621  -2.6373  -2.5821  -2.5815  -2.5794
    -2.5791  -2.5787  -2.5451  -2.5290  -2.5238  -2.5234  -2.4097  -2.3532
    -2.1661  -2.1535  -2.1095  -2.1006  -2.0967  -2.0961  -2.0532  -2.0499
    -2.0211  -2.0187  -2.0176  -2.0106  -1.9390  -1.8033  -1.8032  -1.8020
    -1.8020  -1.7715  -1.7392  -1.7284  -1.5679  -1.5243  -1.5093  -1.5022
    -1.4936  -1.4936  -1.4935  -1.4935  -1.4597  -1.4565  -1.4542  -1.4539
    -1.4339  -1.4337  -1.4334  -1.4334  -1.3844  -1.3843  -1.3841  -1.3839
    -1.3825  -1.3824  -1.3818  -1.3817  -1.3588  -1.3587  -1.3586  -1.3586
    -1.3096  -1.3086  -1.3076  -1.3075  -1.3037  -1.2387  -1.2335  -1.2333
    -1.2325  -1.1912  -1.1911  -1.1910  -1.1910  -1.1747  -1.1714  -1.1710
    -1.1709  -1.1283  -1.1221  -1.1220  -1.1218  -1.1176  -1.1159  -1.1158
    -1.1158  -1.1108  -1.0966  -1.0927  -1.0905  -1.0873  -1.0575  -1.0573
    -1.0570  -1.0569  -1.0411  -1.0404  -1.0403  -1.0402  -1.0379  -1.0374
    -1.0373  -1.0369  -1.0368  -1.0151  -0.8829  -0.8826  -0.8821  -0.8820
    -0.8535  -0.8530  -0.8528  -0.8527  -0.8026  -0.7712  -0.7703  -0.7701
    -0.7697  -0.7692  -0.7685  -0.7668  -0.7630  -0.7622  -0.7617  -0.7615
    -0.7036  -0.7005  -0.7004  -0.7000  -0.6937  -0.6892  -0.6885  -0.6881
    -0.6733  -0.6680  -0.6673  -0.6672  -0.6421  -0.5834  -0.5713  -0.5711
    -0.5685  -0.5673  -0.5669  -0.5664  -0.5132  -0.4986  -0.4983  -0.4981
    -0.4962  -0.4496  -0.4490  -0.4487  -0.4458  -0.4284  -0.4283  -0.4276
    -0.4276  -0.4104  -0.4002  -0.4000  -0.3895  -0.3894  -0.3885  -0.3885
    -0.3767  -0.3521  -0.3487  -0.3478  -0.3397  -0.2739  -0.2739  -0.2732
    -0.2732  -0.2578  -0.2578  -0.2572  -0.2572  -0.2417  -0.2406  -0.2402
    -0.2396  -0.1599  -0.1593  -0.1585  -0.1578  -0.1536  -0.1535  -0.1532
    -0.1530  -0.1520  -0.1497  -0.1496  -0.1470  -0.1128  -0.1128  -0.1127
    -0.1126  -0.1009  -0.1002  -0.0997  -0.0994  -0.0963  -0.0961  -0.0959
    -0.0958  -0.0678  -0.0271  -0.0268  -0.0260  -0.0259  -0.0004  -0.0002
     0.0018   0.0023   0.0486   0.0491   0.0541   0.0550   0.0603   0.0651
     0.0793   0.0796   0.0800   0.0803   0.0854   0.0865   0.0880   0.0888
     0.0892   0.0894   0.0935   0.0937   0.0999   0.1002   0.1007   0.1009
     0.1061   0.1061   0.1063   0.1063   0.1177   0.1225   0.1229   0.1229
     0.1342   0.1507   0.1508   0.1509   0.1509   0.1601   0.1611   0.1613
     0.1632   0.2094   0.2103   0.2110   0.2111   0.2345   0.2434   0.2436
     0.2446   0.2540   0.2826   0.3094   0.3140   0.3183   0.3261   0.3269
     0.3281   0.3291   0.3358   0.3411   0.3439   0.3451   0.3457   0.3460
     0.3545   0.3608   0.3609   0.3614   0.3615   0.3644   0.3682   0.3687
     0.3691   0.3698   0.3709   0.3721   0.3778   0.3867   0.3985   0.4009
     0.4459   0.4477   0.4496   0.4515   0.4569   0.4572   0.4577   0.4583
     0.4689   0.4690   0.4691   0.4694   0.5059   0.5068   0.5080   0.5084
     0.5097   0.5099   0.5102   0.5105   0.5444   0.5536   0.5538   0.5541
     0.5541   0.5588   0.5650   0.5670   0.5678   0.5680   0.5682   0.5701
     0.5758   0.5761   0.5763   0.5764   0.5888   0.5893   0.5917   0.5920
     0.6013   0.6057   0.6068   0.6082   0.6659   0.6761   0.6762   0.6786
     0.6789   0.6825   0.6828   0.6829   0.6831   0.6848   0.6891   0.6909
     0.6935   0.6973   0.7071   0.7102   0.7281   0.7281   0.7289   0.7290
     0.7298   0.7305   0.7317   0.7318   0.7716   0.7785   0.7828   0.7832
     0.8020   0.8084   0.8112   0.8115   0.8126   0.8134   0.8294   0.8317
     0.8473   0.8474   0.8481   0.8481   0.8687   0.8703   0.8726   0.8729
     0.9250   0.9251   0.9257   0.9257   0.9575   0.9578   0.9592   0.9595
     1.0026   1.0107   1.0121   1.0125   1.0156   1.0204   1.0259   1.0264
     1.0355   1.0375   1.0378   1.0384   1.0436   1.0438   1.0439   1.0441
     1.0447   1.0456   1.0466   1.0478   1.0482   1.0486   1.0680   1.0738
     1.0748   1.0757   1.0764   1.0776   1.0781   1.0793   1.0799   1.0808
     1.0909   1.0939   1.0956   1.0966   1.1179   1.1192   1.1218   1.1219
     1.1251   1.1271   1.1320   1.1326   1.1404   1.1411   1.1414   1.1422
     1.1882   1.1898   1.1926   1.1937   1.1939   1.1953   1.1953   1.1974
     1.2199   1.2207   1.2208   1.2210   1.2292   1.2350   1.2360   1.2390
     1.2400   1.2435   1.2556   1.2560   1.2698   1.2699   1.2703   1.2703
     1.2784   1.2786   1.2795   1.2801   1.2850   1.2853   1.2860   1.2861
     1.3439   1.3520   1.3520   1.3526   1.3528   1.3535   1.3536   1.3542
     1.3542   1.3581   1.3617   1.3628   1.3660   1.3701   1.3711   1.3719
     1.3740   1.3774   1.3808   1.3809   1.3837   1.3852   1.3858   1.3869
     1.3926   1.3932   1.3936   1.3938   1.3975   1.4018   1.4036   1.4045
     1.4141   1.4145   1.4146   1.4151   1.4472   1.4475   1.4476   1.4478
     1.4600   1.4614   1.4629   1.4631   1.4734   1.4761   1.4785   1.4786
     1.4962   1.4992   1.5000   1.5004   1.5351   1.5475   1.5503   1.5524
     1.5721   1.5722   1.5728   1.5728   1.6010   1.6019   1.6028   1.6034
     1.6065   1.6079   1.6083   1.6092   1.6143   1.6148   1.6153   1.6155
     1.8316   1.8330   1.8332   1.8342   2.3284   2.3361   2.3420   2.3427
     2.5539   2.5559   2.5588   2.5589   2.7861   2.7910   2.7925   2.7933
     3.0790   3.0863   3.0875   3.0886   3.4493   3.4516   3.4517   3.4520
     3.6280   3.6372   3.6407   3.6409   3.9075   3.9267   3.9275   3.9277
     4.0026   4.2238   4.2244   4.2261   4.2316   4.3105   4.3232   4.3357
     4.3374   4.5081   4.5517   4.5546   4.5576   4.5640   4.5912   4.5956
     4.6307   4.7925   4.8591   4.8850   4.9025   5.0058   5.0409   5.0675
     5.1656   5.1664   5.1720   5.1724   5.2293   5.2403   5.2920   5.3019
     5.3313   5.3345   5.3461   5.3497   5.5007   5.5958   5.7290   5.7326
     5.7449   5.7461   5.7481   5.7495   5.8385   5.8629   5.8880   5.8887
     6.7814   6.7827   6.7833   6.7837   7.0964   7.1138   7.1165   7.1221
     7.1417   7.1505   7.1515   7.1528   7.2475   7.2681   7.2697   7.2732
     7.3592   7.3652   7.3661   7.3663   7.5145   7.6036   7.6073   7.6101
     7.6673   7.8995   7.9449   7.9563   7.9667   7.9819   7.9969   8.0041
     8.2199   8.2362   8.2386   8.2424   8.2454   8.2834   8.3593   8.3646
     8.8878   8.8885   8.8901   8.8911   8.9206   8.9227   8.9233   8.9246
     8.9622   8.9634   8.9646   8.9656   9.1056   9.1099   9.1179   9.1183
     9.3027   9.3242   9.3380   9.3444   9.5138   9.5235   9.5368   9.5459
     9.5620   9.5668   9.5721   9.5722   9.9258   9.9377   9.9668

     the Fermi energy is     3.3206 ev

!    total energy              =  -12707.14302847 Ry
     Harris-Foulkes estimate   =  -12707.14302850 Ry
     estimated scf accuracy    <          8.3E-09 Ry

     The total energy is the sum of the following terms:

     one-electron contribution = -109279.35335384 Ry
     hartree contribution      =   56001.06869750 Ry
     xc contribution           =   -4447.77456255 Ry
     ewald contribution        =   45025.25860383 Ry
     Dispersion Correction     =      -2.98711763 Ry
     smearing contrib. (-TS)   =      -3.35529578 Ry

     convergence has been achieved in  47 iterations

     Writing output data file gc.save
 
     init_run     :     97.40s CPU    105.75s WALL (       1 calls)
     electrons    :  12619.79s CPU  13500.99s WALL (       1 calls)

     Called by init_run:
     wfcinit      :     95.05s CPU    102.45s WALL (       1 calls)
     potinit      :      0.38s CPU      0.44s WALL (       1 calls)

     Called by electrons:
     c_bands      :  11607.20s CPU  12391.11s WALL (      47 calls)
     sum_band     :    851.42s CPU    922.38s WALL (      47 calls)
     v_of_rho     :      3.12s CPU      3.81s WALL (      48 calls)
     newd         :      7.61s CPU     14.01s WALL (      48 calls)
     mix_rho      :    150.25s CPU    169.54s WALL (      47 calls)

     Called by c_bands:
     init_us_2    :     37.74s CPU     39.00s WALL (     570 calls)
     cegterg      :  11440.26s CPU  12213.39s WALL (     288 calls)

     Called by sum_band:
     sum_band:bec :      4.93s CPU      5.58s WALL (     282 calls)
     addusdens    :      8.22s CPU     13.91s WALL (      47 calls)

     Called by *egterg:
     h_psi        :   4162.32s CPU   4498.57s WALL (    2092 calls)
     s_psi        :   1026.07s CPU   1037.82s WALL (    2092 calls)
     g_psi        :     10.52s CPU     10.55s WALL (    1798 calls)
     cdiaghg      :   3407.39s CPU   3541.09s WALL (    2080 calls)

     Called by h_psi:
     add_vuspsi   :   1030.89s CPU   1045.09s WALL (    2092 calls)

     General routines
     calbec       :   1429.46s CPU   1440.47s WALL (    2374 calls)
     fft          :      3.55s CPU      4.19s WALL (     623 calls)
     ffts         :     89.44s CPU    100.77s WALL (   22956 calls)
     fftw         :   2384.29s CPU   2652.13s WALL ( 1350142 calls)
     davcio       :      0.04s CPU      3.04s WALL (       6 calls)
 
     Parallel routines
     fft_scatter  :   1511.64s CPU   1654.23s WALL ( 1373721 calls)
 
     PWSCF        :     3h32m CPU        3h46m WALL

 
   This run was terminated on:   0:28:10   8Sep2017            

=------------------------------------------------------------------------------=
   JOB DONE.
=------------------------------------------------------------------------------=
