
     Program PWSCF v.5.4.0 starts on  6Nov2016 at  6:43:49 

     This program is part of the open-source Quantum ESPRESSO suite
     for quantum simulation of materials; please cite
         "P. Giannozzi et al., J. Phys.:Condens. Matter 21 395502 (2009);
          URL http://www.quantum-espresso.org", 
     in publications or presentations arising from this work. More details at
     http://www.quantum-espresso.org/quote

     Parallel version (MPI & OpenMP), running on      96 processor cores
     Number of MPI processes:                96
     Threads/MPI process:                     1
     R & G space division:  proc/nbgrp/npool/nimage =      96
     Waiting for input...
     Reading input from standard input
Warning: card &IONS ignored
Warning: card / ignored

     Current dimensions of program PWSCF are:
     Max number of different atomic species (ntypx) = 10
     Max number of k-points (npk) =  40000
     Max angular momentum in pseudopotentials (lmaxx) =  3

     -------------------------------------
     Parameters for Dispersion Correction:
     -------------------------------------
       atom      VdW radius       C_6     

        Cu         2.952        374.666

     Subspace diagonalization in iterative solution of the eigenvalue problem:
     one sub-group per band group will be used
     scalapack distributed-memory algorithm (size of sub-group:  6*  6 procs)

     Found symmetry operation: I + (  0.3333  0.0000  0.0000)
     This is a supercell, fractional translations are disabled
 
     Parallelization info
     --------------------
     sticks:   dense  smooth     PW     G-vecs:    dense   smooth      PW
     Min          85      75     18                11443     9569    1188
     Max          86      76     19                11453     9624    1205
     Sum        8173    7269   1811              1099045   921191  115097
 


     bravais-lattice index     =            0
     lattice parameter (alat)  =      27.5793  a.u.
     unit-cell volume          =   26950.5233 (a.u.)^3
     number of atoms/cell      =          120
     number of atomic types    =            1
     number of electrons       =      1320.00
     number of Kohn-Sham states=          792
     kinetic-energy cutoff     =      40.0000  Ry
     charge density cutoff     =     180.0000  Ry
     convergence threshold     =      1.0E-08
     mixing beta               =       0.7000
     number of iterations used =            8  plain     mixing
     Exchange-correlation      =  SLA  PW   PBE  PBE ( 1  4  3  4 0 0)

     celldm(1)=  27.579319  celldm(2)=   0.000000  celldm(3)=   0.000000
     celldm(4)=   0.000000  celldm(5)=   0.000000  celldm(6)=   0.000000

     crystal axes: (cart. coord. in units of alat)
               a(1) = (   1.000000   0.000000   0.000000 )  
               a(2) = (   0.000000   0.750000   0.000000 )  
               a(3) = (   0.000000   0.000000   1.712992 )  

     reciprocal axes: (cart. coord. in units 2 pi/alat)
               b(1) = (  1.000000  0.000000  0.000000 )  
               b(2) = (  0.000000  1.333333  0.000000 )  
               b(3) = (  0.000000  0.000000  0.583774 )  


     PseudoPot. # 1 for Cu read from file:
     /home/549/hxw549/Short/pseudopotentials/Cu.pbe-n-van_ak.UPF
     MD5 check sum: 601f7c30f7467666bec936e0661ce3e1
     Pseudo is Ultrasoft + core correction, Zval = 11.0
     Generated by new atomic code, or converted to UPF format
     Using radial grid of  867 points,  6 beta functions with: 
                l(1) =   0
                l(2) =   0
                l(3) =   1
                l(4) =   1
                l(5) =   2
                l(6) =   2
     Q(r) pseudized with  8 coefficients,  rinner =    1.400   1.400   1.400
                                                       1.400   1.400

     atomic species   valence    mass     pseudopotential
        Cu            11.00    63.54600     Cu( 1.00)

      4 Sym. Ops. (no inversion) found



   Cartesian axes

     site n.     atom                  positions (alat units)
         1           Cu  tau(   1) = (   0.0000000   0.0000000   0.5037165  )
         2           Cu  tau(   2) = (   0.3333333   0.0000000   0.5037165  )
         3           Cu  tau(   3) = (   0.6666667   0.0000000   0.5037165  )
         4           Cu  tau(   4) = (   0.0000000   0.1875000   0.5037165  )
         5           Cu  tau(   5) = (   0.3333333   0.1875000   0.5037165  )
         6           Cu  tau(   6) = (   0.6666667   0.1875000   0.5037165  )
         7           Cu  tau(   7) = (   0.0000000   0.3750000   0.5037165  )
         8           Cu  tau(   8) = (   0.3333333   0.3750000   0.5037165  )
         9           Cu  tau(   9) = (   0.6666667   0.3750000   0.5037165  )
        10           Cu  tau(  10) = (   0.0000000   0.5625000   0.5037165  )
        11           Cu  tau(  11) = (   0.3333333   0.5625000   0.5037165  )
        12           Cu  tau(  12) = (   0.6666667   0.5625000   0.5037165  )
        13           Cu  tau(  13) = (   0.1666667   0.0937500   0.5037165  )
        14           Cu  tau(  14) = (   0.5000000   0.0937500   0.5037165  )
        15           Cu  tau(  15) = (   0.8333333   0.0937500   0.5037165  )
        16           Cu  tau(  16) = (   0.1666667   0.2812500   0.5037165  )
        17           Cu  tau(  17) = (   0.5000000   0.2812500   0.5037165  )
        18           Cu  tau(  18) = (   0.8333333   0.2812500   0.5037165  )
        19           Cu  tau(  19) = (   0.1666667   0.4687500   0.5037165  )
        20           Cu  tau(  20) = (   0.5000000   0.4687500   0.5037165  )
        21           Cu  tau(  21) = (   0.8333333   0.4687500   0.5037165  )
        22           Cu  tau(  22) = (   0.1666667   0.6562500   0.5037165  )
        23           Cu  tau(  23) = (   0.5000000   0.6562500   0.5037165  )
        24           Cu  tau(  24) = (   0.8333333   0.6562500   0.5037165  )
        25           Cu  tau(  25) = (   0.1666667   0.0000000   0.6287165  )
        26           Cu  tau(  26) = (   0.5000000   0.0000000   0.6287165  )
        27           Cu  tau(  27) = (   0.8333333   0.0000000   0.6287165  )
        28           Cu  tau(  28) = (   0.1666667   0.1875000   0.6287165  )
        29           Cu  tau(  29) = (   0.5000000   0.1875000   0.6287165  )
        30           Cu  tau(  30) = (   0.8333333   0.1875000   0.6287165  )
        31           Cu  tau(  31) = (   0.1666667   0.3750000   0.6287165  )
        32           Cu  tau(  32) = (   0.5000000   0.3750000   0.6287165  )
        33           Cu  tau(  33) = (   0.8333333   0.3750000   0.6287165  )
        34           Cu  tau(  34) = (   0.1666667   0.5625000   0.6287165  )
        35           Cu  tau(  35) = (   0.5000000   0.5625000   0.6287165  )
        36           Cu  tau(  36) = (   0.8333333   0.5625000   0.6287165  )
        37           Cu  tau(  37) = (   0.0000000   0.0937500   0.6287165  )
        38           Cu  tau(  38) = (   0.3333333   0.0937500   0.6287165  )
        39           Cu  tau(  39) = (   0.6666667   0.0937500   0.6287165  )
        40           Cu  tau(  40) = (   0.0000000   0.2812500   0.6287165  )
        41           Cu  tau(  41) = (   0.3333333   0.2812500   0.6287165  )
        42           Cu  tau(  42) = (   0.6666667   0.2812500   0.6287165  )
        43           Cu  tau(  43) = (   0.0000000   0.4687500   0.6287165  )
        44           Cu  tau(  44) = (   0.3333333   0.4687500   0.6287165  )
        45           Cu  tau(  45) = (   0.6666667   0.4687500   0.6287165  )
        46           Cu  tau(  46) = (   0.0000000   0.6562500   0.6287165  )
        47           Cu  tau(  47) = (   0.3333333   0.6562500   0.6287165  )
        48           Cu  tau(  48) = (   0.6666667   0.6562500   0.6287165  )
        49           Cu  tau(  49) = (   0.0000000   0.0000000   0.7537165  )
        50           Cu  tau(  50) = (   0.3333333   0.0000000   0.7537165  )
        51           Cu  tau(  51) = (   0.6666667   0.0000000   0.7537165  )
        52           Cu  tau(  52) = (   0.0000000   0.1875000   0.7537165  )
        53           Cu  tau(  53) = (   0.3333333   0.1875000   0.7537165  )
        54           Cu  tau(  54) = (   0.6666667   0.1875000   0.7537165  )
        55           Cu  tau(  55) = (   0.0000000   0.3750000   0.7537165  )
        56           Cu  tau(  56) = (   0.3333333   0.3750000   0.7537165  )
        57           Cu  tau(  57) = (   0.6666667   0.3750000   0.7537165  )
        58           Cu  tau(  58) = (   0.0000000   0.5625000   0.7537165  )
        59           Cu  tau(  59) = (   0.3333333   0.5625000   0.7537165  )
        60           Cu  tau(  60) = (   0.6666667   0.5625000   0.7537165  )
        61           Cu  tau(  61) = (   0.1666667   0.0937500   0.7537165  )
        62           Cu  tau(  62) = (   0.5000000   0.0937500   0.7537165  )
        63           Cu  tau(  63) = (   0.8333333   0.0937500   0.7537165  )
        64           Cu  tau(  64) = (   0.1666667   0.2812500   0.7537165  )
        65           Cu  tau(  65) = (   0.5000000   0.2812500   0.7537165  )
        66           Cu  tau(  66) = (   0.8333333   0.2812500   0.7537165  )
        67           Cu  tau(  67) = (   0.1666667   0.4687500   0.7537165  )
        68           Cu  tau(  68) = (   0.5000000   0.4687500   0.7537165  )
        69           Cu  tau(  69) = (   0.8333333   0.4687500   0.7537165  )
        70           Cu  tau(  70) = (   0.1666667   0.6562500   0.7537165  )
        71           Cu  tau(  71) = (   0.5000000   0.6562500   0.7537165  )
        72           Cu  tau(  72) = (   0.8333333   0.6562500   0.7537165  )
        73           Cu  tau(  73) = (   0.1666667   0.0000000   0.8787165  )
        74           Cu  tau(  74) = (   0.5000000   0.0000000   0.8787165  )
        75           Cu  tau(  75) = (   0.8333333   0.0000000   0.8787165  )
        76           Cu  tau(  76) = (   0.1666667   0.1875000   0.8787165  )
        77           Cu  tau(  77) = (   0.5000000   0.1875000   0.8787165  )
        78           Cu  tau(  78) = (   0.8333333   0.1875000   0.8787165  )
        79           Cu  tau(  79) = (   0.1666667   0.3750000   0.8787165  )
        80           Cu  tau(  80) = (   0.5000000   0.3750000   0.8787165  )
        81           Cu  tau(  81) = (   0.8333333   0.3750000   0.8787165  )
        82           Cu  tau(  82) = (   0.1666667   0.5625000   0.8787165  )
        83           Cu  tau(  83) = (   0.5000000   0.5625000   0.8787165  )
        84           Cu  tau(  84) = (   0.8333333   0.5625000   0.8787165  )
        85           Cu  tau(  85) = (   0.0000000   0.0937500   0.8787165  )
        86           Cu  tau(  86) = (   0.3333333   0.0937500   0.8787165  )
        87           Cu  tau(  87) = (   0.6666667   0.0937500   0.8787165  )
        88           Cu  tau(  88) = (   0.0000000   0.2812500   0.8787165  )
        89           Cu  tau(  89) = (   0.3333333   0.2812500   0.8787165  )
        90           Cu  tau(  90) = (   0.6666667   0.2812500   0.8787165  )
        91           Cu  tau(  91) = (   0.0000000   0.4687500   0.8787165  )
        92           Cu  tau(  92) = (   0.3333333   0.4687500   0.8787165  )
        93           Cu  tau(  93) = (   0.6666667   0.4687500   0.8787165  )
        94           Cu  tau(  94) = (   0.0000000   0.6562500   0.8787165  )
        95           Cu  tau(  95) = (   0.3333333   0.6562500   0.8787165  )
        96           Cu  tau(  96) = (   0.6666667   0.6562500   0.8787165  )
        97           Cu  tau(  97) = (   0.0000000   0.0000000   1.0037165  )
        98           Cu  tau(  98) = (   0.3333333   0.0000000   1.0037165  )
        99           Cu  tau(  99) = (   0.6666667   0.0000000   1.0037165  )
       100           Cu  tau( 100) = (   0.0000000   0.1875000   1.0037165  )
       101           Cu  tau( 101) = (   0.3333333   0.1875000   1.0037165  )
       102           Cu  tau( 102) = (   0.6666667   0.1875000   1.0037165  )
       103           Cu  tau( 103) = (   0.0000000   0.3750000   1.0037165  )
       104           Cu  tau( 104) = (   0.3333333   0.3750000   1.0037165  )
       105           Cu  tau( 105) = (   0.6666667   0.3750000   1.0037165  )
       106           Cu  tau( 106) = (   0.0000000   0.5625000   1.0037165  )
       107           Cu  tau( 107) = (   0.3333333   0.5625000   1.0037165  )
       108           Cu  tau( 108) = (   0.6666667   0.5625000   1.0037165  )
       109           Cu  tau( 109) = (   0.1666667   0.0937500   1.0037165  )
       110           Cu  tau( 110) = (   0.5000000   0.0937500   1.0037165  )
       111           Cu  tau( 111) = (   0.8333333   0.0937500   1.0037165  )
       112           Cu  tau( 112) = (   0.1666667   0.2812500   1.0037165  )
       113           Cu  tau( 113) = (   0.5000000   0.2812500   1.0037165  )
       114           Cu  tau( 114) = (   0.8333333   0.2812500   1.0037165  )
       115           Cu  tau( 115) = (   0.1666667   0.4687500   1.0037165  )
       116           Cu  tau( 116) = (   0.5000000   0.4687500   1.0037165  )
       117           Cu  tau( 117) = (   0.8333333   0.4687500   1.0037165  )
       118           Cu  tau( 118) = (   0.1666667   0.6562500   1.0037165  )
       119           Cu  tau( 119) = (   0.5000000   0.6562500   1.0037165  )
       120           Cu  tau( 120) = (   0.8333333   0.6562500   1.0037165  )

     number of k points=     1  gaussian smearing, width (Ry)=  0.1000
                       cart. coord. in units 2pi/alat
        k(    1) = (   0.0000000   0.0000000   0.0000000), wk =   2.0000000

     Dense  grid:  1099045 G-vectors     FFT dimensions: ( 120,  90, 216)

     Smooth grid:   921191 G-vectors     FFT dimensions: ( 120,  90, 192)

     Largest allocated arrays     est. size (Mb)     dimensions
        Kohn-Sham Wavefunctions        14.56 Mb     (    1205,  792)
        NL pseudopotentials            39.72 Mb     (    1205, 2160)
        Each V/rho on FFT grid          0.49 Mb     (   32400)
        Each G-vector array             0.09 Mb     (   11445)
        G-vector shells                 0.04 Mb     (    5765)
     Largest temporary arrays     est. size (Mb)     dimensions
        Auxiliary wavefunctions        58.25 Mb     (    1205, 3168)
        Each subspace H/S matrix        4.25 Mb     (     528,  528)
        Each <psi_i|beta_j> matrix     26.10 Mb     (    2160,  792)
        Arrays for rho mixing           3.96 Mb     (   32400,    8)

     Initial potential from superposition of free atoms
     Check: negative starting charge=   -0.007804

     starting charge 1318.58109, renormalised to 1320.00000

     negative rho (up, down):  7.812E-03 0.000E+00
     Starting wfc are 1080 randomized atomic wfcs

     total cpu time spent up to now is       11.2 secs

     Self-consistent Calculation

     iteration #  1     ecut=    40.00 Ry     beta=0.70
     Davidson diagonalization with overlap
     ethr =  1.00E-04,  avg # of iterations =  7.0

     negative rho (up, down):  2.760E-03 0.000E+00

     total cpu time spent up to now is       65.3 secs

     total energy              =  -14541.92063690 Ry
     Harris-Foulkes estimate   =  -14584.00176754 Ry
     estimated scf accuracy    <      49.27643386 Ry

     iteration #  2     ecut=    40.00 Ry     beta=0.70
     Davidson diagonalization with overlap
     ethr =  3.73E-03,  avg # of iterations = 14.0

     total cpu time spent up to now is      169.5 secs

     total energy              =  -13786.86604822 Ry
     Harris-Foulkes estimate   =  -15104.96261663 Ry
     estimated scf accuracy    <   42580.09407952 Ry

     iteration #  3     ecut=    40.00 Ry     beta=0.70
     Davidson diagonalization with overlap
     ethr =  3.73E-03,  avg # of iterations =  6.0

     total cpu time spent up to now is      229.8 secs

     total energy              =  -14556.53629840 Ry
     Harris-Foulkes estimate   =  -14608.72730343 Ry
     estimated scf accuracy    <     231.26405296 Ry

     iteration #  4     ecut=    40.00 Ry     beta=0.70
     Davidson diagonalization with overlap
     ethr =  3.73E-03,  avg # of iterations =  3.0

     total cpu time spent up to now is      260.0 secs

     total energy              =  -14575.79511739 Ry
     Harris-Foulkes estimate   =  -14584.66183211 Ry
     estimated scf accuracy    <      31.98290122 Ry

     iteration #  5     ecut=    40.00 Ry     beta=0.70
     Davidson diagonalization with overlap
     ethr =  2.42E-03,  avg # of iterations =  2.0

     total cpu time spent up to now is      278.0 secs

     total energy              =  -14578.46643640 Ry
     Harris-Foulkes estimate   =  -14579.53007371 Ry
     estimated scf accuracy    <       6.97162207 Ry

     iteration #  6     ecut=    40.00 Ry     beta=0.70
     Davidson diagonalization with overlap
     ethr =  5.28E-04,  avg # of iterations =  3.0

     total cpu time spent up to now is      298.9 secs

     total energy              =  -14578.81551843 Ry
     Harris-Foulkes estimate   =  -14579.66053217 Ry
     estimated scf accuracy    <      15.26024269 Ry

     iteration #  7     ecut=    40.00 Ry     beta=0.70
     Davidson diagonalization with overlap
     ethr =  5.28E-04,  avg # of iterations =  6.0

     total cpu time spent up to now is      325.1 secs

     total energy              =  -14578.90448206 Ry
     Harris-Foulkes estimate   =  -14579.43357239 Ry
     estimated scf accuracy    <       3.83907395 Ry

     iteration #  8     ecut=    40.00 Ry     beta=0.70
     Davidson diagonalization with overlap
     ethr =  2.91E-04,  avg # of iterations =  3.0

     total cpu time spent up to now is      344.8 secs

     total energy              =  -14579.03544315 Ry
     Harris-Foulkes estimate   =  -14579.27168265 Ry
     estimated scf accuracy    <       3.83682209 Ry

     iteration #  9     ecut=    40.00 Ry     beta=0.70
     Davidson diagonalization with overlap
     ethr =  2.91E-04,  avg # of iterations =  2.0

     total cpu time spent up to now is      362.6 secs

     total energy              =  -14579.11126678 Ry
     Harris-Foulkes estimate   =  -14579.22337789 Ry
     estimated scf accuracy    <       2.55097607 Ry

     iteration # 10     ecut=    40.00 Ry     beta=0.70
     Davidson diagonalization with overlap
     ethr =  1.93E-04,  avg # of iterations =  1.0

     total cpu time spent up to now is      378.3 secs

     total energy              =  -14579.12287184 Ry
     Harris-Foulkes estimate   =  -14579.17551844 Ry
     estimated scf accuracy    <       1.83259695 Ry

     iteration # 11     ecut=    40.00 Ry     beta=0.70
     Davidson diagonalization with overlap
     ethr =  1.39E-04,  avg # of iterations =  1.0

     total cpu time spent up to now is      394.2 secs

     total energy              =  -14578.35320787 Ry
     Harris-Foulkes estimate   =  -14579.14449830 Ry
     estimated scf accuracy    <       1.68729618 Ry

     iteration # 12     ecut=    40.00 Ry     beta=0.70
     Davidson diagonalization with overlap
     ethr =  1.28E-04,  avg # of iterations = 11.0

     total cpu time spent up to now is      448.2 secs

     total energy              =  -14578.21992063 Ry
     Harris-Foulkes estimate   =  -14579.06288100 Ry
     estimated scf accuracy    <       4.26362265 Ry

     iteration # 13     ecut=    40.00 Ry     beta=0.70
     Davidson diagonalization with overlap
     ethr =  1.28E-04,  avg # of iterations =  5.0

     total cpu time spent up to now is      477.2 secs

     total energy              =  -14578.30192763 Ry
     Harris-Foulkes estimate   =  -14578.93413580 Ry
     estimated scf accuracy    <       3.38177395 Ry

     iteration # 14     ecut=    40.00 Ry     beta=0.70
     Davidson diagonalization with overlap
     ethr =  1.28E-04,  avg # of iterations =  3.0

     total cpu time spent up to now is      498.2 secs

     total energy              =  -14578.42339612 Ry
     Harris-Foulkes estimate   =  -14578.82327580 Ry
     estimated scf accuracy    <       2.69694936 Ry

     iteration # 15     ecut=    40.00 Ry     beta=0.70
     Davidson diagonalization with overlap
     ethr =  1.28E-04,  avg # of iterations =  3.0

     total cpu time spent up to now is      518.5 secs

     total energy              =  -14578.48830616 Ry
     Harris-Foulkes estimate   =  -14578.74540740 Ry
     estimated scf accuracy    <       1.45254818 Ry

     iteration # 16     ecut=    40.00 Ry     beta=0.70
     Davidson diagonalization with overlap
     ethr =  1.10E-04,  avg # of iterations =  4.0

     total cpu time spent up to now is      542.7 secs

     total energy              =  -14577.92946359 Ry
     Harris-Foulkes estimate   =  -14579.19889035 Ry
     estimated scf accuracy    <      22.31825203 Ry

     iteration # 17     ecut=    40.00 Ry     beta=0.70
     Davidson diagonalization with overlap
     ethr =  1.10E-04,  avg # of iterations =  6.0

     total cpu time spent up to now is      572.4 secs

     total energy              =  -14578.12207771 Ry
     Harris-Foulkes estimate   =  -14579.14737416 Ry
     estimated scf accuracy    <      20.94441476 Ry

     iteration # 18     ecut=    40.00 Ry     beta=0.70
     Davidson diagonalization with overlap
     ethr =  1.10E-04,  avg # of iterations =  6.0

     total cpu time spent up to now is      601.3 secs

     total energy              =  -14578.51573662 Ry
     Harris-Foulkes estimate   =  -14578.77425227 Ry
     estimated scf accuracy    <       2.30947841 Ry

     iteration # 19     ecut=    40.00 Ry     beta=0.70
     Davidson diagonalization with overlap
     ethr =  1.10E-04,  avg # of iterations =  3.0

     total cpu time spent up to now is      621.7 secs

     total energy              =  -14578.54483822 Ry
     Harris-Foulkes estimate   =  -14578.76953089 Ry
     estimated scf accuracy    <       3.13692651 Ry

     iteration # 20     ecut=    40.00 Ry     beta=0.70
     Davidson diagonalization with overlap
     ethr =  1.10E-04,  avg # of iterations =  3.0

     total cpu time spent up to now is      641.4 secs

     total energy              =  -14578.64889331 Ry
     Harris-Foulkes estimate   =  -14578.66813273 Ry
     estimated scf accuracy    <       0.09154377 Ry

     iteration # 21     ecut=    40.00 Ry     beta=0.70
     Davidson diagonalization with overlap
     ethr =  6.94E-06,  avg # of iterations =  6.0

     total cpu time spent up to now is      669.9 secs

     total energy              =  -14578.65541587 Ry
     Harris-Foulkes estimate   =  -14578.66055224 Ry
     estimated scf accuracy    <       0.02394140 Ry

     iteration # 22     ecut=    40.00 Ry     beta=0.70
     Davidson diagonalization with overlap
     ethr =  1.81E-06,  avg # of iterations = 16.0

     total cpu time spent up to now is      741.5 secs

     total energy              =  -14578.64973840 Ry
     Harris-Foulkes estimate   =  -14578.66910404 Ry
     estimated scf accuracy    <       0.14085046 Ry

     iteration # 23     ecut=    40.00 Ry     beta=0.70
     Davidson diagonalization with overlap
     ethr =  1.81E-06,  avg # of iterations =  9.0

     negative rho (up, down):  2.333E-07 0.000E+00

     total cpu time spent up to now is      778.8 secs

     total energy              =  -14578.65768959 Ry
     Harris-Foulkes estimate   =  -14578.66078790 Ry
     estimated scf accuracy    <       0.01604097 Ry

     iteration # 24     ecut=    40.00 Ry     beta=0.70
     Davidson diagonalization with overlap
     ethr =  1.22E-06,  avg # of iterations =  4.0

     negative rho (up, down):  4.545E-06 0.000E+00

     total cpu time spent up to now is      801.9 secs

     total energy              =  -14578.65541111 Ry
     Harris-Foulkes estimate   =  -14578.66275627 Ry
     estimated scf accuracy    <       0.05313976 Ry

     iteration # 25     ecut=    40.00 Ry     beta=0.70
     Davidson diagonalization with overlap
     ethr =  1.22E-06,  avg # of iterations =  3.0

     negative rho (up, down):  1.161E-05 0.000E+00

     total cpu time spent up to now is      824.3 secs

     total energy              =  -14578.65242794 Ry
     Harris-Foulkes estimate   =  -14578.66643980 Ry
     estimated scf accuracy    <       0.12010018 Ry

     iteration # 26     ecut=    40.00 Ry     beta=0.70
     Davidson diagonalization with overlap
     ethr =  1.22E-06,  avg # of iterations =  4.0

     negative rho (up, down):  1.597E-05 0.000E+00

     total cpu time spent up to now is      848.9 secs

     total energy              =  -14578.65522784 Ry
     Harris-Foulkes estimate   =  -14578.66290997 Ry
     estimated scf accuracy    <       0.10030633 Ry

     iteration # 27     ecut=    40.00 Ry     beta=0.70
     Davidson diagonalization with overlap
     ethr =  1.22E-06,  avg # of iterations =  5.0

     negative rho (up, down):  3.203E-05 0.000E+00

     total cpu time spent up to now is      875.1 secs

     total energy              =  -14578.65367366 Ry
     Harris-Foulkes estimate   =  -14578.66576284 Ry
     estimated scf accuracy    <       0.24672763 Ry

     iteration # 28     ecut=    40.00 Ry     beta=0.70
     Davidson diagonalization with overlap
     ethr =  1.22E-06,  avg # of iterations =  4.0

     negative rho (up, down):  4.640E-05 0.000E+00

     total cpu time spent up to now is      898.2 secs

     total energy              =  -14578.65925887 Ry
     Harris-Foulkes estimate   =  -14578.66000872 Ry
     estimated scf accuracy    <       0.00526475 Ry

     iteration # 29     ecut=    40.00 Ry     beta=0.70
     Davidson diagonalization with overlap
     ethr =  3.99E-07,  avg # of iterations =  3.0

     negative rho (up, down):  7.976E-05 0.000E+00

     total cpu time spent up to now is      917.9 secs

     total energy              =  -14578.65923618 Ry
     Harris-Foulkes estimate   =  -14578.66010652 Ry
     estimated scf accuracy    <       0.01173942 Ry

     iteration # 30     ecut=    40.00 Ry     beta=0.70
     Davidson diagonalization with overlap
     ethr =  3.99E-07,  avg # of iterations =  2.0

     negative rho (up, down):  4.285E-04 0.000E+00

     total cpu time spent up to now is      935.7 secs

     total energy              =  -14578.65945645 Ry
     Harris-Foulkes estimate   =  -14578.65993713 Ry
     estimated scf accuracy    <       0.00303712 Ry

     iteration # 31     ecut=    40.00 Ry     beta=0.70
     Davidson diagonalization with overlap
     ethr =  2.30E-07,  avg # of iterations =  4.0

     negative rho (up, down):  4.580E-04 0.000E+00

     total cpu time spent up to now is      958.3 secs

     total energy              =  -14578.65914159 Ry
     Harris-Foulkes estimate   =  -14578.66031266 Ry
     estimated scf accuracy    <       0.00905981 Ry

     iteration # 32     ecut=    40.00 Ry     beta=0.70
     Davidson diagonalization with overlap
     ethr =  2.30E-07,  avg # of iterations =  2.0

     negative rho (up, down):  5.692E-04 0.000E+00

     total cpu time spent up to now is      976.4 secs

     total energy              =  -14578.65956462 Ry
     Harris-Foulkes estimate   =  -14578.65982637 Ry
     estimated scf accuracy    <       0.00120551 Ry

     iteration # 33     ecut=    40.00 Ry     beta=0.70
     Davidson diagonalization with overlap
     ethr =  9.13E-08,  avg # of iterations =  3.0

     negative rho (up, down):  6.643E-04 0.000E+00

     total cpu time spent up to now is      997.3 secs

     total energy              =  -14578.65930947 Ry
     Harris-Foulkes estimate   =  -14578.66016326 Ry
     estimated scf accuracy    <       0.00727556 Ry

     iteration # 34     ecut=    40.00 Ry     beta=0.70
     Davidson diagonalization with overlap
     ethr =  9.13E-08,  avg # of iterations =  3.0

     negative rho (up, down):  6.973E-04 0.000E+00

     total cpu time spent up to now is     1018.3 secs

     total energy              =  -14578.65958724 Ry
     Harris-Foulkes estimate   =  -14578.65987774 Ry
     estimated scf accuracy    <       0.00208937 Ry

     iteration # 35     ecut=    40.00 Ry     beta=0.70
     Davidson diagonalization with overlap
     ethr =  9.13E-08,  avg # of iterations =  2.0

     negative rho (up, down):  7.390E-04 0.000E+00

     total cpu time spent up to now is     1036.2 secs

     total energy              =  -14578.65963373 Ry
     Harris-Foulkes estimate   =  -14578.65983267 Ry
     estimated scf accuracy    <       0.00163681 Ry

     iteration # 36     ecut=    40.00 Ry     beta=0.70
     Davidson diagonalization with overlap
     ethr =  9.13E-08,  avg # of iterations =  3.0

     negative rho (up, down):  7.566E-04 0.000E+00

     total cpu time spent up to now is     1056.2 secs

     total energy              =  -14578.65958672 Ry
     Harris-Foulkes estimate   =  -14578.65987848 Ry
     estimated scf accuracy    <       0.00379325 Ry

     iteration # 37     ecut=    40.00 Ry     beta=0.70
     Davidson diagonalization with overlap
     ethr =  9.13E-08,  avg # of iterations =  2.0

     negative rho (up, down):  8.637E-04 0.000E+00

     total cpu time spent up to now is     1074.0 secs

     total energy              =  -14578.65958038 Ry
     Harris-Foulkes estimate   =  -14578.65987201 Ry
     estimated scf accuracy    <       0.00552793 Ry

     iteration # 38     ecut=    40.00 Ry     beta=0.70
     Davidson diagonalization with overlap
     ethr =  9.13E-08,  avg # of iterations =  2.0

     negative rho (up, down):  9.200E-04 0.000E+00

     total cpu time spent up to now is     1092.2 secs

     total energy              =  -14578.65953451 Ry
     Harris-Foulkes estimate   =  -14578.65989529 Ry
     estimated scf accuracy    <       0.00258010 Ry

     iteration # 39     ecut=    40.00 Ry     beta=0.70
     Davidson diagonalization with overlap
     ethr =  9.13E-08,  avg # of iterations =  3.0

     negative rho (up, down):  9.551E-04 0.000E+00

     total cpu time spent up to now is     1112.3 secs

     total energy              =  -14578.65930478 Ry
     Harris-Foulkes estimate   =  -14578.66014769 Ry
     estimated scf accuracy    <       0.01251771 Ry

     iteration # 40     ecut=    40.00 Ry     beta=0.70
     Davidson diagonalization with overlap
     ethr =  9.13E-08,  avg # of iterations =  3.0

     negative rho (up, down):  9.863E-04 0.000E+00

     total cpu time spent up to now is     1132.2 secs

     total energy              =  -14578.65963409 Ry
     Harris-Foulkes estimate   =  -14578.65985029 Ry
     estimated scf accuracy    <       0.00175233 Ry

     iteration # 41     ecut=    40.00 Ry     beta=0.70
     Davidson diagonalization with overlap
     ethr =  9.13E-08,  avg # of iterations =  2.0

     negative rho (up, down):  1.017E-03 0.000E+00

     total cpu time spent up to now is     1150.0 secs

     total energy              =  -14578.65967982 Ry
     Harris-Foulkes estimate   =  -14578.65977677 Ry
     estimated scf accuracy    <       0.00053359 Ry

     iteration # 42     ecut=    40.00 Ry     beta=0.70
     Davidson diagonalization with overlap
     ethr =  4.04E-08,  avg # of iterations =  2.0

     negative rho (up, down):  1.028E-03 0.000E+00

     total cpu time spent up to now is     1168.5 secs

     total energy              =  -14578.65960708 Ry
     Harris-Foulkes estimate   =  -14578.65987348 Ry
     estimated scf accuracy    <       0.00214516 Ry

     iteration # 43     ecut=    40.00 Ry     beta=0.70
     Davidson diagonalization with overlap
     ethr =  4.04E-08,  avg # of iterations =  2.0

     negative rho (up, down):  1.047E-03 0.000E+00

     total cpu time spent up to now is     1186.9 secs

     total energy              =  -14578.65968743 Ry
     Harris-Foulkes estimate   =  -14578.65978170 Ry
     estimated scf accuracy    <       0.00067245 Ry

     iteration # 44     ecut=    40.00 Ry     beta=0.70
     Davidson diagonalization with overlap
     ethr =  4.04E-08,  avg # of iterations =  2.0

     negative rho (up, down):  1.064E-03 0.000E+00

     total cpu time spent up to now is     1205.2 secs

     total energy              =  -14578.65963179 Ry
     Harris-Foulkes estimate   =  -14578.65982862 Ry
     estimated scf accuracy    <       0.00138378 Ry

     iteration # 45     ecut=    40.00 Ry     beta=0.70
     Davidson diagonalization with overlap
     ethr =  4.04E-08,  avg # of iterations =  3.0

     negative rho (up, down):  1.077E-03 0.000E+00

     total cpu time spent up to now is     1225.9 secs

     total energy              =  -14578.65955223 Ry
     Harris-Foulkes estimate   =  -14578.65991798 Ry
     estimated scf accuracy    <       0.00329721 Ry

     iteration # 46     ecut=    40.00 Ry     beta=0.70
     Davidson diagonalization with overlap
     ethr =  4.04E-08,  avg # of iterations =  3.0

     negative rho (up, down):  1.085E-03 0.000E+00

     total cpu time spent up to now is     1246.9 secs

     total energy              =  -14578.65952556 Ry
     Harris-Foulkes estimate   =  -14578.65990802 Ry
     estimated scf accuracy    <       0.00466282 Ry

     iteration # 47     ecut=    40.00 Ry     beta=0.70
     Davidson diagonalization with overlap
     ethr =  4.04E-08,  avg # of iterations =  3.0

     negative rho (up, down):  1.089E-03 0.000E+00

     total cpu time spent up to now is     1267.3 secs

     total energy              =  -14578.65930553 Ry
     Harris-Foulkes estimate   =  -14578.66017883 Ry
     estimated scf accuracy    <       0.01842397 Ry

     iteration # 48     ecut=    40.00 Ry     beta=0.70
     Davidson diagonalization with overlap
     ethr =  4.04E-08,  avg # of iterations =  3.0

     negative rho (up, down):  1.092E-03 0.000E+00

     total cpu time spent up to now is     1287.9 secs

     total energy              =  -14578.65969576 Ry
     Harris-Foulkes estimate   =  -14578.65977898 Ry
     estimated scf accuracy    <       0.00061780 Ry

     iteration # 49     ecut=    40.00 Ry     beta=0.70
     Davidson diagonalization with overlap
     ethr =  4.04E-08,  avg # of iterations =  3.0

     negative rho (up, down):  1.094E-03 0.000E+00

     total cpu time spent up to now is     1307.7 secs

     total energy              =  -14578.65967374 Ry
     Harris-Foulkes estimate   =  -14578.65979834 Ry
     estimated scf accuracy    <       0.00175389 Ry

     iteration # 50     ecut=    40.00 Ry     beta=0.70
     Davidson diagonalization with overlap
     ethr =  4.04E-08,  avg # of iterations =  3.0

     negative rho (up, down):  1.104E-03 0.000E+00

     total cpu time spent up to now is     1327.2 secs

     total energy              =  -14578.65967957 Ry
     Harris-Foulkes estimate   =  -14578.65978731 Ry
     estimated scf accuracy    <       0.00080984 Ry

     iteration # 51     ecut=    40.00 Ry     beta=0.70
     Davidson diagonalization with overlap
     ethr =  4.04E-08,  avg # of iterations =  2.0

     negative rho (up, down):  1.105E-03 0.000E+00

     total cpu time spent up to now is     1345.7 secs

     total energy              =  -14578.65961562 Ry
     Harris-Foulkes estimate   =  -14578.65986446 Ry
     estimated scf accuracy    <       0.00175674 Ry

     iteration # 52     ecut=    40.00 Ry     beta=0.70
     Davidson diagonalization with overlap
     ethr =  4.04E-08,  avg # of iterations =  2.0

     negative rho (up, down):  1.110E-03 0.000E+00

     total cpu time spent up to now is     1364.0 secs

     total energy              =  -14578.65966923 Ry
     Harris-Foulkes estimate   =  -14578.65979270 Ry
     estimated scf accuracy    <       0.00085827 Ry

     iteration # 53     ecut=    40.00 Ry     beta=0.70
     Davidson diagonalization with overlap
     ethr =  4.04E-08,  avg # of iterations =  3.0

     negative rho (up, down):  1.112E-03 0.000E+00

     total cpu time spent up to now is     1384.6 secs

     total energy              =  -14578.65954295 Ry
     Harris-Foulkes estimate   =  -14578.65993432 Ry
     estimated scf accuracy    <       0.00363052 Ry

     iteration # 54     ecut=    40.00 Ry     beta=0.70
     Davidson diagonalization with overlap
     ethr =  4.04E-08,  avg # of iterations =  3.0

     negative rho (up, down):  1.113E-03 0.000E+00

     total cpu time spent up to now is     1405.1 secs

     total energy              =  -14578.65967325 Ry
     Harris-Foulkes estimate   =  -14578.65980283 Ry
     estimated scf accuracy    <       0.00093243 Ry

     iteration # 55     ecut=    40.00 Ry     beta=0.70
     Davidson diagonalization with overlap
     ethr =  4.04E-08,  avg # of iterations =  2.0

     negative rho (up, down):  1.113E-03 0.000E+00

     total cpu time spent up to now is     1423.2 secs

     total energy              =  -14578.65968655 Ry
     Harris-Foulkes estimate   =  -14578.65978990 Ry
     estimated scf accuracy    <       0.00088579 Ry

     iteration # 56     ecut=    40.00 Ry     beta=0.70
     Davidson diagonalization with overlap
     ethr =  4.04E-08,  avg # of iterations =  3.0

     negative rho (up, down):  1.114E-03 0.000E+00

     total cpu time spent up to now is     1443.4 secs

     total energy              =  -14578.65966749 Ry
     Harris-Foulkes estimate   =  -14578.65980854 Ry
     estimated scf accuracy    <       0.00177297 Ry

     iteration # 57     ecut=    40.00 Ry     beta=0.70
     Davidson diagonalization with overlap
     ethr =  4.04E-08,  avg # of iterations =  2.0

     negative rho (up, down):  1.115E-03 0.000E+00

     total cpu time spent up to now is     1461.1 secs

     total energy              =  -14578.65965624 Ry
     Harris-Foulkes estimate   =  -14578.65980967 Ry
     estimated scf accuracy    <       0.00291708 Ry

     iteration # 58     ecut=    40.00 Ry     beta=0.70
     Davidson diagonalization with overlap
     ethr =  4.04E-08,  avg # of iterations =  2.0

     negative rho (up, down):  1.116E-03 0.000E+00

     total cpu time spent up to now is     1479.4 secs

     total energy              =  -14578.65957958 Ry
     Harris-Foulkes estimate   =  -14578.65987386 Ry
     estimated scf accuracy    <       0.00245788 Ry

     iteration # 59     ecut=    40.00 Ry     beta=0.70
     Davidson diagonalization with overlap
     ethr =  4.04E-08,  avg # of iterations =  3.0

     negative rho (up, down):  1.117E-03 0.000E+00

     total cpu time spent up to now is     1499.8 secs

     total energy              =  -14578.65939377 Ry
     Harris-Foulkes estimate   =  -14578.66006284 Ry
     estimated scf accuracy    <       0.00980410 Ry

     iteration # 60     ecut=    40.00 Ry     beta=0.70
     Davidson diagonalization with overlap
     ethr =  4.04E-08,  avg # of iterations =  3.0

     negative rho (up, down):  1.117E-03 0.000E+00

     total cpu time spent up to now is     1519.9 secs

     total energy              =  -14578.65960241 Ry
     Harris-Foulkes estimate   =  -14578.65988085 Ry
     estimated scf accuracy    <       0.00253576 Ry

     iteration # 61     ecut=    40.00 Ry     beta=0.70
     Davidson diagonalization with overlap
     ethr =  4.04E-08,  avg # of iterations =  2.0

     negative rho (up, down):  1.118E-03 0.000E+00

     total cpu time spent up to now is     1538.3 secs

     total energy              =  -14578.65967595 Ry
     Harris-Foulkes estimate   =  -14578.65978561 Ry
     estimated scf accuracy    <       0.00065255 Ry

     iteration # 62     ecut=    40.00 Ry     beta=0.70
     Davidson diagonalization with overlap
     ethr =  4.04E-08,  avg # of iterations =  3.0

     negative rho (up, down):  1.118E-03 0.000E+00

     total cpu time spent up to now is     1558.7 secs

     total energy              =  -14578.65957804 Ry
     Harris-Foulkes estimate   =  -14578.65990817 Ry
     estimated scf accuracy    <       0.00300615 Ry

     iteration # 63     ecut=    40.00 Ry     beta=0.70
     Davidson diagonalization with overlap
     ethr =  4.04E-08,  avg # of iterations =  3.0

     negative rho (up, down):  1.118E-03 0.000E+00

     total cpu time spent up to now is     1579.0 secs

     total energy              =  -14578.65967960 Ry
     Harris-Foulkes estimate   =  -14578.65979027 Ry
     estimated scf accuracy    <       0.00088782 Ry

     iteration # 64     ecut=    40.00 Ry     beta=0.70
     Davidson diagonalization with overlap
     ethr =  4.04E-08,  avg # of iterations =  3.0

     negative rho (up, down):  1.118E-03 0.000E+00

     total cpu time spent up to now is     1599.1 secs

     total energy              =  -14578.65963196 Ry
     Harris-Foulkes estimate   =  -14578.65982866 Ry
     estimated scf accuracy    <       0.00142015 Ry

     iteration # 65     ecut=    40.00 Ry     beta=0.70
     Davidson diagonalization with overlap
     ethr =  4.04E-08,  avg # of iterations =  3.0

     negative rho (up, down):  1.119E-03 0.000E+00

     total cpu time spent up to now is     1619.5 secs

     total energy              =  -14578.65952246 Ry
     Harris-Foulkes estimate   =  -14578.65994044 Ry
     estimated scf accuracy    <       0.00388847 Ry

     iteration # 66     ecut=    40.00 Ry     beta=0.70
     Davidson diagonalization with overlap
     ethr =  4.04E-08,  avg # of iterations =  3.0

     negative rho (up, down):  1.119E-03 0.000E+00

     total cpu time spent up to now is     1641.1 secs

     total energy              =  -14578.65940242 Ry
     Harris-Foulkes estimate   =  -14578.65999945 Ry
     estimated scf accuracy    <       0.00765251 Ry

     iteration # 67     ecut=    40.00 Ry     beta=0.70
     Davidson diagonalization with overlap
     ethr =  4.04E-08,  avg # of iterations =  3.0

     negative rho (up, down):  1.119E-03 0.000E+00

     total cpu time spent up to now is     1662.1 secs

     total energy              =  -14578.65910253 Ry
     Harris-Foulkes estimate   =  -14578.66038003 Ry
     estimated scf accuracy    <       0.02543239 Ry

     iteration # 68     ecut=    40.00 Ry     beta=0.70
     Davidson diagonalization with overlap
     ethr =  4.04E-08,  avg # of iterations =  3.0

     negative rho (up, down):  1.119E-03 0.000E+00

     total cpu time spent up to now is     1683.5 secs

     total energy              =  -14578.65962254 Ry
     Harris-Foulkes estimate   =  -14578.65984808 Ry
     estimated scf accuracy    <       0.00193334 Ry

     iteration # 69     ecut=    40.00 Ry     beta=0.70
     Davidson diagonalization with overlap
     ethr =  4.04E-08,  avg # of iterations =  3.0

     negative rho (up, down):  1.119E-03 0.000E+00

     total cpu time spent up to now is     1703.5 secs

     total energy              =  -14578.65960046 Ry
     Harris-Foulkes estimate   =  -14578.65986674 Ry
     estimated scf accuracy    <       0.00380747 Ry

     iteration # 70     ecut=    40.00 Ry     beta=0.70
     Davidson diagonalization with overlap
     ethr =  4.04E-08,  avg # of iterations =  3.0

     negative rho (up, down):  1.119E-03 0.000E+00

     total cpu time spent up to now is     1723.6 secs

     total energy              =  -14578.65963143 Ry
     Harris-Foulkes estimate   =  -14578.65982627 Ry
     estimated scf accuracy    <       0.00159137 Ry

     iteration # 71     ecut=    40.00 Ry     beta=0.70
     Davidson diagonalization with overlap
     ethr =  4.04E-08,  avg # of iterations =  3.0

     negative rho (up, down):  1.119E-03 0.000E+00

     total cpu time spent up to now is     1745.4 secs

     total energy              =  -14578.65950454 Ry
     Harris-Foulkes estimate   =  -14578.65997727 Ry
     estimated scf accuracy    <       0.00372567 Ry

     iteration # 72     ecut=    40.00 Ry     beta=0.70
     Davidson diagonalization with overlap
     ethr =  4.04E-08,  avg # of iterations =  3.0

     negative rho (up, down):  1.119E-03 0.000E+00

     total cpu time spent up to now is     1766.4 secs

     total energy              =  -14578.65959234 Ry
     Harris-Foulkes estimate   =  -14578.65983693 Ry
     estimated scf accuracy    <       0.00168312 Ry

     iteration # 73     ecut=    40.00 Ry     beta=0.70
     Davidson diagonalization with overlap
     ethr =  4.04E-08,  avg # of iterations =  3.0

     negative rho (up, down):  1.119E-03 0.000E+00

     total cpu time spent up to now is     1791.3 secs

     total energy              =  -14578.65918963 Ry
     Harris-Foulkes estimate   =  -14578.66026867 Ry
     estimated scf accuracy    <       0.01047919 Ry

     iteration # 74     ecut=    40.00 Ry     beta=0.70
     Davidson diagonalization with overlap
     ethr =  4.04E-08,  avg # of iterations =  3.0

     negative rho (up, down):  1.119E-03 0.000E+00

     total cpu time spent up to now is     1817.8 secs

     total energy              =  -14578.65947852 Ry
     Harris-Foulkes estimate   =  -14578.65998755 Ry
     estimated scf accuracy    <       0.00390428 Ry

     iteration # 75     ecut=    40.00 Ry     beta=0.70
     Davidson diagonalization with overlap
     ethr =  4.04E-08,  avg # of iterations =  3.0

     negative rho (up, down):  1.119E-03 0.000E+00

     total cpu time spent up to now is     1839.6 secs

     total energy              =  -14578.65953548 Ry
     Harris-Foulkes estimate   =  -14578.65993057 Ry
     estimated scf accuracy    <       0.00356737 Ry

     iteration # 76     ecut=    40.00 Ry     beta=0.70
     Davidson diagonalization with overlap
     ethr =  4.04E-08,  avg # of iterations =  3.0

     negative rho (up, down):  1.119E-03 0.000E+00

     total cpu time spent up to now is     1860.7 secs

     total energy              =  -14578.65952158 Ry
     Harris-Foulkes estimate   =  -14578.65994136 Ry
     estimated scf accuracy    <       0.00553946 Ry

     iteration # 77     ecut=    40.00 Ry     beta=0.70
     Davidson diagonalization with overlap
     ethr =  4.04E-08,  avg # of iterations =  3.0

     negative rho (up, down):  1.120E-03 0.000E+00

     total cpu time spent up to now is     1880.9 secs

     total energy              =  -14578.65954679 Ry
     Harris-Foulkes estimate   =  -14578.65990351 Ry
     estimated scf accuracy    <       0.00661713 Ry

     iteration # 78     ecut=    40.00 Ry     beta=0.70
     Davidson diagonalization with overlap
     ethr =  4.04E-08,  avg # of iterations =  3.0

     negative rho (up, down):  1.119E-03 0.000E+00

     total cpu time spent up to now is     1902.3 secs

     total energy              =  -14578.65938294 Ry
     Harris-Foulkes estimate   =  -14578.66003503 Ry
     estimated scf accuracy    <       0.00576471 Ry

     iteration # 79     ecut=    40.00 Ry     beta=0.70
     Davidson diagonalization with overlap
     ethr =  4.04E-08,  avg # of iterations =  3.0

     negative rho (up, down):  1.119E-03 0.000E+00

     total cpu time spent up to now is     1925.9 secs

     total energy              =  -14578.65888567 Ry
     Harris-Foulkes estimate   =  -14578.66050755 Ry
     estimated scf accuracy    <       0.02346239 Ry

     iteration # 80     ecut=    40.00 Ry     beta=0.70
     Davidson diagonalization with overlap
     ethr =  4.04E-08,  avg # of iterations =  3.0

     negative rho (up, down):  1.119E-03 0.000E+00

     total cpu time spent up to now is     1951.3 secs

     total energy              =  -14578.65922476 Ry
     Harris-Foulkes estimate   =  -14578.66026199 Ry
     estimated scf accuracy    <       0.00975444 Ry

     iteration # 81     ecut=    40.00 Ry     beta=0.70
     Davidson diagonalization with overlap
     ethr =  4.04E-08,  avg # of iterations =  3.0

     negative rho (up, down):  1.119E-03 0.000E+00

     total cpu time spent up to now is     1980.0 secs

     total energy              =  -14578.65943655 Ry
     Harris-Foulkes estimate   =  -14578.65995973 Ry
     estimated scf accuracy    <       0.00351055 Ry

     iteration # 82     ecut=    40.00 Ry     beta=0.70
     Davidson diagonalization with overlap
     ethr =  4.04E-08,  avg # of iterations =  3.0

     negative rho (up, down):  1.119E-03 0.000E+00

     total cpu time spent up to now is     2010.0 secs

     total energy              =  -14578.65888648 Ry
     Harris-Foulkes estimate   =  -14578.66061585 Ry
     estimated scf accuracy    <       0.01671764 Ry

     iteration # 83     ecut=    40.00 Ry     beta=0.70
     Davidson diagonalization with overlap
     ethr =  4.04E-08,  avg # of iterations =  3.0

     negative rho (up, down):  1.119E-03 0.000E+00

     total cpu time spent up to now is     2038.6 secs

     total energy              =  -14578.65951649 Ry
     Harris-Foulkes estimate   =  -14578.65993188 Ry
     estimated scf accuracy    <       0.00357325 Ry

     iteration # 84     ecut=    40.00 Ry     beta=0.70
     Davidson diagonalization with overlap
     ethr =  4.04E-08,  avg # of iterations =  3.0

     negative rho (up, down):  1.119E-03 0.000E+00

     total cpu time spent up to now is     2060.8 secs

     total energy              =  -14578.65944794 Ry
     Harris-Foulkes estimate   =  -14578.65997568 Ry
     estimated scf accuracy    <       0.00381342 Ry

     iteration # 85     ecut=    40.00 Ry     beta=0.70
     Davidson diagonalization with overlap
     ethr =  4.04E-08,  avg # of iterations =  3.0

     negative rho (up, down):  1.119E-03 0.000E+00

     total cpu time spent up to now is     2087.6 secs

     total energy              =  -14578.65911535 Ry
     Harris-Foulkes estimate   =  -14578.66030128 Ry
     estimated scf accuracy    <       0.01127700 Ry

     iteration # 86     ecut=    40.00 Ry     beta=0.70
     Davidson diagonalization with overlap
     ethr =  4.04E-08,  avg # of iterations =  3.0

     negative rho (up, down):  1.119E-03 0.000E+00

     total cpu time spent up to now is     2118.0 secs

     total energy              =  -14578.65844366 Ry
     Harris-Foulkes estimate   =  -14578.66073592 Ry
     estimated scf accuracy    <       0.03198490 Ry

     iteration # 87     ecut=    40.00 Ry     beta=0.70
     Davidson diagonalization with overlap
     ethr =  4.04E-08,  avg # of iterations =  3.0

     negative rho (up, down):  1.120E-03 0.000E+00

     total cpu time spent up to now is     2147.6 secs

     total energy              =  -14578.65749293 Ry
     Harris-Foulkes estimate   =  -14578.66195478 Ry
     estimated scf accuracy    <       0.08161436 Ry

     iteration # 88     ecut=    40.00 Ry     beta=0.70
     Davidson diagonalization with overlap
     ethr =  4.04E-08,  avg # of iterations =  3.0

     negative rho (up, down):  1.119E-03 0.000E+00

     total cpu time spent up to now is     2180.6 secs

     total energy              =  -14578.65896711 Ry
     Harris-Foulkes estimate   =  -14578.66045829 Ry
     estimated scf accuracy    <       0.01356246 Ry

     iteration # 89     ecut=    40.00 Ry     beta=0.70
     Davidson diagonalization with overlap
     ethr =  4.04E-08,  avg # of iterations =  3.0

     negative rho (up, down):  1.119E-03 0.000E+00

     total cpu time spent up to now is     2209.4 secs

     total energy              =  -14578.65893615 Ry
     Harris-Foulkes estimate   =  -14578.66048749 Ry
     estimated scf accuracy    <       0.02274234 Ry

     iteration # 90     ecut=    40.00 Ry     beta=0.70
     Davidson diagonalization with overlap
     ethr =  4.04E-08,  avg # of iterations =  3.0

     negative rho (up, down):  1.119E-03 0.000E+00

     total cpu time spent up to now is     2232.1 secs

     total energy              =  -14578.65930206 Ry
     Harris-Foulkes estimate   =  -14578.66008510 Ry
     estimated scf accuracy    <       0.00643560 Ry

     iteration # 91     ecut=    40.00 Ry     beta=0.70
     Davidson diagonalization with overlap
     ethr =  4.04E-08,  avg # of iterations =  3.0

     negative rho (up, down):  1.119E-03 0.000E+00

     total cpu time spent up to now is     2263.9 secs

     total energy              =  -14578.65883167 Ry
     Harris-Foulkes estimate   =  -14578.66067045 Ry
     estimated scf accuracy    <       0.01531574 Ry

     iteration # 92     ecut=    40.00 Ry     beta=0.70
     Davidson diagonalization with overlap
     ethr =  4.04E-08,  avg # of iterations =  3.0

     negative rho (up, down):  1.119E-03 0.000E+00

     total cpu time spent up to now is     2295.2 secs

     total energy              =  -14578.65921674 Ry
     Harris-Foulkes estimate   =  -14578.66006887 Ry
     estimated scf accuracy    <       0.00618689 Ry

     iteration # 93     ecut=    40.00 Ry     beta=0.70
     Davidson diagonalization with overlap
     ethr =  4.04E-08,  avg # of iterations =  3.0

     negative rho (up, down):  1.120E-03 0.000E+00

     total cpu time spent up to now is     2327.6 secs

     total energy              =  -14578.65751160 Ry
     Harris-Foulkes estimate   =  -14578.66180008 Ry
     estimated scf accuracy    <       0.04322344 Ry

     iteration # 94     ecut=    40.00 Ry     beta=0.70
     Davidson diagonalization with overlap
     ethr =  4.04E-08,  avg # of iterations =  3.0

     negative rho (up, down):  1.119E-03 0.000E+00

     total cpu time spent up to now is     2362.5 secs

     total energy              =  -14578.65819771 Ry
     Harris-Foulkes estimate   =  -14578.66115308 Ry
     estimated scf accuracy    <       0.02339859 Ry

     iteration # 95     ecut=    40.00 Ry     beta=0.70
     Davidson diagonalization with overlap
     ethr =  4.04E-08,  avg # of iterations =  4.0

     negative rho (up, down):  1.119E-03 0.000E+00

     total cpu time spent up to now is     2400.9 secs

     total energy              =  -14578.65836527 Ry
     Harris-Foulkes estimate   =  -14578.66103091 Ry
     estimated scf accuracy    <       0.02444630 Ry

     iteration # 96     ecut=    40.00 Ry     beta=0.70
     Davidson diagonalization with overlap
     ethr =  4.04E-08,  avg # of iterations =  4.0

     negative rho (up, down):  1.119E-03 0.000E+00

     total cpu time spent up to now is     2438.3 secs

     total energy              =  -14578.65838721 Ry
     Harris-Foulkes estimate   =  -14578.66098962 Ry
     estimated scf accuracy    <       0.03689878 Ry

     iteration # 97     ecut=    40.00 Ry     beta=0.70
     Davidson diagonalization with overlap
     ethr =  4.04E-08,  avg # of iterations =  3.0

     negative rho (up, down):  1.120E-03 0.000E+00

     total cpu time spent up to now is     2464.5 secs

     total energy              =  -14578.65882536 Ry
     Harris-Foulkes estimate   =  -14578.66056432 Ry
     estimated scf accuracy    <       0.03113740 Ry

     iteration # 98     ecut=    40.00 Ry     beta=0.70
     Davidson diagonalization with overlap
     ethr =  4.04E-08,  avg # of iterations =  3.0

     negative rho (up, down):  1.120E-03 0.000E+00

     total cpu time spent up to now is     2496.3 secs

     total energy              =  -14578.65851931 Ry
     Harris-Foulkes estimate   =  -14578.66076632 Ry
     estimated scf accuracy    <       0.02046791 Ry

     iteration # 99     ecut=    40.00 Ry     beta=0.70
     Davidson diagonalization with overlap
     ethr =  4.04E-08,  avg # of iterations =  4.0

     negative rho (up, down):  1.120E-03 0.000E+00

     total cpu time spent up to now is     2534.1 secs

     total energy              =  -14578.65677627 Ry
     Harris-Foulkes estimate   =  -14578.66233434 Ry
     estimated scf accuracy    <       0.08082919 Ry

     iteration #100     ecut=    40.00 Ry     beta=0.70
     Davidson diagonalization with overlap
     ethr =  4.04E-08,  avg # of iterations =  4.0

     negative rho (up, down):  1.120E-03 0.000E+00

     total cpu time spent up to now is     2573.1 secs

     total energy              =  -14578.65745419 Ry
     Harris-Foulkes estimate   =  -14578.66201211 Ry
     estimated scf accuracy    <       0.04316279 Ry

     End of self-consistent calculation

     convergence NOT achieved after 100 iterations: stopping

     Writing output data file copper.save
 
     init_run     :      9.34s CPU     10.84s WALL (       1 calls)
     electrons    :   2448.97s CPU   2562.18s WALL (       1 calls)

     Called by init_run:
     wfcinit      :      7.54s CPU      8.23s WALL (       1 calls)
     potinit      :      0.11s CPU      0.13s WALL (       1 calls)

     Called by electrons:
     c_bands      :   2265.51s CPU   2363.34s WALL (     100 calls)
     sum_band     :    169.43s CPU    179.90s WALL (     100 calls)
     v_of_rho     :      3.50s CPU      4.33s WALL (     101 calls)
     newd         :      8.52s CPU     11.71s WALL (     101 calls)
     mix_rho      :      1.31s CPU      1.78s WALL (     100 calls)

     Called by c_bands:
     init_us_2    :      3.31s CPU      3.55s WALL (     201 calls)
     cegterg      :   2249.87s CPU   2345.97s WALL (     100 calls)

     Called by sum_band:
     sum_band:bec :      3.46s CPU      4.06s WALL (     100 calls)
     addusdens    :      8.68s CPU     11.91s WALL (     100 calls)

     Called by *egterg:
     h_psi        :    713.26s CPU    735.54s WALL (     450 calls)
     s_psi        :    193.37s CPU    199.06s WALL (     450 calls)
     g_psi        :      1.45s CPU      1.47s WALL (     349 calls)
     cdiaghg      :    869.72s CPU    907.29s WALL (     449 calls)

     Called by h_psi:
     add_vuspsi   :    191.84s CPU    197.91s WALL (     450 calls)

     General routines
     calbec       :    309.22s CPU    315.45s WALL (     550 calls)
     fft          :      4.86s CPU      5.54s WALL (    1614 calls)
     ffts         :      0.51s CPU      0.57s WALL (     201 calls)
     fftw         :    347.90s CPU    361.81s WALL (  456208 calls)
     interpolate  :      1.00s CPU      1.28s WALL (     201 calls)
     davcio       :      0.01s CPU      0.15s WALL (      19 calls)
 
     Parallel routines
     fft_scatter  :    249.53s CPU    253.15s WALL (  458023 calls)
 
     PWSCF        : 40m59.13s CPU    42m54.36s WALL

 
   This run was terminated on:   7:26:44   6Nov2016            

=------------------------------------------------------------------------------=
   JOB DONE.
=------------------------------------------------------------------------------=
-------------------------------------------------------
Primary job  terminated normally, but 1 process returned
a non-zero exit code.. Per user-direction, the job has been aborted.
-------------------------------------------------------
------------------------------------------------------------
A process or daemon was unable to complete a TCP connection
to another process:
  Local host:    r744
  Remote host:   r744
This is usually caused by a firewall on the remote host. Please
check that any firewall (e.g., iptables) has been disabled and
try again.
------------------------------------------------------------
------------------------------------------------------------
A process or daemon was unable to complete a TCP connection
to another process:
  Local host:    r744
  Remote host:   r744
This is usually caused by a firewall on the remote host. Please
check that any firewall (e.g., iptables) has been disabled and
try again.
------------------------------------------------------------
------------------------------------------------------------
A process or daemon was unable to complete a TCP connection
to another process:
  Local host:    r744
  Remote host:   r744
This is usually caused by a firewall on the remote host. Please
check that any firewall (e.g., iptables) has been disabled and
try again.
------------------------------------------------------------
------------------------------------------------------------
A process or daemon was unable to complete a TCP connection
to another process:
  Local host:    r744
  Remote host:   r744
This is usually caused by a firewall on the remote host. Please
check that any firewall (e.g., iptables) has been disabled and
try again.
------------------------------------------------------------
------------------------------------------------------------
A process or daemon was unable to complete a TCP connection
to another process:
  Local host:    r744
  Remote host:   r744
This is usually caused by a firewall on the remote host. Please
check that any firewall (e.g., iptables) has been disabled and
try again.
------------------------------------------------------------
------------------------------------------------------------
A process or daemon was unable to complete a TCP connection
to another process:
  Local host:    r744
  Remote host:   r744
This is usually caused by a firewall on the remote host. Please
check that any firewall (e.g., iptables) has been disabled and
try again.
------------------------------------------------------------
------------------------------------------------------------
A process or daemon was unable to complete a TCP connection
to another process:
  Local host:    r744
  Remote host:   r744
This is usually caused by a firewall on the remote host. Please
check that any firewall (e.g., iptables) has been disabled and
try again.
------------------------------------------------------------
------------------------------------------------------------
A process or daemon was unable to complete a TCP connection
to another process:
  Local host:    r744
  Remote host:   r744
This is usually caused by a firewall on the remote host. Please
check that any firewall (e.g., iptables) has been disabled and
try again.
------------------------------------------------------------
------------------------------------------------------------
A process or daemon was unable to complete a TCP connection
to another process:
  Local host:    r744
  Remote host:   r744
This is usually caused by a firewall on the remote host. Please
check that any firewall (e.g., iptables) has been disabled and
try again.
------------------------------------------------------------
------------------------------------------------------------
A process or daemon was unable to complete a TCP connection
to another process:
  Local host:    r744
  Remote host:   r744
This is usually caused by a firewall on the remote host. Please
check that any firewall (e.g., iptables) has been disabled and
try again.
------------------------------------------------------------
------------------------------------------------------------
A process or daemon was unable to complete a TCP connection
to another process:
  Local host:    r744
  Remote host:   r744
This is usually caused by a firewall on the remote host. Please
check that any firewall (e.g., iptables) has been disabled and
try again.
------------------------------------------------------------
------------------------------------------------------------
A process or daemon was unable to complete a TCP connection
to another process:
  Local host:    r744
  Remote host:   r744
This is usually caused by a firewall on the remote host. Please
check that any firewall (e.g., iptables) has been disabled and
try again.
------------------------------------------------------------
------------------------------------------------------------
A process or daemon was unable to complete a TCP connection
to another process:
  Local host:    r744
  Remote host:   r744
This is usually caused by a firewall on the remote host. Please
check that any firewall (e.g., iptables) has been disabled and
try again.
------------------------------------------------------------
------------------------------------------------------------
A process or daemon was unable to complete a TCP connection
to another process:
  Local host:    r744
  Remote host:   r744
This is usually caused by a firewall on the remote host. Please
check that any firewall (e.g., iptables) has been disabled and
try again.
------------------------------------------------------------
------------------------------------------------------------
A process or daemon was unable to complete a TCP connection
to another process:
  Local host:    r744
  Remote host:   r744
This is usually caused by a firewall on the remote host. Please
check that any firewall (e.g., iptables) has been disabled and
try again.
------------------------------------------------------------
--------------------------------------------------------------------------
mpirun detected that one or more processes exited with non-zero status, thus causing
the job to be terminated. The first process to do so was:

  Process name: [[7394,1],19]
  Exit code:    2
--------------------------------------------------------------------------
