
     Program PWSCF v.5.4.0 starts on  1May2017 at  8:48:20 

     This program is part of the open-source Quantum ESPRESSO suite
     for quantum simulation of materials; please cite
         "P. Giannozzi et al., J. Phys.:Condens. Matter 21 395502 (2009);
          URL http://www.quantum-espresso.org", 
     in publications or presentations arising from this work. More details at
     http://www.quantum-espresso.org/quote

     Parallel version (MPI & OpenMP), running on      56 processor cores
     Number of MPI processes:                56
     Threads/MPI process:                     1
     R & G space division:  proc/nbgrp/npool/nimage =      56
     Waiting for input...
     Reading input from standard input
Warning: card &IONS ignored
Warning: card / ignored

     Current dimensions of program PWSCF are:
     Max number of different atomic species (ntypx) = 10
     Max number of k-points (npk) =  40000
     Max angular momentum in pseudopotentials (lmaxx) =  3
     WARNING: atomic wfc #  2 for atom type 4 has zero norm
     WARNING: atomic wfc #  4 for atom type 4 has zero norm
     WARNING: atomic wfc #  5 for atom type 4 has zero norm

     -------------------------------------
     Parameters for Dispersion Correction:
     -------------------------------------
       atom      VdW radius       C_6     

        Cu         2.952        374.666
        C_h        2.744         60.710
        C          2.744         60.710
        O          2.536         24.284
        H          1.892          4.857

     Subspace diagonalization in iterative solution of the eigenvalue problem:
     one sub-group per band group will be used
     scalapack distributed-memory algorithm (size of sub-group:  5*  5 procs)

 
     Parallelization info
     --------------------
     sticks:   dense  smooth     PW     G-vecs:    dense   smooth      PW
     Min         204     204     54                36612    36612    4962
     Max         205     205     55                36617    36617    4968
     Sum       11433   11433   3039              2050409  2050409  278033
 


     bravais-lattice index     =            0
     lattice parameter (alat)  =      13.9425  a.u.
     unit-cell volume          =   21209.0878 (a.u.)^3
     number of atoms/cell      =          150
     number of atomic types    =            5
     number of electrons       =      1299.00
     number of Kohn-Sham states=          780
     kinetic-energy cutoff     =      80.0000  Ry
     charge density cutoff     =     320.0000  Ry
     convergence threshold     =      1.0E-08
     mixing beta               =       0.7000
     number of iterations used =            8  local-TF  mixing
     Exchange-correlation      =  SLA  PW   PBE  PBE ( 1  4  3  4 0 0)

     celldm(1)=  13.942539  celldm(2)=   0.000000  celldm(3)=   0.000000
     celldm(4)=   0.000000  celldm(5)=   0.000000  celldm(6)=   0.000000

     crystal axes: (cart. coord. in units of alat)
               a(1) = (   1.000000   0.000000   0.000000 )  
               a(2) = (   0.000000   2.309401   0.000000 )  
               a(3) = (   0.000000   0.000000   3.388418 )  

     reciprocal axes: (cart. coord. in units 2 pi/alat)
               b(1) = (  1.000000  0.000000  0.000000 )  
               b(2) = (  0.000000  0.433013  0.000000 )  
               b(3) = (  0.000000  0.000000  0.295123 )  


     PseudoPot. # 1 for Cu read from file:
     /home/549/hxw549/Short/pseudopotentials/Cu.pbe-n-van_ak.UPF
     MD5 check sum: 601f7c30f7467666bec936e0661ce3e1
     Pseudo is Ultrasoft + core correction, Zval = 11.0
     Generated by new atomic code, or converted to UPF format
     Using radial grid of  867 points,  6 beta functions with: 
                l(1) =   0
                l(2) =   0
                l(3) =   1
                l(4) =   1
                l(5) =   2
                l(6) =   2
     Q(r) pseudized with  8 coefficients,  rinner =    1.400   1.400   1.400
                                                       1.400   1.400

     PseudoPot. # 2 for C  read from file:
     /home/549/hxw549/Short/pseudopotentials/C.star1s-pbe-mt_gipaw.UPF
     MD5 check sum: ef0cb3dee31bd9e4ba2a832a2c716264
     Pseudo is Norm-conserving, Zval =  5.0
     Generated by new atomic code, or converted to UPF format
     Using radial grid of 1073 points,  1 beta functions with: 
                l(1) =   0

     PseudoPot. # 3 for C  read from file:
     /home/549/hxw549/Short/pseudopotentials/C.pbe-mt_gipaw.UPF
     MD5 check sum: 5ac2f21f2c440b14befe521540822c15
     Pseudo is Norm-conserving, Zval =  4.0
     Generated by new atomic code, or converted to UPF format
     Using radial grid of 1073 points,  1 beta functions with: 
                l(1) =   0

     PseudoPot. # 4 for O  read from file:
     /home/549/hxw549/Short/pseudopotentials/O.pbe-van_gipaw.UPF
     MD5 check sum: 5ce2a047509d4f331db576c963e74b29
     Pseudo is Ultrasoft, Zval =  6.0
     Generated by new atomic code, or converted to UPF format
     Using radial grid of 1095 points,  4 beta functions with: 
                l(1) =   0
                l(2) =   0
                l(3) =   1
                l(4) =   1
     Q(r) pseudized with 0 coefficients 


     PseudoPot. # 5 for H  read from file:
     /home/549/hxw549/Short/pseudopotentials/H.pbe-van_ak.UPF
     MD5 check sum: 077eb6d537518a38cb46c6de387227b7
     Pseudo is Ultrasoft, Zval =  1.0
     Generated by new atomic code, or converted to UPF format
     Using radial grid of  615 points,  1 beta functions with: 
                l(1) =   0
     Q(r) pseudized with  8 coefficients,  rinner =    0.800

     atomic species   valence    mass     pseudopotential
        Cu            11.00    63.54600     Cu( 1.00)
        C_h            5.00    12.01070     C ( 1.00)
        C              4.00    12.01070     C ( 1.00)
        O              6.00    15.99940     O ( 1.00)
        H              1.00     1.00783     H ( 1.00)

     No symmetry found



   Cartesian axes

     site n.     atom                  positions (alat units)
         1           Cu  tau(   1) = (   0.0001245  -0.0000826   0.9988218  )
         2           Cu  tau(   2) = (   0.2500938   0.2314176   0.9990096  )
         3           Cu  tau(   3) = (   0.5001173  -0.0000058   0.9988529  )
         4           Cu  tau(   4) = (   0.7501395   0.2314030   0.9990145  )
         5           Cu  tau(   5) = (   0.0001084   0.4623982   0.9990014  )
         6           Cu  tau(   6) = (   0.2500996   0.6930296   0.9986014  )
         7           Cu  tau(   7) = (   0.5001153   0.4623455   0.9989299  )
         8           Cu  tau(   8) = (   0.7501160   0.6930324   0.9986271  )
         9           Cu  tau(   9) = (   0.0001014   0.9236418   0.9982855  )
        10           Cu  tau(  10) = (   0.2501147   1.1542168   0.9983814  )
        11           Cu  tau(  11) = (   0.5001117   0.9236304   0.9982944  )
        12           Cu  tau(  12) = (   0.7501039   1.1542195   0.9984058  )
        13           Cu  tau(  13) = (   0.0001174   1.3846774   0.9987949  )
        14           Cu  tau(  14) = (   0.2501320   1.6151893   0.9991574  )
        15           Cu  tau(  15) = (   0.5001135   1.3847053   0.9988816  )
        16           Cu  tau(  16) = (   0.7501109   1.6151916   0.9991584  )
        17           Cu  tau(  17) = (   0.0001234   1.8461159   0.9990217  )
        18           Cu  tau(  18) = (   0.2501546   2.0775871   0.9988237  )
        19           Cu  tau(  19) = (   0.5001274   1.8460599   0.9990951  )
        20           Cu  tau(  20) = (   0.7500965   2.0775910   0.9988200  )
        21           Cu  tau(  21) = (   0.0001202   0.2312798   1.2470500  )
        22           Cu  tau(  22) = (   0.2501266  -0.0002279   1.2465469  )
        23           Cu  tau(  23) = (   0.5001277   0.2314108   1.2471161  )
        24           Cu  tau(  24) = (   0.7501288  -0.0002220   1.2465597  )
        25           Cu  tau(  25) = (   0.0001151   0.6935290   1.2473932  )
        26           Cu  tau(  26) = (   0.2501287   0.4626528   1.2474123  )
        27           Cu  tau(  27) = (   0.5001061   0.6934427   1.2472910  )
        28           Cu  tau(  28) = (   0.7501074   0.4626399   1.2474111  )
        29           Cu  tau(  29) = (   0.0001084   1.1539136   1.2473399  )
        30           Cu  tau(  30) = (   0.2501012   0.9238036   1.2471593  )
        31           Cu  tau(  31) = (   0.5001013   1.1538543   1.2473491  )
        32           Cu  tau(  32) = (   0.7501099   0.9238066   1.2471850  )
        33           Cu  tau(  33) = (   0.0001167   1.6149989   1.2475846  )
        34           Cu  tau(  34) = (   0.2501326   1.3841796   1.2477159  )
        35           Cu  tau(  35) = (   0.5001188   1.6149564   1.2478131  )
        36           Cu  tau(  36) = (   0.7500895   1.3841885   1.2477151  )
        37           Cu  tau(  37) = (   0.0001271   2.0775972   1.2465320  )
        38           Cu  tau(  38) = (   0.2501315   1.8461849   1.2471166  )
        39           Cu  tau(  39) = (   0.5001280   2.0776237   1.2465139  )
        40           Cu  tau(  40) = (   0.7501148   1.8461863   1.2471266  )
        41           Cu  tau(  41) = (   0.0001445  -0.0006156   1.4955938  )
        42           Cu  tau(  42) = (   0.2502310   0.2310698   1.4959482  )
        43           Cu  tau(  43) = (   0.5001493  -0.0005590   1.4954827  )
        44           Cu  tau(  44) = (   0.7500683   0.2310823   1.4959770  )
        45           Cu  tau(  45) = (   0.0001477   0.4627820   1.4965127  )
        46           Cu  tau(  46) = (   0.2501959   0.6939405   1.4973920  )
        47           Cu  tau(  47) = (   0.5001361   0.4630119   1.4969365  )
        48           Cu  tau(  48) = (   0.7500498   0.6939105   1.4973597  )
        49           Cu  tau(  49) = (   0.0001172   0.9239760   1.4978786  )
        50           Cu  tau(  50) = (   0.2501356   1.1533840   1.4980140  )
        51           Cu  tau(  51) = (   0.5000943   0.9237421   1.4979268  )
        52           Cu  tau(  52) = (   0.7500538   1.1534069   1.4980069  )
        53           Cu  tau(  53) = (   0.0001221   1.3838026   1.4975986  )
        54           Cu  tau(  54) = (   0.2501153   1.6149224   1.4970014  )
        55           Cu  tau(  55) = (   0.5000799   1.3834740   1.4978333  )
        56           Cu  tau(  56) = (   0.7501127   1.6149262   1.4969900  )
        57           Cu  tau(  57) = (   0.0001221   1.8463794   1.4962334  )
        58           Cu  tau(  58) = (   0.2501019   2.0776874   1.4957066  )
        59           Cu  tau(  59) = (   0.5001306   1.8466273   1.4962760  )
        60           Cu  tau(  60) = (   0.7501736   2.0777007   1.4957081  )
        61           Cu  tau(  61) = (   0.0001877   0.2307204   1.7437967  )
        62           Cu  tau(  62) = (   0.2503039  -0.0006554   1.7445778  )
        63           Cu  tau(  63) = (   0.5002047   0.2303883   1.7444964  )
        64           Cu  tau(  64) = (   0.7500508  -0.0006592   1.7445863  )
        65           Cu  tau(  65) = (   0.0001583   0.6934185   1.7468389  )
        66           Cu  tau(  66) = (   0.2506893   0.4624440   1.7452056  )
        67           Cu  tau(  67) = (   0.5001176   0.6942243   1.7485449  )
        68           Cu  tau(  68) = (   0.7496652   0.4624273   1.7452031  )
        69           Cu  tau(  69) = (   0.0001299   1.1535338   1.7489496  )
        70           Cu  tau(  70) = (   0.2504239   0.9236840   1.7494033  )
        71           Cu  tau(  71) = (   0.5000018   1.1525281   1.7494846  )
        72           Cu  tau(  72) = (   0.7497671   0.9236424   1.7492460  )
        73           Cu  tau(  73) = (   0.0000959   1.6153152   1.7458903  )
        74           Cu  tau(  74) = (   0.2499655   1.3836501   1.7471829  )
        75           Cu  tau(  75) = (   0.5000948   1.6154555   1.7450638  )
        76           Cu  tau(  76) = (   0.7501675   1.3837404   1.7470565  )
        77           Cu  tau(  77) = (   0.0001502   2.0777109   1.7452132  )
        78           Cu  tau(  78) = (   0.2498626   1.8469152   1.7451107  )
        79           Cu  tau(  79) = (   0.5001500   2.0781372   1.7451778  )
        80           Cu  tau(  80) = (   0.7503810   1.8469217   1.7450945  )
        81           Cu  tau(  81) = (   0.0001880   0.0003626   1.9899128  )
        82           Cu  tau(  82) = (   0.2503775   0.2304741   1.9897845  )
        83           Cu  tau(  83) = (   0.5002389  -0.0001885   1.9919196  )
        84           Cu  tau(  84) = (   0.7501085   0.2303538   1.9899076  )
        85           Cu  tau(  85) = (   0.0001181   0.4607861   1.9891263  )
        86           Cu  tau(  86) = (   0.2515884   0.6912907   1.9935706  )
        87           Cu  tau(  87) = (   0.5002967   0.4596433   1.9920148  )
        88           Cu  tau(  88) = (   0.7487114   0.6913794   1.9935335  )
        89           Cu  tau(  89) = (   0.0000524   0.9220011   1.9948133  )
        90           Cu  tau(  90) = (   0.2501823   1.1545063   1.9966562  )
        91           Cu  tau(  91) = (   0.5000607   0.9238338   2.0023449  )
        92           Cu  tau(  92) = (   0.7498735   1.1544752   1.9961815  )
        93           Cu  tau(  93) = (  -0.0001053   1.3854653   1.9942316  )
        94           Cu  tau(  94) = (   0.2494940   1.6161283   1.9907123  )
        95           Cu  tau(  95) = (   0.5001117   1.3861732   1.9920235  )
        96           Cu  tau(  96) = (   0.7506231   1.6162460   1.9908327  )
        97           Cu  tau(  97) = (   0.0001162   1.8470478   1.9922548  )
        98           Cu  tau(  98) = (   0.2501982   2.0781576   1.9909844  )
        99           Cu  tau(  99) = (   0.5000966   1.8464318   1.9900467  )
       100           Cu  tau( 100) = (   0.7501237   2.0781271   1.9910173  )
       101           C   tau( 101) = (  -0.0003217   0.0971383   2.3876014  )
       102           C   tau( 102) = (  -0.0001420   0.2894172   2.3859160  )
       103           C   tau( 103) = (   0.1662576   0.0009591   2.3862245  )
       104           C   tau( 104) = (   0.1662773   0.3856249   2.3821414  )
       105           C   tau( 105) = (   0.3327997   0.0971057   2.3843535  )
       106           C   tau( 106) = (   0.3328840   0.2894230   2.3820496  )
       107           C   tau( 107) = (   0.4995919   0.0007445   2.3845572  )
       108           C   tau( 108) = (   0.4997492   0.3861055   2.3809669  )
       109           C   tau( 109) = (   0.6664438   0.0971153   2.3856348  )
       110           C   tau( 110) = (   0.6665990   0.2893991   2.3831185  )
       111           C   tau( 111) = (   0.8329667   0.0009821   2.3869627  )
       112           C   tau( 112) = (   0.8333321   0.3854712   2.3826497  )
       113           C   tau( 113) = (  -0.0002725   0.6741827   2.3779647  )
       114           C   tau( 114) = (  -0.0000973   0.8665586   2.3758157  )
       115           C   tau( 115) = (   0.1661022   0.5779345   2.3783235  )
       116           C   tau( 116) = (   0.1671232   0.9624978   2.3835632  )
       117           C   tau( 117) = (   0.3326950   0.6749417   2.3810696  )
       118           C   tau( 118) = (   0.3310986   0.8656224   2.3892963  )
       119           C_h tau( 119) = (   0.4996363   0.5779250   2.3820222  )
       120           C   tau( 120) = (   0.4996762   0.9618746   2.4439267  )
       121           O   tau( 121) = (   0.4912753   0.9532910   2.6499196  )
       122           H   tau( 122) = (   0.6130058   0.9845079   2.6945064  )
       123           C   tau( 123) = (   0.6667148   0.6746003   2.3810921  )
       124           C   tau( 124) = (   0.6682846   0.8654468   2.3894120  )
       125           C   tau( 125) = (   0.8333502   0.5777349   2.3786748  )
       126           C   tau( 126) = (   0.8325925   0.9624364   2.3836418  )
       127           C   tau( 127) = (  -0.0002104   1.2512703   2.3858857  )
       128           C   tau( 128) = (  -0.0001778   1.4441849   2.3823907  )
       129           C   tau( 129) = (   0.1664529   1.1555908   2.3873834  )
       130           C   tau( 130) = (   0.1666527   1.5405023   2.3817303  )
       131           C   tau( 131) = (   0.3338444   1.2519409   2.3889129  )
       132           C   tau( 132) = (   0.3333805   1.4445803   2.3844802  )
       133           C   tau( 133) = (   0.4996644   1.1579795   2.3964612  )
       134           C   tau( 134) = (   0.4997819   1.5407968   2.3862952  )
       135           C   tau( 135) = (   0.6655175   1.2519948   2.3889844  )
       136           C   tau( 136) = (   0.6662146   1.4447503   2.3853758  )
       137           C   tau( 137) = (   0.8330246   1.1555822   2.3876612  )
       138           C   tau( 138) = (   0.8329924   1.5405701   2.3828489  )
       139           C   tau( 139) = (  -0.0003527   1.8293325   2.3816845  )
       140           C   tau( 140) = (  -0.0005815   2.0217961   2.3839877  )
       141           C   tau( 141) = (   0.1665134   1.7329856   2.3823971  )
       142           C   tau( 142) = (   0.1660514   2.1179503   2.3845032  )
       143           C   tau( 143) = (   0.3329702   1.8292529   2.3851589  )
       144           C   tau( 144) = (   0.3328306   2.0216859   2.3851757  )
       145           C   tau( 145) = (   0.4996230   1.7332577   2.3862450  )
       146           C   tau( 146) = (   0.4993988   2.1177604   2.3867020  )
       147           C   tau( 147) = (   0.6662018   1.8292198   2.3855625  )
       148           C   tau( 148) = (   0.6660217   2.0216721   2.3855138  )
       149           C   tau( 149) = (   0.8328201   1.7330551   2.3830081  )
       150           C   tau( 150) = (   0.8328221   2.1179726   2.3847324  )

     number of k points=     6  gaussian smearing, width (Ry)=  0.1000
                       cart. coord. in units 2pi/alat
        k(    1) = (   0.0000000   0.0000000   0.0000000), wk =   0.2500000
        k(    2) = (   0.0000000  -0.2165064   0.0000000), wk =   0.2500000
        k(    3) = (   0.2500000   0.0000000   0.0000000), wk =   0.5000000
        k(    4) = (   0.2500000  -0.2165064   0.0000000), wk =   0.5000000
        k(    5) = (  -0.5000000   0.0000000   0.0000000), wk =   0.2500000
        k(    6) = (  -0.5000000  -0.2165064   0.0000000), wk =   0.2500000

     Dense  grid:  2050409 G-vectors     FFT dimensions: (  80, 192, 270)

     Largest allocated arrays     est. size (Mb)     dimensions
        Kohn-Sham Wavefunctions        54.80 Mb     (    4604,  780)
        NL pseudopotentials           130.46 Mb     (    4604, 1857)
        Each V/rho on FFT grid          1.17 Mb     (   76800)
        Each G-vector array             0.28 Mb     (   36616)
        G-vector shells                 0.14 Mb     (   17932)
     Largest temporary arrays     est. size (Mb)     dimensions
        Auxiliary wavefunctions       219.18 Mb     (    4604, 3120)
        Each subspace H/S matrix        5.94 Mb     (     624,  624)
        Each <psi_i|beta_j> matrix     22.10 Mb     (    1857,  780)
        Arrays for rho mixing           9.38 Mb     (   76800,    8)

     Initial potential from superposition of free atoms
     Check: negative starting charge=   -0.001760

     starting charge 1273.81750, renormalised to 1299.00000

     negative rho (up, down):  1.795E-03 0.000E+00
     Starting wfc are 1289 randomized atomic wfcs

     total cpu time spent up to now is      106.7 secs

     Self-consistent Calculation

     iteration #  1     ecut=    80.00 Ry     beta=0.70
     Davidson diagonalization with overlap
     c_bands:  2 eigenvalues not converged
     ethr =  1.00E-04,  avg # of iterations = 30.7

     negative rho (up, down):  2.394E+01 0.000E+00

     total cpu time spent up to now is     1978.1 secs

     total energy              =   -9923.37443669 Ry
     Harris-Foulkes estimate   =  -17288.59324175 Ry
     estimated scf accuracy    <  178070.69785770 Ry

     iteration #  2     ecut=    80.00 Ry     beta=0.70
     Davidson diagonalization with overlap
     ethr =  1.00E-02,  avg # of iterations = 11.0

     negative rho (up, down):  2.773E+01 0.000E+00

     total cpu time spent up to now is     2866.2 secs

     total energy              =  -12271.58251645 Ry
     Harris-Foulkes estimate   =  -13642.00977981 Ry
     estimated scf accuracy    <   22624.06490513 Ry

     iteration #  3     ecut=    80.00 Ry     beta=0.70
     Davidson diagonalization with overlap
     ethr =  1.00E-02,  avg # of iterations =  6.5

     negative rho (up, down):  2.865E+01 0.000E+00

     total cpu time spent up to now is     3387.8 secs

     total energy              =  -12437.86088890 Ry
     Harris-Foulkes estimate   =  -13379.51871040 Ry
     estimated scf accuracy    <    6054.60915266 Ry

     iteration #  4     ecut=    80.00 Ry     beta=0.70
     Davidson diagonalization with overlap
     ethr =  1.00E-02,  avg # of iterations =  5.2

     negative rho (up, down):  2.130E+01 0.000E+00

     total cpu time spent up to now is     3933.6 secs

     total energy              =  -12835.17279199 Ry
     Harris-Foulkes estimate   =  -13075.89453787 Ry
     estimated scf accuracy    <    1990.97877607 Ry

     iteration #  5     ecut=    80.00 Ry     beta=0.70
     Davidson diagonalization with overlap
     ethr =  1.00E-02,  avg # of iterations =  3.5

     negative rho (up, down):  1.640E+01 0.000E+00

     total cpu time spent up to now is     4211.5 secs

     total energy              =  -12844.15481761 Ry
     Harris-Foulkes estimate   =  -12964.85782177 Ry
     estimated scf accuracy    <    1230.19705314 Ry

     iteration #  6     ecut=    80.00 Ry     beta=0.70
     Davidson diagonalization with overlap
     ethr =  1.00E-02,  avg # of iterations =  3.0

     negative rho (up, down):  1.118E+01 0.000E+00

     total cpu time spent up to now is     4419.1 secs

     total energy              =  -12840.14619287 Ry
     Harris-Foulkes estimate   =  -12910.40924330 Ry
     estimated scf accuracy    <     547.74255781 Ry

     iteration #  7     ecut=    80.00 Ry     beta=0.70
     Davidson diagonalization with overlap
     ethr =  1.00E-02,  avg # of iterations =  2.0

     negative rho (up, down):  8.147E+00 0.000E+00

     total cpu time spent up to now is     4602.2 secs

     total energy              =  -12818.91139132 Ry
     Harris-Foulkes estimate   =  -12856.66379960 Ry
     estimated scf accuracy    <     379.86502198 Ry

     iteration #  8     ecut=    80.00 Ry     beta=0.70
     Davidson diagonalization with overlap
     ethr =  1.00E-02,  avg # of iterations =  2.0

     negative rho (up, down):  6.200E+00 0.000E+00

     total cpu time spent up to now is     4781.4 secs

     total energy              =  -12802.48025684 Ry
     Harris-Foulkes estimate   =  -12833.51966191 Ry
     estimated scf accuracy    <     444.61360815 Ry

     iteration #  9     ecut=    80.00 Ry     beta=0.70
     Davidson diagonalization with overlap
     ethr =  1.00E-02,  avg # of iterations =  1.7

     negative rho (up, down):  5.395E+00 0.000E+00

     total cpu time spent up to now is     4957.2 secs

     total energy              =  -12803.40122359 Ry
     Harris-Foulkes estimate   =  -12814.92684231 Ry
     estimated scf accuracy    <     214.75292312 Ry

     iteration # 10     ecut=    80.00 Ry     beta=0.70
     Davidson diagonalization with overlap
     ethr =  1.00E-02,  avg # of iterations =  1.0

     negative rho (up, down):  2.045E+00 0.000E+00

     total cpu time spent up to now is     5124.4 secs

     total energy              =  -12775.44346292 Ry
     Harris-Foulkes estimate   =  -12806.79642558 Ry
     estimated scf accuracy    <     135.89983245 Ry

     iteration # 11     ecut=    80.00 Ry     beta=0.70
     Davidson diagonalization with overlap
     ethr =  1.00E-02,  avg # of iterations =  1.2

     negative rho (up, down):  7.220E-01 0.000E+00

     total cpu time spent up to now is     5293.2 secs

     total energy              =  -12761.72792313 Ry
     Harris-Foulkes estimate   =  -12783.94751243 Ry
     estimated scf accuracy    <     281.03032840 Ry

     iteration # 12     ecut=    80.00 Ry     beta=0.70
     Davidson diagonalization with overlap
     ethr =  1.00E-02,  avg # of iterations =  2.0

     negative rho (up, down):  3.629E-01 0.000E+00

     total cpu time spent up to now is     5471.8 secs

     total energy              =  -12758.55061984 Ry
     Harris-Foulkes estimate   =  -12773.54690626 Ry
     estimated scf accuracy    <     307.86889655 Ry

     iteration # 13     ecut=    80.00 Ry     beta=0.70
     Davidson diagonalization with overlap
     ethr =  1.00E-02,  avg # of iterations =  1.5

     negative rho (up, down):  2.071E+00 0.000E+00

     total cpu time spent up to now is     5643.8 secs

     total energy              =  -12750.13088035 Ry
     Harris-Foulkes estimate   =  -12770.44235524 Ry
     estimated scf accuracy    <     330.88166487 Ry

     iteration # 14     ecut=    80.00 Ry     beta=0.70
     Davidson diagonalization with overlap
     ethr =  1.00E-02,  avg # of iterations =  2.5

     negative rho (up, down):  3.577E+00 0.000E+00

     total cpu time spent up to now is     5827.1 secs

     total energy              =  -12750.17196802 Ry
     Harris-Foulkes estimate   =  -12759.47756667 Ry
     estimated scf accuracy    <      83.15844554 Ry

     iteration # 15     ecut=    80.00 Ry     beta=0.70
     Davidson diagonalization with overlap
     ethr =  6.40E-03,  avg # of iterations =  3.0

     negative rho (up, down):  2.355E+00 0.000E+00

     total cpu time spent up to now is     6017.9 secs

     total energy              =  -12748.26025835 Ry
     Harris-Foulkes estimate   =  -12756.47373751 Ry
     estimated scf accuracy    <      77.70113400 Ry

     iteration # 16     ecut=    80.00 Ry     beta=0.70
     Davidson diagonalization with overlap
     ethr =  5.98E-03,  avg # of iterations =  2.0

     negative rho (up, down):  3.852E+00 0.000E+00

     total cpu time spent up to now is     6195.7 secs

     total energy              =  -12750.25723455 Ry
     Harris-Foulkes estimate   =  -12753.99908537 Ry
     estimated scf accuracy    <      42.72386448 Ry

     iteration # 17     ecut=    80.00 Ry     beta=0.70
     Davidson diagonalization with overlap
     ethr =  3.29E-03,  avg # of iterations =  2.0

     negative rho (up, down):  5.482E+00 0.000E+00

     total cpu time spent up to now is     6373.1 secs

     total energy              =  -12747.79928823 Ry
     Harris-Foulkes estimate   =  -12750.82546193 Ry
     estimated scf accuracy    <      26.68903594 Ry

     iteration # 18     ecut=    80.00 Ry     beta=0.70
     Davidson diagonalization with overlap
     ethr =  2.05E-03,  avg # of iterations =  2.7

     negative rho (up, down):  4.044E+00 0.000E+00

     total cpu time spent up to now is     6558.8 secs

     total energy              =  -12745.56998049 Ry
     Harris-Foulkes estimate   =  -12748.51230255 Ry
     estimated scf accuracy    <      22.85398579 Ry

     iteration # 19     ecut=    80.00 Ry     beta=0.70
     Davidson diagonalization with overlap
     ethr =  1.76E-03,  avg # of iterations =  4.3

     negative rho (up, down):  3.735E+00 0.000E+00

     total cpu time spent up to now is     6763.8 secs

     total energy              =  -12745.04908538 Ry
     Harris-Foulkes estimate   =  -12746.25230005 Ry
     estimated scf accuracy    <       9.96617607 Ry

     iteration # 20     ecut=    80.00 Ry     beta=0.70
     Davidson diagonalization with overlap
     ethr =  7.67E-04,  avg # of iterations =  8.3

     negative rho (up, down):  2.344E+00 0.000E+00

     total cpu time spent up to now is     7018.7 secs

     total energy              =  -12744.19738379 Ry
     Harris-Foulkes estimate   =  -12745.27212139 Ry
     estimated scf accuracy    <       7.01815047 Ry

     iteration # 21     ecut=    80.00 Ry     beta=0.70
     Davidson diagonalization with overlap
     ethr =  5.40E-04,  avg # of iterations =  2.3

     negative rho (up, down):  2.271E+00 0.000E+00

     total cpu time spent up to now is     7200.7 secs

     total energy              =  -12744.03704423 Ry
     Harris-Foulkes estimate   =  -12744.34330983 Ry
     estimated scf accuracy    <       8.18637290 Ry

     iteration # 22     ecut=    80.00 Ry     beta=0.70
     Davidson diagonalization with overlap
     ethr =  5.40E-04,  avg # of iterations =  1.0

     negative rho (up, down):  2.138E+00 0.000E+00

     total cpu time spent up to now is     7368.1 secs

     total energy              =  -12743.74191115 Ry
     Harris-Foulkes estimate   =  -12744.18715875 Ry
     estimated scf accuracy    <       6.86894202 Ry

     iteration # 23     ecut=    80.00 Ry     beta=0.70
     Davidson diagonalization with overlap
     ethr =  5.29E-04,  avg # of iterations =  1.0

     negative rho (up, down):  1.043E+00 0.000E+00

     total cpu time spent up to now is     7534.5 secs

     total energy              =  -12742.32982523 Ry
     Harris-Foulkes estimate   =  -12743.89711889 Ry
     estimated scf accuracy    <       5.97914640 Ry

     iteration # 24     ecut=    80.00 Ry     beta=0.70
     Davidson diagonalization with overlap
     ethr =  4.60E-04,  avg # of iterations =  6.7

     negative rho (up, down):  7.985E-01 0.000E+00

     total cpu time spent up to now is     7770.7 secs

     total energy              =  -12741.16120591 Ry
     Harris-Foulkes estimate   =  -12742.58105904 Ry
     estimated scf accuracy    <       4.07241614 Ry

     iteration # 25     ecut=    80.00 Ry     beta=0.70
     Davidson diagonalization with overlap
     ethr =  3.14E-04,  avg # of iterations =  9.5

     negative rho (up, down):  5.208E-01 0.000E+00

     total cpu time spent up to now is     8042.0 secs

     total energy              =  -12740.62556943 Ry
     Harris-Foulkes estimate   =  -12741.29700204 Ry
     estimated scf accuracy    <       3.23892355 Ry

     iteration # 26     ecut=    80.00 Ry     beta=0.70
     Davidson diagonalization with overlap
     ethr =  2.49E-04,  avg # of iterations =  3.5

     negative rho (up, down):  9.285E-01 0.000E+00

     total cpu time spent up to now is     8239.0 secs

     total energy              =  -12740.35177701 Ry
     Harris-Foulkes estimate   =  -12740.76217631 Ry
     estimated scf accuracy    <       1.58504838 Ry

     iteration # 27     ecut=    80.00 Ry     beta=0.70
     Davidson diagonalization with overlap
     ethr =  1.22E-04,  avg # of iterations =  7.0

     negative rho (up, down):  8.025E-01 0.000E+00

     total cpu time spent up to now is     8496.3 secs

     total energy              =  -12740.24885466 Ry
     Harris-Foulkes estimate   =  -12740.41444905 Ry
     estimated scf accuracy    <       0.80664326 Ry

     iteration # 28     ecut=    80.00 Ry     beta=0.70
     Davidson diagonalization with overlap
     ethr =  6.21E-05,  avg # of iterations =  8.0

     negative rho (up, down):  9.006E-01 0.000E+00

     total cpu time spent up to now is     8750.9 secs

     total energy              =  -12740.19204179 Ry
     Harris-Foulkes estimate   =  -12740.29106881 Ry
     estimated scf accuracy    <       0.64291389 Ry

     iteration # 29     ecut=    80.00 Ry     beta=0.70
     Davidson diagonalization with overlap
     ethr =  4.95E-05,  avg # of iterations =  7.0

     negative rho (up, down):  6.067E-01 0.000E+00

     total cpu time spent up to now is     9004.6 secs

     total energy              =  -12740.15468396 Ry
     Harris-Foulkes estimate   =  -12740.22372145 Ry
     estimated scf accuracy    <       0.26111828 Ry

     iteration # 30     ecut=    80.00 Ry     beta=0.70
     Davidson diagonalization with overlap
     ethr =  2.01E-05,  avg # of iterations = 12.0

     negative rho (up, down):  3.120E-01 0.000E+00

     total cpu time spent up to now is     9317.3 secs

     total energy              =  -12740.11494707 Ry
     Harris-Foulkes estimate   =  -12740.16892005 Ry
     estimated scf accuracy    <       0.24156180 Ry

     iteration # 31     ecut=    80.00 Ry     beta=0.70
     Davidson diagonalization with overlap
     ethr =  1.86E-05,  avg # of iterations =  9.0

     negative rho (up, down):  1.456E-01 0.000E+00

     total cpu time spent up to now is     9611.2 secs

     total energy              =  -12740.11619045 Ry
     Harris-Foulkes estimate   =  -12740.12537271 Ry
     estimated scf accuracy    <       0.03169130 Ry

     iteration # 32     ecut=    80.00 Ry     beta=0.70
     Davidson diagonalization with overlap
     c_bands:  1 eigenvalues not converged
     c_bands:  3 eigenvalues not converged
     ethr =  2.44E-06,  avg # of iterations = 18.0

     negative rho (up, down):  8.722E-02 0.000E+00

     total cpu time spent up to now is    10045.1 secs

     total energy              =  -12740.11716683 Ry
     Harris-Foulkes estimate   =  -12740.12054775 Ry
     estimated scf accuracy    <       0.01817865 Ry

     iteration # 33     ecut=    80.00 Ry     beta=0.70
     Davidson diagonalization with overlap
     c_bands:  1 eigenvalues not converged
     c_bands:  1 eigenvalues not converged
     c_bands:  1 eigenvalues not converged
     ethr =  1.40E-06,  avg # of iterations = 16.0

     negative rho (up, down):  5.157E-02 0.000E+00

     total cpu time spent up to now is    10413.5 secs

     total energy              =  -12740.11847934 Ry
     Harris-Foulkes estimate   =  -12740.11882665 Ry
     estimated scf accuracy    <       0.00461269 Ry

     iteration # 34     ecut=    80.00 Ry     beta=0.70
     Davidson diagonalization with overlap
     c_bands:  3 eigenvalues not converged
     c_bands:  1 eigenvalues not converged
     ethr =  3.55E-07,  avg # of iterations = 13.8

     negative rho (up, down):  2.323E-02 0.000E+00

     total cpu time spent up to now is    10756.9 secs

     total energy              =  -12740.11869060 Ry
     Harris-Foulkes estimate   =  -12740.11887134 Ry
     estimated scf accuracy    <       0.00195993 Ry

     iteration # 35     ecut=    80.00 Ry     beta=0.70
     Davidson diagonalization with overlap
     ethr =  1.51E-07,  avg # of iterations = 12.3

     negative rho (up, down):  2.072E-02 0.000E+00

     total cpu time spent up to now is    11086.6 secs

     total energy              =  -12740.11882199 Ry
     Harris-Foulkes estimate   =  -12740.11886612 Ry
     estimated scf accuracy    <       0.00099665 Ry

     iteration # 36     ecut=    80.00 Ry     beta=0.70
     Davidson diagonalization with overlap
     ethr =  7.67E-08,  avg # of iterations =  5.3

     negative rho (up, down):  1.247E-02 0.000E+00

     total cpu time spent up to now is    11313.5 secs

     total energy              =  -12740.11876555 Ry
     Harris-Foulkes estimate   =  -12740.11888957 Ry
     estimated scf accuracy    <       0.00027085 Ry

     iteration # 37     ecut=    80.00 Ry     beta=0.70
     Davidson diagonalization with overlap
     c_bands:  1 eigenvalues not converged
     ethr =  2.09E-08,  avg # of iterations =  9.8

     negative rho (up, down):  8.822E-03 0.000E+00

     total cpu time spent up to now is    11605.3 secs

     total energy              =  -12740.11884317 Ry
     Harris-Foulkes estimate   =  -12740.11879340 Ry
     estimated scf accuracy    <       0.00010571 Ry

     iteration # 38     ecut=    80.00 Ry     beta=0.70
     Davidson diagonalization with overlap
     c_bands:  1 eigenvalues not converged
     ethr =  8.14E-09,  avg # of iterations =  9.3

     negative rho (up, down):  5.827E-03 0.000E+00

     total cpu time spent up to now is    11890.8 secs

     total energy              =  -12740.11880708 Ry
     Harris-Foulkes estimate   =  -12740.11885023 Ry
     estimated scf accuracy    <       0.00002790 Ry

     iteration # 39     ecut=    80.00 Ry     beta=0.70
     Davidson diagonalization with overlap
     c_bands:  1 eigenvalues not converged
     ethr =  2.15E-09,  avg # of iterations =  8.7

     negative rho (up, down):  3.767E-03 0.000E+00

     total cpu time spent up to now is    12153.7 secs

     total energy              =  -12740.11877639 Ry
     Harris-Foulkes estimate   =  -12740.11880963 Ry
     estimated scf accuracy    <       0.00001578 Ry

     iteration # 40     ecut=    80.00 Ry     beta=0.70
     Davidson diagonalization with overlap
     c_bands:  1 eigenvalues not converged
     ethr =  1.21E-09,  avg # of iterations =  8.8

     negative rho (up, down):  2.137E-03 0.000E+00

     total cpu time spent up to now is    12425.3 secs

     total energy              =  -12740.11876653 Ry
     Harris-Foulkes estimate   =  -12740.11877768 Ry
     estimated scf accuracy    <       0.00000466 Ry

     iteration # 41     ecut=    80.00 Ry     beta=0.70
     Davidson diagonalization with overlap
     ethr =  3.59E-10,  avg # of iterations =  4.2

     negative rho (up, down):  2.116E-03 0.000E+00

     total cpu time spent up to now is    12642.3 secs

     total energy              =  -12740.11876725 Ry
     Harris-Foulkes estimate   =  -12740.11876704 Ry
     estimated scf accuracy    <       0.00000265 Ry

     iteration # 42     ecut=    80.00 Ry     beta=0.70
     Davidson diagonalization with overlap
     ethr =  2.04E-10,  avg # of iterations =  2.2

     negative rho (up, down):  2.041E-03 0.000E+00

     total cpu time spent up to now is    12829.0 secs

     total energy              =  -12740.11876769 Ry
     Harris-Foulkes estimate   =  -12740.11876744 Ry
     estimated scf accuracy    <       0.00000090 Ry

     iteration # 43     ecut=    80.00 Ry     beta=0.70
     Davidson diagonalization with overlap
     ethr =  6.90E-11,  avg # of iterations =  2.7

     negative rho (up, down):  1.979E-03 0.000E+00

     total cpu time spent up to now is    13027.8 secs

     total energy              =  -12740.11876806 Ry
     Harris-Foulkes estimate   =  -12740.11876780 Ry
     estimated scf accuracy    <       0.00000055 Ry

     iteration # 44     ecut=    80.00 Ry     beta=0.70
     Davidson diagonalization with overlap
     ethr =  4.20E-11,  avg # of iterations =  3.0

     negative rho (up, down):  2.067E-03 0.000E+00

     total cpu time spent up to now is    13226.9 secs

     total energy              =  -12740.11876812 Ry
     Harris-Foulkes estimate   =  -12740.11876810 Ry
     estimated scf accuracy    <       0.00000021 Ry

     iteration # 45     ecut=    80.00 Ry     beta=0.70
     Davidson diagonalization with overlap
     ethr =  1.62E-11,  avg # of iterations =  3.0

     negative rho (up, down):  2.077E-03 0.000E+00

     total cpu time spent up to now is    13431.1 secs

     total energy              =  -12740.11876811 Ry
     Harris-Foulkes estimate   =  -12740.11876814 Ry
     estimated scf accuracy    <       0.00000007 Ry

     iteration # 46     ecut=    80.00 Ry     beta=0.70
     Davidson diagonalization with overlap
     ethr =  5.55E-12,  avg # of iterations =  2.0

     negative rho (up, down):  2.087E-03 0.000E+00

     total cpu time spent up to now is    13618.2 secs

     total energy              =  -12740.11876809 Ry
     Harris-Foulkes estimate   =  -12740.11876812 Ry
     estimated scf accuracy    <       0.00000002 Ry

     iteration # 47     ecut=    80.00 Ry     beta=0.70
     Davidson diagonalization with overlap
     ethr =  1.40E-12,  avg # of iterations =  2.7

     negative rho (up, down):  2.068E-03 0.000E+00

     total cpu time spent up to now is    13806.4 secs

     End of self-consistent calculation

          k = 0.0000 0.0000 0.0000 (256287 PWs)   bands (ev):

   -17.8806 -17.0838 -16.2108 -15.9201 -15.3587 -14.9722 -14.6809 -14.6438
   -14.2335 -14.1830 -14.0690 -13.9974 -13.2987 -13.2334 -13.1128 -13.0895
   -13.0500 -12.9565 -11.5728 -11.4767 -11.4407 -11.3570 -11.1680 -10.2884
    -9.7175  -9.7125  -9.5885  -9.4760  -8.9462  -8.7836  -8.6282  -8.5368
    -8.0113  -7.8671  -7.7462  -7.6124  -7.5462  -7.5437  -7.5053  -7.4464
    -6.3643  -6.3075  -6.1867  -6.0212  -5.9916  -5.9662  -5.8621  -5.8094
    -5.7994  -5.4995  -5.4829  -5.3212  -5.0158  -4.8646  -4.7938  -4.7355
    -4.6002  -4.5756  -4.4937  -4.2969  -4.2427  -4.0679  -3.9890  -3.9868
    -3.9472  -3.8084  -3.5864  -3.5506  -3.5207  -3.4915  -3.4241  -3.4080
    -3.3741  -3.3496  -3.2223  -3.1735  -3.1087  -3.0699  -3.0344  -3.0092
    -3.0026  -2.9957  -2.9872  -2.8624  -2.8064  -2.7955  -2.7506  -2.7429
    -2.7341  -2.6918  -2.6622  -2.6464  -2.5286  -2.4533  -2.3892  -2.3484
    -2.3423  -2.3094  -2.2171  -2.1920  -2.1902  -2.1638  -2.1519  -2.1511
    -2.1511  -2.1504  -2.1209  -2.0819  -2.0222  -2.0221  -2.0188  -2.0187
    -1.9575  -1.9429  -1.8981  -1.8403  -1.7764  -1.7397  -1.7389  -1.7368
    -1.7346  -1.6953  -1.6817  -1.6716  -1.6589  -1.6539  -1.6059  -1.5939
    -1.5912  -1.5754  -1.5634  -1.5607  -1.5559  -1.5501  -1.5445  -1.5339
    -1.5185  -1.5151  -1.5130  -1.4846  -1.4439  -1.4378  -1.4156  -1.4060
    -1.3889  -1.3696  -1.3521  -1.3419  -1.3240  -1.2983  -1.2636  -1.2618
    -1.2497  -1.2111  -1.2102  -1.1917  -1.1882  -1.1703  -1.1653  -1.1626
    -1.1265  -1.1175  -1.0881  -1.0842  -1.0501  -1.0460  -1.0388  -1.0314
    -1.0261  -1.0233  -1.0216  -1.0204  -1.0189  -1.0163  -1.0142  -1.0040
    -0.9980  -0.9717  -0.9516  -0.9424  -0.9318  -0.9269  -0.9187  -0.9175
    -0.9161  -0.9075  -0.8630  -0.8593  -0.8569  -0.8567  -0.8555  -0.8548
    -0.8546  -0.8503  -0.8498  -0.8488  -0.8475  -0.8472  -0.8455  -0.8435
    -0.8415  -0.8412  -0.8297  -0.8279  -0.8262  -0.7855  -0.7848  -0.7556
    -0.6895  -0.6892  -0.6829  -0.6822  -0.6603  -0.6591  -0.6412  -0.6408
    -0.6209  -0.6197  -0.6127  -0.6030  -0.6017  -0.6004  -0.5876  -0.5815
    -0.5642  -0.5641  -0.5597  -0.5591  -0.5538  -0.5524  -0.5422  -0.5414
    -0.4923  -0.4917  -0.4385  -0.4380  -0.4283  -0.4275  -0.4256  -0.4216
    -0.4126  -0.4096  -0.4065  -0.4048  -0.4033  -0.4031  -0.3997  -0.3995
    -0.3977  -0.3844  -0.3843  -0.3786  -0.3770  -0.3711  -0.3509  -0.3499
    -0.3015  -0.2980  -0.2955  -0.2907  -0.2905  -0.2747  -0.2656  -0.2654
    -0.2613  -0.2610  -0.2477  -0.2466  -0.2416  -0.2414  -0.2353  -0.2210
    -0.2206  -0.2191  -0.2173  -0.2144  -0.2130  -0.2112  -0.2108  -0.2083
    -0.2055  -0.1905  -0.1896  -0.1865  -0.1864  -0.1714  -0.1579  -0.1421
    -0.1199  -0.1179  -0.1169  -0.1147  -0.1129  -0.0722  -0.0699  -0.0675
    -0.0670  -0.0616  -0.0615  -0.0606  -0.0598  -0.0586  -0.0426  -0.0330
    -0.0090  -0.0077  -0.0072  -0.0049   0.0009   0.0118   0.0187   0.0194
     0.0258   0.0267   0.0286   0.0335   0.0456   0.0466   0.0471   0.0473
     0.0506   0.0539   0.0635   0.0642   0.0644   0.0650   0.0741   0.0792
     0.0830   0.0888   0.1025   0.1045   0.1363   0.1365   0.1553   0.1563
     0.1686   0.1876   0.1956   0.1974   0.2330   0.2350   0.2363   0.2442
     0.2464   0.2469   0.2718   0.2725   0.2742   0.2745   0.2746   0.2820
     0.2837   0.2843   0.3287   0.3418   0.3423   0.3484   0.3494   0.3507
     0.3510   0.3733   0.3782   0.3833   0.3842   0.3870   0.3919   0.4133
     0.4200   0.4212   0.4257   0.4290   0.4381   0.4400   0.4403   0.4514
     0.4800   0.4833   0.4926   0.4935   0.4969   0.5014   0.5019   0.5088
     0.5246   0.5259   0.5301   0.5304   0.5354   0.5357   0.5369   0.5402
     0.5416   0.5451   0.5490   0.5504   0.5561   0.5579   0.5598   0.5645
     0.5662   0.5973   0.6066   0.6068   0.6091   0.6152   0.6212   0.6484
     0.6491   0.6502   0.6517   0.6536   0.6542   0.6550   0.6607   0.6633
     0.6643   0.6749   0.6774   0.6795   0.6812   0.6832   0.6883   0.6887
     0.6957   0.6987   0.7027   0.7165   0.7210   0.7238   0.7252   0.7338
     0.7342   0.7425   0.7484   0.7487   0.7498   0.7499   0.7537   0.7554
     0.7564   0.7600   0.7691   0.7978   0.8058   0.8072   0.8176   0.8201
     0.8226   0.8228   0.8259   0.8268   0.8541   0.8572   0.8660   0.8714
     0.8773   0.8775   0.8867   0.8912   0.8918   0.9001   0.9007   0.9020
     0.9028   0.9102   0.9187   0.9375   0.9387   0.9422   0.9425   0.9441
     0.9442   0.9592   0.9700   0.9737   0.9782   0.9869   0.9871   0.9986
     1.0033   1.0073   1.0131   1.0134   1.0145   1.0157   1.0204   1.0226
     1.0259   1.0272   1.0276   1.0298   1.0302   1.0393   1.0456   1.0475
     1.0620   1.0653   1.0664   1.0699   1.0740   1.0792   1.0884   1.1050
     1.1053   1.1109   1.1112   1.1118   1.1136   1.1173   1.1201   1.1212
     1.1215   1.1215   1.1236   1.1266   1.1367   1.1374   1.1461   1.1709
     1.1846   1.1867   1.1990   1.2001   1.2016   1.2041   1.2068   1.2084
     1.2088   1.2214   1.2333   1.2377   1.2394   1.2416   1.2422   1.2426
     1.2463   1.2467   1.2495   1.2559   1.2581   1.2706   1.2750   1.2753
     1.2761   1.2780   1.2786   1.2788   1.2813   1.2908   1.2948   1.2955
     1.2962   1.3034   1.3097   1.3115   1.3116   1.3126   1.3132   1.3213
     1.3259   1.3298   1.3455   1.3540   1.3555   1.3572   1.3574   1.3615
     1.3653   1.3669   1.3778   1.3832   1.3891   1.3895   1.3932   1.3946
     1.4096   1.4149   1.4161   1.4248   1.4250   1.4294   1.4323   1.4342
     1.4352   1.4360   1.4370   1.4378   1.4400   1.4401   1.4484   1.4504
     1.4516   1.4630   1.4674   1.4688   1.4700   1.4707   1.4731   1.4829
     1.4860   1.5081   1.5105   1.5165   1.5220   1.5521   1.5586   1.5619
     1.5653   1.5681   1.5811   1.5841   1.5869   1.5915   1.6071   1.6160
     1.6300   1.6340   1.6348   1.6379   1.6439   1.6451   1.6458   1.6974
     1.8981   1.9572   2.1109   2.1169   2.1630   2.1661   2.2042   2.2061
     2.2086   2.2112   2.2217   2.2269   2.2313   2.2346   2.4086   2.4121
     2.4680   2.4735   2.4744   2.4763   2.4850   2.4875   2.7100   2.7259
     2.7290   2.7345   2.8477   2.9996   3.0762   3.1916   3.5011   3.5320
     3.5699   3.8220   3.8235   3.8562   3.8589   3.8608   3.8617   3.9212
     3.9650   4.0014   4.0091   4.0094   4.0122   4.0128   4.0213   4.0246
     4.0296   4.2489   4.2589   4.2629   4.2740   4.4336   4.5996   4.7657
     4.8574   4.9546   4.9620   5.2676   5.3358   5.4250   5.4310   5.4499
     5.6963   5.7283   5.7381   5.7399   5.9321   5.9366   6.2126   6.3635
     6.3705   6.4133   6.4249   6.4927   6.4941   6.4974   6.5101   6.5802
     6.6240   6.6872   6.7544   6.7846   6.7916   6.8098   6.8899   7.0185
     7.0558   7.0796   7.0943   7.0990   7.1026   7.2495   7.3587   7.3639
     7.4472   7.5777   7.5818   7.7034   7.7055   7.7136   7.7243   7.9250
     8.0841   8.1320   8.1842   8.2201   8.3224   8.3271   8.3335   8.3380
     8.3417   8.3542   8.3670   8.3959   8.4177   8.4985   8.5119   8.5575
     8.5902   8.6738   8.6772   8.6788   8.6813   8.8312   8.8387   8.8435
     8.8472   8.8492   8.8552   9.0168   9.1181   9.1262   9.1299   9.1322
     9.1461   9.1554   9.1978   9.2892   9.3481   9.3497   9.4295   9.5368
     9.5798   9.5823   9.5900   9.7099   9.7143   9.8100   9.8326  10.0449
    10.0452  10.0938  10.1809  10.1957

          k = 0.0000-0.2165 0.0000 (256176 PWs)   bands (ev):

   -17.8806 -17.0838 -16.2347 -15.8238 -15.4938 -15.0421 -14.6311 -14.3212
   -14.3094 -14.2077 -14.0440 -13.7923 -13.7330 -13.6519 -13.5375 -12.4322
   -12.3981 -12.3486 -12.2674 -12.0921 -12.0316 -10.6011 -10.4886 -10.4774
   -10.3554  -9.4114  -9.3955  -9.2504  -9.0606  -8.9619  -8.9045  -8.3643
    -8.2596  -8.1907  -8.1018  -7.4473  -7.2952  -7.0198  -6.9469  -6.8922
    -6.8509  -6.8357  -6.7871  -6.1520  -6.0776  -5.8908  -5.8825  -5.5864
    -5.4561  -5.2650  -5.1853  -5.1163  -4.9928  -4.9038  -4.8586  -4.8367
    -4.8207  -4.6603  -4.6487  -4.5745  -4.4939  -4.3744  -4.1366  -3.9451
    -3.7503  -3.6848  -3.6384  -3.5000  -3.3173  -3.3070  -3.3040  -3.2987
    -3.2265  -3.2022  -3.1324  -3.0924  -3.0852  -3.0505  -3.0337  -3.0207
    -2.9889  -2.9162  -2.8769  -2.8404  -2.8136  -2.7572  -2.7450  -2.7341
    -2.6748  -2.6124  -2.5793  -2.5791  -2.5775  -2.5773  -2.5692  -2.5204
    -2.4313  -2.3396  -2.3036  -2.2918  -2.2422  -2.2400  -2.2282  -2.1994
    -2.1470  -2.1447  -2.1433  -2.1333  -2.0275  -1.9861  -1.9860  -1.9736
    -1.9602  -1.9600  -1.8794  -1.8691  -1.8601  -1.8346  -1.7960  -1.7669
    -1.7660  -1.7497  -1.7494  -1.7404  -1.7403  -1.7239  -1.7197  -1.7037
    -1.6488  -1.6466  -1.6422  -1.6102  -1.5738  -1.4936  -1.4747  -1.4600
    -1.4597  -1.4497  -1.4283  -1.3828  -1.3786  -1.3709  -1.3695  -1.3163
    -1.3155  -1.2988  -1.2794  -1.2770  -1.2744  -1.2737  -1.2709  -1.2687
    -1.2486  -1.2342  -1.2290  -1.2248  -1.2225  -1.2197  -1.2106  -1.2052
    -1.1642  -1.1474  -1.1364  -1.1337  -1.1328  -1.1228  -1.0879  -1.0876
    -1.0500  -1.0498  -1.0468  -1.0464  -1.0086  -1.0026  -0.9857  -0.9846
    -0.9812  -0.9800  -0.9786  -0.9768  -0.9380  -0.9279  -0.9258  -0.9187
    -0.9183  -0.9100  -0.9097  -0.9000  -0.8961  -0.8935  -0.8917  -0.8306
    -0.8253  -0.8234  -0.8188  -0.8183  -0.8140  -0.8077  -0.7992  -0.7961
    -0.7944  -0.7810  -0.7778  -0.7544  -0.7542  -0.7514  -0.7447  -0.7058
    -0.6581  -0.6575  -0.6500  -0.6489  -0.6325  -0.6322  -0.6071  -0.6063
    -0.6045  -0.6035  -0.6004  -0.6003  -0.5769  -0.5736  -0.5431  -0.5417
    -0.5411  -0.5389  -0.5386  -0.5368  -0.5352  -0.5325  -0.5040  -0.5032
    -0.4842  -0.4831  -0.4831  -0.4780  -0.4495  -0.4484  -0.4470  -0.4464
    -0.4419  -0.4384  -0.4382  -0.4315  -0.4301  -0.4104  -0.3622  -0.3617
    -0.3521  -0.3514  -0.3498  -0.3310  -0.3252  -0.3078  -0.3024  -0.3022
    -0.3006  -0.2970  -0.2945  -0.2902  -0.2748  -0.2732  -0.2717  -0.2654
    -0.2639  -0.2545  -0.2535  -0.2485  -0.2454  -0.2435  -0.2432  -0.2428
    -0.2423  -0.2347  -0.2309  -0.2271  -0.2065  -0.2062  -0.2028  -0.2024
    -0.1925  -0.1436  -0.1414  -0.1392  -0.1388  -0.1379  -0.1333  -0.1300
    -0.1268  -0.1262  -0.1115  -0.1010  -0.0949  -0.0930  -0.0868  -0.0867
    -0.0821  -0.0782  -0.0772  -0.0755  -0.0752  -0.0733  -0.0726  -0.0464
    -0.0360  -0.0166  -0.0164  -0.0149  -0.0147   0.0018   0.0037   0.0067
     0.0068   0.0084   0.0159   0.0250   0.0262   0.0283   0.0322   0.0352
     0.0463   0.0517   0.0597   0.0622   0.0754   0.0764   0.0766   0.0780
     0.0951   0.0967   0.1116   0.1121   0.1207   0.1234   0.1324   0.1350
     0.1356   0.1370   0.1766   0.1774   0.1861   0.1880   0.1924   0.2011
     0.2023   0.2029   0.2280   0.2301   0.2559   0.2645   0.2656   0.2696
     0.2932   0.2999   0.3099   0.3563   0.3679   0.3832   0.3838   0.3902
     0.3906   0.4108   0.4121   0.4128   0.4130   0.4279   0.4362   0.4504
     0.4508   0.4513   0.4539   0.4542   0.4570   0.4603   0.4606   0.4623
     0.4694   0.4755   0.4768   0.4789   0.4826   0.4854   0.4869   0.4898
     0.5073   0.5154   0.5176   0.5274   0.5279   0.5286   0.5301   0.5372
     0.5373   0.5473   0.5554   0.5577   0.5583   0.5589   0.5596   0.5606
     0.5613   0.5630   0.5774   0.5802   0.5816   0.5845   0.5848   0.5858
     0.5889   0.5917   0.5965   0.6084   0.6206   0.6455   0.6466   0.6576
     0.6580   0.6677   0.6690   0.6700   0.6707   0.6736   0.6752   0.6802
     0.6816   0.6833   0.6834   0.6862   0.7062   0.7233   0.7255   0.7258
     0.7260   0.7355   0.7423   0.7428   0.7431   0.7439   0.7542   0.7627
     0.7713   0.7747   0.7764   0.7796   0.7815   0.7844   0.8000   0.8336
     0.8366   0.8690   0.8873   0.8889   0.8899   0.8942   0.8943   0.8980
     0.9046   0.9098   0.9101   0.9115   0.9169   0.9182   0.9239   0.9251
     0.9267   0.9275   0.9378   0.9400   0.9426   0.9428   0.9432   0.9454
     0.9540   0.9655   0.9665   0.9677   0.9678   0.9692   0.9705   0.9710
     0.9740   0.9786   0.9861   0.9905   0.9908   0.9931   0.9944   0.9949
     0.9971   1.0083   1.0128   1.0142   1.0226   1.0264   1.0271   1.0315
     1.0321   1.0384   1.0395   1.0403   1.0404   1.0407   1.0429   1.0730
     1.0888   1.1099   1.1151   1.1283   1.1283   1.1305   1.1440   1.1500
     1.1517   1.1561   1.1587   1.1694   1.1714   1.1747   1.1823   1.1883
     1.1926   1.1946   1.1964   1.1984   1.1996   1.2011   1.2012   1.2026
     1.2031   1.2035   1.2070   1.2108   1.2115   1.2173   1.2230   1.2288
     1.2324   1.2334   1.2349   1.2408   1.2418   1.2469   1.2695   1.2702
     1.2703   1.2759   1.2766   1.2783   1.2791   1.2821   1.2969   1.2990
     1.3002   1.3036   1.3114   1.3132   1.3135   1.3150   1.3158   1.3221
     1.3310   1.3331   1.3336   1.3347   1.3506   1.3512   1.3528   1.3649
     1.3746   1.3774   1.3801   1.3806   1.3817   1.3844   1.3935   1.3962
     1.3970   1.3978   1.4121   1.4128   1.4264   1.4271   1.4278   1.4288
     1.4463   1.4479   1.4488   1.4493   1.4517   1.4517   1.4531   1.4533
     1.4793   1.4808   1.4884   1.4888   1.4931   1.5015   1.5075   1.5081
     1.5197   1.5205   1.5224   1.5252   1.5274   1.5347   1.5377   1.5462
     1.5889   1.5902   1.5918   1.5925   1.6859   1.6949   1.7153   1.7236
     1.7290   1.7298   1.7362   1.7566   1.7885   1.7908   1.7920   1.7933
     1.8108   1.8137   1.8158   1.8265   1.8522   1.8566   1.9670   2.0921
     2.1551   2.3926   2.4210   2.4263   2.4273   2.4893   2.4997   2.5158
     2.5695   2.5718   2.5743   2.5822   2.5852   2.6025   2.7099   2.7131
     2.7683   2.7803   2.7859   2.7899   2.9239   2.9253   3.1710   3.1710
     3.1962   3.2015   3.4301   3.4348   3.6665   3.6750   3.8738   3.9297
     4.0002   4.0843   4.1050   4.1056   4.1338   4.3154   4.3334   4.3392
     4.3395   4.4890   4.5066   4.5646   4.7088   4.7231   4.7852   4.8005
     5.0542   5.1024   5.1066   5.1106   5.3551   5.3599   5.3627   5.3633
     5.4074   5.4576   5.6151   5.6560   5.7661   5.7697   5.8136   6.1255
     6.4102   6.4175   6.4425   6.4460   6.4595   6.4778   6.5670   6.5760
     6.6665   6.6720   6.8049   6.8285   7.0263   7.0404   7.0647   7.0701
     7.0720   7.0897   7.1230   7.1311   7.1402   7.1459   7.2517   7.3542
     7.3648   7.3880   7.4158   7.4776   7.5223   7.6320   7.7172   7.7267
     7.7828   8.0856   8.1479   8.1491   8.3591   8.3616   8.3946   8.4154
     8.4552   8.4590   8.4662   8.4720   8.4754   8.5246   8.5490   8.7104
     8.7150   8.7176   8.7207   8.7346   8.7611   8.7713   8.9327   8.9425
     9.0038   9.0256   9.0478   9.1651   9.1668   9.2080   9.2368   9.2967
     9.3494   9.3745   9.3763   9.4006   9.4011   9.4680   9.4873   9.5015
     9.5076   9.5107   9.5227   9.6713   9.6867   9.7882   9.7886   9.7900
     9.8881   9.8906   9.9081  10.0638

          k = 0.2500 0.0000 0.0000 (256240 PWs)   bands (ev):

   -17.8730 -17.0333 -16.1024 -15.8096 -15.6336 -15.0998 -14.9288 -14.8690
   -14.7189 -14.0395 -13.9008 -13.6932 -13.1826 -13.1264 -13.0363 -12.9128
   -12.2559 -12.1966 -12.1110 -12.0226 -11.1882 -11.0608 -10.7313 -10.6495
   -10.3154 -10.1584  -9.8974  -9.8481  -9.4684  -9.2127  -9.1302  -8.6459
    -7.9585  -7.7613  -7.7021  -7.5223  -7.4975  -7.4149  -7.0480  -6.9284
    -6.2705  -6.2366  -6.0791  -5.9679  -5.8759  -5.8405  -5.4862  -5.3350
    -5.3109  -5.2767  -5.2110  -4.9774  -4.8836  -4.7344  -4.5581  -4.4764
    -4.4669  -4.4344  -4.4160  -4.3450  -4.3248  -4.1357  -4.0995  -4.0025
    -3.9968  -3.9307  -3.8651  -3.8438  -3.8374  -3.7763  -3.7591  -3.6016
    -3.5803  -3.5467  -3.5066  -3.4386  -3.3929  -3.3707  -3.2593  -3.2356
    -3.2101  -3.1252  -3.0433  -3.0140  -2.9497  -2.8349  -2.7986  -2.7979
    -2.7711  -2.6746  -2.6227  -2.6180  -2.5922  -2.4699  -2.4278  -2.3969
    -2.3407  -2.3177  -2.1214  -2.0995  -2.0978  -2.0823  -2.0804  -2.0436
    -1.9891  -1.9691  -1.9289  -1.8941  -1.8885  -1.8376  -1.8108  -1.8011
    -1.8005  -1.7932  -1.7929  -1.7733  -1.7712  -1.7492  -1.7432  -1.7185
    -1.7127  -1.7058  -1.6569  -1.6467  -1.6269  -1.6031  -1.5894  -1.5832
    -1.5796  -1.5781  -1.5778  -1.5759  -1.5392  -1.5197  -1.5086  -1.5033
    -1.5009  -1.4896  -1.4870  -1.3869  -1.3716  -1.3315  -1.3253  -1.3121
    -1.2719  -1.2698  -1.2442  -1.2424  -1.2375  -1.2330  -1.2286  -1.2193
    -1.2079  -1.1976  -1.1900  -1.1846  -1.1818  -1.1765  -1.1550  -1.1391
    -1.1358  -1.1326  -1.1308  -1.1231  -1.1175  -1.1121  -1.1102  -1.0944
    -1.0757  -1.0582  -1.0536  -1.0487  -1.0473  -1.0362  -1.0220  -1.0170
    -1.0129  -1.0091  -1.0025  -0.9983  -0.9919  -0.9876  -0.9816  -0.9811
    -0.9791  -0.9778  -0.9753  -0.9747  -0.9638  -0.9497  -0.9457  -0.9430
    -0.9350  -0.9035  -0.9012  -0.8949  -0.8832  -0.8728  -0.8536  -0.8512
    -0.8155  -0.8152  -0.7968  -0.7945  -0.7865  -0.7707  -0.7698  -0.7563
    -0.7557  -0.7527  -0.7482  -0.7430  -0.7396  -0.7226  -0.6359  -0.6060
    -0.6004  -0.5987  -0.5905  -0.5682  -0.5665  -0.5657  -0.5500  -0.5491
    -0.5486  -0.5480  -0.5318  -0.5269  -0.5263  -0.5229  -0.5194  -0.5085
    -0.4915  -0.4850  -0.4845  -0.4819  -0.4815  -0.4739  -0.4600  -0.4599
    -0.4576  -0.4375  -0.4023  -0.3990  -0.3986  -0.3973  -0.3918  -0.3877
    -0.3831  -0.3800  -0.3691  -0.3567  -0.3561  -0.3452  -0.3369  -0.3327
    -0.3315  -0.3275  -0.2943  -0.2941  -0.2906  -0.2904  -0.2819  -0.2802
    -0.2702  -0.2669  -0.2635  -0.2612  -0.2531  -0.2470  -0.2298  -0.2274
    -0.2052  -0.2000  -0.1986  -0.1958  -0.1936  -0.1842  -0.1804  -0.1792
    -0.1779  -0.1671  -0.1514  -0.1513  -0.1393  -0.1355  -0.1308  -0.1158
    -0.1120  -0.1109  -0.1100  -0.0709  -0.0634  -0.0620  -0.0588  -0.0569
    -0.0524  -0.0400  -0.0199  -0.0197  -0.0126  -0.0109  -0.0076  -0.0066
    -0.0003   0.0004   0.0059   0.0062   0.0078   0.0083   0.0100   0.0134
     0.0263   0.0320   0.0346   0.0351   0.0403   0.0427   0.0590   0.0594
     0.0621   0.0749   0.0787   0.0904   0.1139   0.1142   0.1171   0.1176
     0.1199   0.1323   0.1375   0.1413   0.1419   0.1427   0.1441   0.1725
     0.1760   0.1812   0.2160   0.2437   0.2532   0.2536   0.2591   0.2666
     0.2712   0.2726   0.2733   0.2751   0.2818   0.2839   0.2861   0.2886
     0.2888   0.2951   0.2979   0.3028   0.3072   0.3091   0.3106   0.3173
     0.3215   0.3250   0.3308   0.3322   0.3370   0.3374   0.3559   0.3630
     0.3671   0.3876   0.3928   0.4050   0.4063   0.4237   0.4240   0.4395
     0.4432   0.4439   0.4462   0.4505   0.4594   0.4764   0.4800   0.4810
     0.4857   0.4862   0.4903   0.4922   0.4962   0.4965   0.5071   0.5162
     0.5249   0.5315   0.5388   0.5405   0.5442   0.5471   0.5496   0.5515
     0.5523   0.5558   0.5640   0.5800   0.5804   0.5829   0.5865   0.5926
     0.5966   0.5981   0.5989   0.6105   0.6109   0.6170   0.6178   0.6209
     0.6370   0.6388   0.6536   0.6575   0.6616   0.6652   0.6693   0.6713
     0.6734   0.6821   0.6888   0.7044   0.7071   0.7244   0.7294   0.7406
     0.7417   0.7448   0.7467   0.7519   0.7557   0.7661   0.7710   0.7754
     0.7780   0.7797   0.7876   0.7923   0.8021   0.8051   0.8151   0.8222
     0.8240   0.8252   0.8383   0.8493   0.8519   0.8563   0.8587   0.8612
     0.8795   0.8811   0.8854   0.8923   0.8936   0.8951   0.8952   0.9007
     0.9029   0.9081   0.9098   0.9318   0.9437   0.9501   0.9536   0.9551
     0.9564   0.9687   0.9701   0.9864   0.9886   0.9903   0.9927   0.9938
     0.9959   1.0000   1.0022   1.0088   1.0152   1.0188   1.0194   1.0201
     1.0207   1.0221   1.0233   1.0247   1.0328   1.0335   1.0357   1.0375
     1.0418   1.0484   1.0587   1.0626   1.0643   1.0695   1.0705   1.0751
     1.0762   1.0774   1.0911   1.0913   1.0972   1.1057   1.1076   1.1095
     1.1118   1.1131   1.1229   1.1326   1.1371   1.1383   1.1449   1.1499
     1.1528   1.1565   1.1587   1.1651   1.1746   1.1836   1.1872   1.1909
     1.1928   1.1949   1.2197   1.2317   1.2375   1.2421   1.2434   1.2456
     1.2506   1.2531   1.2544   1.2557   1.2616   1.2632   1.2696   1.2772
     1.2795   1.2804   1.2860   1.2948   1.3002   1.3011   1.3014   1.3062
     1.3091   1.3125   1.3144   1.3146   1.3167   1.3187   1.3225   1.3238
     1.3246   1.3291   1.3349   1.3442   1.3493   1.3525   1.3549   1.3583
     1.3592   1.3612   1.3624   1.3761   1.3812   1.3813   1.3819   1.4021
     1.4029   1.4109   1.4135   1.4208   1.4229   1.4233   1.4250   1.4278
     1.4285   1.4321   1.4344   1.4350   1.4368   1.4418   1.4438   1.4555
     1.4636   1.4657   1.4667   1.4673   1.4696   1.4703   1.4741   1.4840
     1.4842   1.4939   1.4951   1.5036   1.5077   1.5086   1.5120   1.5154
     1.5195   1.5396   1.5469   1.5534   1.5611   1.5824   1.6074   1.6241
     1.6260   1.6280   1.6487   1.6654   1.7185   1.7587   1.7636   1.7644
     1.7662   1.7803   1.8024   1.8379   1.9573   2.0303   2.0610   2.0771
     2.0840   2.0905   2.1002   2.1896   2.2514   2.2630   2.4919   2.5608
     2.5668   2.5686   2.5941   2.9762   2.9763   3.0234   3.1935   3.1942
     3.2189   3.2190   3.2835   3.2899   3.4717   3.4919   3.5782   3.5937
     3.6314   3.6343   3.6974   3.7053   3.7168   3.7242   3.7669   3.8519
     3.8750   3.9370   3.9814   4.0046   4.1017   4.2075   4.2097   4.2253
     4.2780   4.4167   4.5643   4.7457   4.7908   4.8338   4.8723   5.1614
     5.1814   5.2237   5.2279   5.2323   5.3673   5.4356   5.4718   5.4899
     5.5101   5.5819   5.6014   5.6296   5.6990   5.7109   5.7378   5.7407
     5.8256   5.8408   5.8478   5.9496   6.0082   6.0222   6.0444   6.0733
     6.4376   6.6828   6.7000   6.7055   6.7254   6.7568   6.7828   6.8924
     6.9341   7.0182   7.0398   7.0490   7.0555   7.0724   7.1370   7.2574
     7.2875   7.3287   7.3779   7.5019   7.5324   7.5558   7.5693   7.5946
     7.7525   7.7894   7.8030   7.8444   7.9997   8.0079   8.0312   8.0729
     8.1044   8.1452   8.2554   8.2621   8.2862   8.3176   8.3184   8.3858
     8.4087   8.4439   8.4966   8.6425   8.6482   8.7470   8.9480   8.9570
     8.9870   9.0141   9.0662   9.1426   9.1752   9.1963   9.2151   9.2439
     9.2554   9.2754   9.2776   9.3479   9.3863   9.4207   9.4338   9.4456
     9.4875   9.5362   9.6688   9.7240   9.7244   9.7571   9.8395   9.8542
     9.8775   9.8854   9.9629  10.0041

          k = 0.2500-0.2165 0.0000 (256316 PWs)   bands (ev):

   -17.8730 -17.0333 -16.1153 -15.8147 -15.4711 -15.3300 -15.1325 -14.6431
   -14.4404 -14.1524 -14.0701 -13.6464 -13.2332 -13.1558 -13.0824 -12.7252
   -12.5858 -12.0485 -11.9762 -11.4675 -11.3813 -11.2420 -11.0797 -10.8790
   -10.5887  -9.8255  -9.7148  -9.3450  -9.3093  -9.0774  -8.9984  -8.6507
    -8.5744  -8.4493  -8.3837  -7.2392  -6.9757  -6.8191  -6.6924  -6.5792
    -6.4677  -6.4291  -6.2661  -6.0608  -6.0310  -5.7162  -5.7053  -5.5581
    -5.2947  -5.1565  -5.0412  -4.9457  -4.8153  -4.6972  -4.6781  -4.6541
    -4.5167  -4.5062  -4.4076  -4.3495  -4.3442  -4.2742  -4.1640  -4.1356
    -4.1111  -3.9930  -3.8837  -3.7634  -3.7222  -3.6633  -3.5707  -3.5357
    -3.4832  -3.4582  -3.4573  -3.3644  -3.3133  -3.2699  -3.2323  -3.1760
    -3.1132  -3.0594  -2.9811  -2.9516  -2.9265  -2.9149  -2.9072  -2.9034
    -2.8370  -2.7484  -2.6782  -2.6388  -2.5626  -2.4108  -2.3200  -2.3140
    -2.2929  -2.2464  -2.1838  -2.1721  -2.1681  -2.1677  -2.1256  -2.0848
    -2.0099  -2.0092  -2.0022  -1.9652  -1.9574  -1.8937  -1.8503  -1.8274
    -1.8168  -1.8125  -1.8118  -1.7687  -1.7504  -1.7423  -1.7246  -1.7210
    -1.7108  -1.7077  -1.6994  -1.6818  -1.6769  -1.6762  -1.6760  -1.6687
    -1.6669  -1.6627  -1.5841  -1.5785  -1.5129  -1.4683  -1.4652  -1.3796
    -1.3669  -1.3651  -1.3482  -1.3299  -1.3290  -1.2865  -1.2768  -1.2765
    -1.2625  -1.2621  -1.2497  -1.2491  -1.2422  -1.2379  -1.2281  -1.2234
    -1.2190  -1.2152  -1.2093  -1.2047  -1.2034  -1.1962  -1.1907  -1.1826
    -1.1799  -1.1629  -1.1333  -1.1291  -1.1276  -1.1217  -1.1160  -1.1132
    -1.1103  -1.1020  -1.0812  -1.0788  -1.0401  -1.0393  -1.0369  -1.0354
    -1.0278  -1.0233  -0.9970  -0.9956  -0.9956  -0.9778  -0.9724  -0.9691
    -0.9612  -0.9598  -0.9558  -0.9554  -0.9489  -0.9432  -0.9251  -0.9229
    -0.9006  -0.8990  -0.8716  -0.8634  -0.8619  -0.8612  -0.8163  -0.7830
    -0.7811  -0.7777  -0.7750  -0.7701  -0.7689  -0.7643  -0.7244  -0.7210
    -0.7130  -0.7123  -0.7082  -0.7056  -0.7015  -0.6961  -0.6934  -0.6853
    -0.6531  -0.6521  -0.6157  -0.6137  -0.5939  -0.5762  -0.5683  -0.5642
    -0.5631  -0.5625  -0.5345  -0.5324  -0.5276  -0.5233  -0.5162  -0.5024
    -0.5002  -0.4930  -0.4868  -0.4811  -0.4638  -0.4583  -0.4466  -0.4428
    -0.4387  -0.4326  -0.4115  -0.4083  -0.4079  -0.3984  -0.3938  -0.3910
    -0.3805  -0.3730  -0.3672  -0.3658  -0.3628  -0.3625  -0.3573  -0.3554
    -0.3518  -0.3506  -0.3362  -0.3308  -0.3181  -0.3169  -0.3119  -0.2923
    -0.2798  -0.2738  -0.2698  -0.2576  -0.2493  -0.2396  -0.2393  -0.2311
    -0.2182  -0.2168  -0.2166  -0.2151  -0.2090  -0.1832  -0.1734  -0.1540
    -0.1538  -0.1171  -0.1167  -0.1078  -0.1076  -0.1051  -0.1035  -0.0872
    -0.0870  -0.0836  -0.0698  -0.0689  -0.0669  -0.0600  -0.0524  -0.0472
    -0.0447  -0.0412  -0.0395  -0.0379  -0.0351  -0.0160  -0.0119  -0.0066
    -0.0034  -0.0027  -0.0012  -0.0007   0.0019   0.0026   0.0059   0.0098
     0.0125   0.0311   0.0317   0.0322   0.0326   0.0639   0.0651   0.0715
     0.0732   0.0743   0.0756   0.0918   0.0997   0.1013   0.1215   0.1315
     0.1327   0.1362   0.1419   0.1442   0.1518   0.1520   0.1534   0.1593
     0.1674   0.1713   0.1764   0.1774   0.2022   0.2062   0.2550   0.2680
     0.2728   0.2778   0.2790   0.2821   0.2834   0.2853   0.2870   0.2929
     0.2944   0.2961   0.2988   0.3116   0.3173   0.3203   0.3246   0.3253
     0.3294   0.3315   0.3373   0.3384   0.3484   0.3648   0.3715   0.3791
     0.3812   0.3814   0.3951   0.4040   0.4062   0.4392   0.4397   0.4466
     0.4493   0.4540   0.4567   0.4572   0.4683   0.4708   0.4717   0.4757
     0.4777   0.4809   0.4823   0.4855   0.4895   0.5061   0.5129   0.5139
     0.5213   0.5343   0.5361   0.5369   0.5665   0.5674   0.5685   0.5693
     0.5890   0.5991   0.6042   0.6054   0.6061   0.6093   0.6120   0.6145
     0.6156   0.6252   0.6264   0.6314   0.6320   0.6344   0.6452   0.6505
     0.6526   0.6569   0.6669   0.6677   0.6693   0.6717   0.6739   0.6790
     0.6821   0.6845   0.6890   0.6902   0.6998   0.7013   0.7076   0.7118
     0.7140   0.7163   0.7174   0.7189   0.7208   0.7216   0.7411   0.7543
     0.7585   0.7677   0.7690   0.7789   0.7918   0.7971   0.8069   0.8220
     0.8237   0.8246   0.8256   0.8270   0.8298   0.8316   0.8532   0.8542
     0.8551   0.8552   0.8556   0.8572   0.8584   0.8738   0.8812   0.8830
     0.8862   0.8888   0.8957   0.8984   0.9055   0.9261   0.9289   0.9295
     0.9420   0.9540   0.9569   0.9604   0.9628   0.9642   0.9650   0.9662
     0.9685   0.9763   0.9857   1.0027   1.0038   1.0158   1.0188   1.0196
     1.0308   1.0362   1.0401   1.0461   1.0568   1.0633   1.0774   1.0806
     1.0810   1.0880   1.0897   1.0907   1.0917   1.0922   1.0932   1.0946
     1.0969   1.1036   1.1063   1.1080   1.1134   1.1177   1.1207   1.1297
     1.1387   1.1426   1.1625   1.1662   1.1669   1.1739   1.1743   1.1762
     1.1784   1.1838   1.1859   1.1888   1.1905   1.1920   1.1938   1.1982
     1.2033   1.2044   1.2054   1.2068   1.2112   1.2189   1.2223   1.2237
     1.2247   1.2252   1.2261   1.2316   1.2392   1.2447   1.2455   1.2467
     1.2701   1.2711   1.2784   1.2790   1.2869   1.2964   1.2974   1.2999
     1.3107   1.3110   1.3163   1.3215   1.3240   1.3303   1.3319   1.3343
     1.3365   1.3385   1.3468   1.3475   1.3492   1.3523   1.3593   1.3608
     1.3681   1.3773   1.3816   1.3823   1.3826   1.3840   1.3851   1.3860
     1.3930   1.3934   1.4040   1.4047   1.4057   1.4109   1.4119   1.4221
     1.4231   1.4332   1.4339   1.4373   1.4379   1.4386   1.4427   1.4441
     1.4441   1.4450   1.4508   1.4540   1.4542   1.4628   1.4789   1.4790
     1.4846   1.4896   1.5006   1.5029   1.5164   1.5218   1.5258   1.5288
     1.5490   1.5510   1.5540   1.5577   1.5589   1.5849   1.5870   1.6390
     1.6558   1.6668   1.6745   1.6875   1.7513   1.7559   1.7724   1.7732
     1.7833   1.7891   1.7906   1.7909   1.8034   1.8465   1.8527   2.1230
     2.1261   2.1572   2.1599   2.2723   2.2907   2.4972   2.5838   2.5847
     2.7846   2.7895   2.7901   2.7946   2.8067   2.8118   2.8395   2.8568
     2.9824   2.9853   3.0861   3.0915   3.5388   3.5434   3.6042   3.6196
     3.6856   3.6944   3.8227   3.8398   3.8444   3.8487   3.9318   3.9960
     4.0017   4.0597   4.0998   4.1623   4.1643   4.3743   4.3752   4.4190
     4.5509   4.5559   4.6256   4.6615   4.6728   4.7309   4.7641   4.9368
     4.9429   5.0046   5.0392   5.0473   5.1574   5.2295   5.2932   5.3305
     5.4273   5.4458   5.4543   5.4596   5.4632   5.5185   5.7549   5.7657
     5.8500   5.9018   5.9122   5.9350   5.9835   6.2939   6.5831   6.5986
     6.6303   6.6368   6.7448   6.7615   6.8589   6.8699   6.8904   7.0482
     7.0588   7.0729   7.0988   7.1018   7.1334   7.1516   7.2114   7.2227
     7.3177   7.3343   7.3414   7.3443   7.3846   7.4410   7.4430   7.5826
     7.6574   7.6776   7.7612   7.7975   7.8843   7.9058   8.0037   8.0156
     8.1956   8.2003   8.2467   8.2699   8.3257   8.5159   8.5878   8.5936
     8.6203   8.6291   8.6471   8.6525   8.6991   8.7156   8.7302   8.8655
     8.9268   8.9399   8.9524   8.9684   9.1200   9.1426   9.1475   9.1772
     9.1841   9.2161   9.2220   9.2264   9.2375   9.2704   9.2835   9.3428
     9.3663   9.4266   9.4408   9.4798   9.5133   9.6430   9.6549   9.7411
     9.9542   9.9611   9.9863   9.9938

          k =-0.5000 0.0000 0.0000 (256496 PWs)   bands (ev):

   -17.8655 -16.9703 -15.9823 -15.7185 -15.5984 -15.5168 -15.3989 -14.6724
   -14.4832 -14.4553 -14.4007 -13.1319 -12.8394 -12.7291 -12.6767 -12.3727
   -12.3305 -11.8926 -11.8749 -11.7557 -11.6873 -11.1781 -11.1655 -10.9134
   -10.7212 -10.2662 -10.2495  -9.9986  -9.7303  -9.1164  -9.0936  -8.9527
    -8.9094  -7.7845  -7.5719  -7.5515  -7.4035  -7.3430  -7.3135  -6.2523
    -6.1883  -5.8015  -5.5885  -5.3123  -5.3095  -5.1972  -5.1180  -4.9505
    -4.8846  -4.8270  -4.8105  -4.8048  -4.7969  -4.7788  -4.7425  -4.7081
    -4.6756  -4.6551  -4.5817  -4.5247  -4.4664  -4.3738  -4.3593  -4.2763
    -4.2405  -4.0638  -3.9979  -3.9703  -3.9654  -3.8575  -3.6705  -3.6562
    -3.5858  -3.5679  -3.5559  -3.4484  -3.4219  -3.4200  -3.4188  -3.4100
    -3.3824  -3.3513  -3.3373  -3.3004  -2.9844  -2.9683  -2.8066  -2.7957
    -2.7640  -2.7536  -2.7469  -2.6618  -2.6187  -2.6004  -2.5104  -2.4426
    -2.4232  -2.3239  -2.3020  -2.2977  -2.2951  -2.1737  -1.8887  -1.8790
    -1.8785  -1.8782  -1.8769  -1.8760  -1.8729  -1.8215  -1.7756  -1.7524
    -1.7485  -1.7312  -1.6786  -1.6510  -1.6504  -1.6499  -1.6487  -1.6027
    -1.6017  -1.6010  -1.6003  -1.5708  -1.5257  -1.5022  -1.4985  -1.4876
    -1.4870  -1.4290  -1.4255  -1.4250  -1.4229  -1.4195  -1.4069  -1.4052
    -1.3585  -1.3581  -1.3530  -1.3529  -1.3505  -1.3425  -1.3414  -1.3384
    -1.3345  -1.3320  -1.2934  -1.2917  -1.2900  -1.2892  -1.2690  -1.2683
    -1.2674  -1.2662  -1.2044  -1.2037  -1.1946  -1.1843  -1.1840  -1.1815
    -1.1807  -1.1630  -1.1580  -1.1542  -1.1526  -1.1513  -1.1473  -1.1468
    -1.1212  -1.1078  -1.1076  -1.1066  -1.1056  -1.0859  -1.0848  -1.0680
    -1.0557  -1.0550  -1.0100  -1.0088  -0.9819  -0.9813  -0.9790  -0.9776
    -0.9748  -0.9530  -0.9519  -0.9512  -0.9488  -0.9475  -0.9440  -0.9372
    -0.9323  -0.9311  -0.9287  -0.9282  -0.9048  -0.9036  -0.8974  -0.8426
    -0.8420  -0.8389  -0.8380  -0.7950  -0.7941  -0.7783  -0.7118  -0.7110
    -0.7105  -0.7090  -0.6913  -0.6737  -0.6729  -0.6717  -0.6714  -0.6706
    -0.6701  -0.6632  -0.6505  -0.6337  -0.6320  -0.6311  -0.6303  -0.6181
    -0.6168  -0.6035  -0.6002  -0.5972  -0.5876  -0.5700  -0.5186  -0.5126
    -0.5066  -0.4724  -0.4657  -0.4650  -0.4565  -0.4563  -0.4499  -0.4289
    -0.4112  -0.4093  -0.4066  -0.4063  -0.4059  -0.4040  -0.4010  -0.3764
    -0.3689  -0.3682  -0.3667  -0.3660  -0.3506  -0.3298  -0.3294  -0.3284
    -0.3280  -0.3126  -0.2954  -0.2950  -0.2946  -0.2936  -0.2839  -0.2833
    -0.2508  -0.2508  -0.2487  -0.2480  -0.2428  -0.2398  -0.2360  -0.2258
    -0.2170  -0.2029  -0.1964  -0.1368  -0.1362  -0.1347  -0.1347  -0.1292
    -0.1290  -0.1270  -0.1266  -0.0961  -0.0898  -0.0893  -0.0859  -0.0683
    -0.0528  -0.0518  -0.0251  -0.0242  -0.0235  -0.0224  -0.0220  -0.0217
    -0.0212  -0.0201  -0.0197  -0.0193  -0.0182  -0.0153   0.0002   0.0560
     0.0597   0.0600   0.0664   0.0679   0.0690   0.0714   0.0717   0.0726
     0.0769   0.0779   0.0808   0.0815   0.0840   0.0860   0.0865   0.0872
     0.0923   0.1018   0.1018   0.1167   0.1173   0.1183   0.1191   0.1193
     0.1194   0.1282   0.1283   0.1284   0.1288   0.1377   0.1416   0.1419
     0.1462   0.1541   0.1545   0.1550   0.1555   0.1783   0.1832   0.1851
     0.2206   0.2617   0.2850   0.2852   0.2881   0.2882   0.3188   0.3193
     0.3202   0.3204   0.3318   0.3330   0.3346   0.3394   0.3427   0.3438
     0.3444   0.3448   0.3480   0.3502   0.3520   0.3526   0.3546   0.3594
     0.3609   0.3706   0.3716   0.3737   0.3763   0.3874   0.3878   0.3938
     0.3980   0.3983   0.4009   0.4054   0.4227   0.4449   0.4854   0.4902
     0.4928   0.4939   0.5040   0.5052   0.5189   0.5210   0.5257   0.5270
     0.5289   0.5294   0.5302   0.5316   0.5337   0.5345   0.5349   0.5381
     0.5391   0.5393   0.5446   0.5454   0.5470   0.5473   0.5589   0.5693
     0.5788   0.5843   0.5845   0.5978   0.6008   0.6140   0.6166   0.6191
     0.6196   0.6237   0.6299   0.6305   0.6312   0.6339   0.6348   0.6368
     0.6443   0.6502   0.6521   0.6532   0.6660   0.6679   0.6695   0.6716
     0.7006   0.7052   0.7056   0.7068   0.7101   0.7135   0.7142   0.7268
     0.7290   0.7426   0.7614   0.7618   0.7648   0.7664   0.7675   0.7679
     0.7703   0.8069   0.8088   0.8286   0.8366   0.8400   0.8410   0.8413
     0.8418   0.8426   0.8468   0.8517   0.8527   0.8543   0.8545   0.8645
     0.8670   0.8836   0.8856   0.8875   0.8889   0.9048   0.9054   0.9057
     0.9063   0.9076   0.9082   0.9095   0.9127   0.9430   0.9473   0.9475
     0.9489   0.9959   1.0013   1.0098   1.0129   1.0143   1.0159   1.0268
     1.0460   1.0464   1.0473   1.0484   1.0582   1.0644   1.0678   1.0692
     1.0770   1.0784   1.0818   1.0921   1.1018   1.1059   1.1112   1.1168
     1.1168   1.1184   1.1189   1.1221   1.1235   1.1259   1.1269   1.1351
     1.1355   1.1358   1.1359   1.1372   1.1377   1.1408   1.1411   1.1663
     1.1758   1.1766   1.1768   1.1778   1.2013   1.2044   1.2128   1.2129
     1.2132   1.2146   1.2164   1.2301   1.2312   1.2411   1.2413   1.2420
     1.2424   1.2474   1.2488   1.2524   1.2531   1.2535   1.2622   1.2630
     1.2767   1.2789   1.2867   1.2990   1.2993   1.3038   1.3151   1.3155
     1.3158   1.3160   1.3162   1.3168   1.3181   1.3235   1.3265   1.3296
     1.3300   1.3311   1.3318   1.3325   1.3331   1.3371   1.3400   1.3420
     1.3423   1.3423   1.3432   1.3493   1.3494   1.3639   1.3655   1.3836
     1.3865   1.3875   1.3901   1.3909   1.3917   1.3931   1.3935   1.4082
     1.4104   1.4144   1.4153   1.4240   1.4290   1.4321   1.4364   1.4437
     1.4488   1.4491   1.4495   1.4534   1.4689   1.4698   1.4729   1.4773
     1.4779   1.4784   1.4787   1.4791   1.4793   1.4831   1.4918   1.4983
     1.5014   1.5123   1.5136   1.5137   1.5141   1.5144   1.5235   1.5281
     1.5327   1.5736   1.5791   1.5813   1.6063   1.6071   1.6106   1.6122
     1.6350   2.0113   2.0306   2.0357   2.0386   2.1584   2.2381   2.2526
     2.2631   2.2825   2.2839   2.2919   2.2926   2.4061   2.6224   2.6263
     2.6327   2.6590   2.8307   2.8355   2.8371   2.8393   3.1810   3.1844
     3.1884   3.1886   3.4741   3.4788   3.7349   3.7670   3.7685   3.7696
     3.9150   3.9227   3.9259   3.9299   4.0379   4.0684   4.0708   4.0765
     4.1920   4.2072   4.3140   4.3946   4.4937   4.5386   4.7436   4.7619
     4.7654   4.7755   4.8206   4.8255   4.8262   4.8646   4.9672   5.0170
     5.0182   5.0461   5.0499   5.0533   5.0556   5.0733   5.0768   5.0798
     5.1236   5.1267   5.1662   5.4126   5.4752   5.5310   5.5490   5.6099
     5.6909   5.6995   5.8440   5.8975   5.9907   5.9972   6.0089   6.0136
     6.0495   6.0543   6.0619   6.0631   6.4295   6.4440   6.4521   6.4612
     6.4669   6.4817   6.5057   7.0482   7.0898   7.1006   7.1230   7.1271
     7.1284   7.3240   7.5802   7.5907   7.6029   7.6040   7.6042   7.6072
     7.6479   7.6967   7.8141   7.8208   7.8807   7.8910   7.8933   7.8959
     7.9337   8.0517   8.0633   8.0701   8.0827   8.1494   8.1571   8.1712
     8.2339   8.3231   8.5281   8.6933   8.7553   8.8309   8.8337   8.8382
     8.8386   8.9046   9.0007   9.0101   9.0251   9.0771   9.0793   9.0860
     9.1000   9.2606   9.2665   9.3986   9.4366   9.5037   9.5203   9.5219
     9.5238   9.5283   9.5326   9.5331   9.5346   9.5416   9.5497   9.7986
     9.8368   9.8856   9.9801  10.0199

          k =-0.5000-0.2165 0.0000 (256328 PWs)   bands (ev):

   -17.8654 -16.9704 -15.9501 -15.7711 -15.7363 -15.3097 -15.1254 -15.0816
   -14.9308 -13.8741 -13.7666 -13.6766 -13.6488 -12.6263 -12.3886 -11.9806
   -11.9694 -11.7827 -11.6863 -11.6473 -11.5625 -11.4969 -11.4838 -11.3868
   -11.2982 -10.0048  -9.9445  -9.7365  -9.7007  -9.1894  -8.8140  -8.7677
    -8.7293  -8.2287  -8.2046  -8.0001  -7.9713  -6.4706  -6.3008  -6.2063
    -5.9234  -5.8206  -5.6014  -5.4112  -5.3435  -5.2704  -5.2613  -5.1890
    -5.1840  -5.1803  -5.1771  -5.1068  -4.9978  -4.9219  -4.7471  -4.4766
    -4.4166  -4.3372  -4.3086  -4.2786  -4.2113  -4.2043  -4.1988  -4.1935
    -4.1846  -4.1553  -4.0659  -3.9856  -3.9120  -3.8631  -3.8409  -3.8150
    -3.7607  -3.7080  -3.6756  -3.6345  -3.5729  -3.5370  -3.4940  -3.4748
    -3.4235  -3.2925  -3.1464  -3.0675  -3.0489  -2.8662  -2.6216  -2.5797
    -2.5793  -2.5784  -2.5741  -2.5556  -2.5382  -2.5192  -2.5170  -2.5149
    -2.4183  -2.3642  -2.1788  -2.1404  -2.0998  -2.0962  -2.0873  -2.0732
    -2.0556  -2.0252  -2.0146  -2.0094  -1.9946  -1.9923  -1.8047  -1.8038
    -1.8014  -1.8010  -1.7740  -1.7415  -1.7217  -1.6592  -1.5577  -1.5190
    -1.5033  -1.4942  -1.4932  -1.4928  -1.4926  -1.4923  -1.4552  -1.4542
    -1.4532  -1.4399  -1.4340  -1.4310  -1.4308  -1.4276  -1.3863  -1.3854
    -1.3846  -1.3840  -1.3834  -1.3830  -1.3783  -1.3751  -1.3580  -1.3579
    -1.3575  -1.3573  -1.3430  -1.3101  -1.3070  -1.3066  -1.3034  -1.2402
    -1.2361  -1.2291  -1.2283  -1.1907  -1.1905  -1.1898  -1.1895  -1.1776
    -1.1740  -1.1730  -1.1705  -1.1506  -1.1254  -1.1205  -1.1202  -1.1198
    -1.1156  -1.1155  -1.1152  -1.1134  -1.1014  -1.0870  -1.0826  -1.0634
    -1.0605  -1.0584  -1.0533  -1.0511  -1.0430  -1.0426  -1.0374  -1.0367
    -1.0366  -1.0358  -1.0355  -1.0347  -1.0254  -1.0043  -0.8848  -0.8835
    -0.8818  -0.8800  -0.8526  -0.8525  -0.8519  -0.8518  -0.8231  -0.7897
    -0.7718  -0.7712  -0.7698  -0.7681  -0.7634  -0.7627  -0.7620  -0.7613
    -0.7609  -0.7587  -0.7431  -0.7023  -0.6996  -0.6994  -0.6972  -0.6898
    -0.6895  -0.6887  -0.6867  -0.6709  -0.6695  -0.6644  -0.6625  -0.6235
    -0.5788  -0.5748  -0.5731  -0.5675  -0.5667  -0.5650  -0.5562  -0.4995
    -0.4991  -0.4975  -0.4967  -0.4853  -0.4491  -0.4489  -0.4480  -0.4413
    -0.4285  -0.4285  -0.4270  -0.4266  -0.4034  -0.3994  -0.3986  -0.3898
    -0.3887  -0.3886  -0.3871  -0.3667  -0.3509  -0.3494  -0.3455  -0.3168
    -0.2756  -0.2752  -0.2712  -0.2707  -0.2570  -0.2568  -0.2560  -0.2557
    -0.2405  -0.2397  -0.2392  -0.2361  -0.1583  -0.1579  -0.1575  -0.1547
    -0.1541  -0.1533  -0.1518  -0.1509  -0.1503  -0.1497  -0.1494  -0.1424
    -0.1118  -0.1117  -0.1115  -0.1111  -0.1002  -0.0997  -0.0995  -0.0994
    -0.0951  -0.0945  -0.0942  -0.0930  -0.0295  -0.0268  -0.0258  -0.0225
    -0.0146  -0.0023  -0.0004   0.0044   0.0108   0.0441   0.0516   0.0552
     0.0582   0.0650   0.0775   0.0800   0.0803   0.0813   0.0823   0.0870
     0.0875   0.0888   0.0892   0.0909   0.0937   0.0944   0.1005   0.1007
     0.1012   0.1016   0.1035   0.1067   0.1070   0.1092   0.1096   0.1230
     0.1234   0.1240   0.1246   0.1512   0.1513   0.1519   0.1520   0.1600
     0.1612   0.1625   0.1646   0.2000   0.2106   0.2115   0.2116   0.2134
     0.2265   0.2437   0.2440   0.2456   0.2535   0.2918   0.3043   0.3226
     0.3232   0.3252   0.3286   0.3301   0.3365   0.3424   0.3443   0.3451
     0.3468   0.3538   0.3549   0.3572   0.3581   0.3637   0.3644   0.3673
     0.3684   0.3701   0.3720   0.3722   0.3751   0.3792   0.3818   0.3872
     0.3909   0.4088   0.4458   0.4506   0.4525   0.4541   0.4563   0.4573
     0.4583   0.4629   0.4698   0.4701   0.4713   0.4716   0.4992   0.5044
     0.5074   0.5095   0.5099   0.5111   0.5170   0.5175   0.5398   0.5514
     0.5531   0.5539   0.5556   0.5586   0.5669   0.5673   0.5684   0.5692
     0.5695   0.5718   0.5753   0.5758   0.5760   0.5797   0.5885   0.5917
     0.5927   0.5933   0.5946   0.6059   0.6062   0.6079   0.6572   0.6676
     0.6700   0.6780   0.6803   0.6814   0.6833   0.6835   0.6856   0.6856
     0.6897   0.6924   0.6926   0.7005   0.7091   0.7112   0.7277   0.7289
     0.7299   0.7304   0.7305   0.7319   0.7325   0.7348   0.7584   0.7762
     0.7831   0.7841   0.7855   0.8110   0.8111   0.8118   0.8143   0.8184
     0.8340   0.8387   0.8470   0.8477   0.8491   0.8508   0.8707   0.8723
     0.8733   0.8760   0.9245   0.9255   0.9259   0.9266   0.9286   0.9557
     0.9582   0.9593   0.9599   0.9670   1.0079   1.0099   1.0110   1.0116
     1.0180   1.0276   1.0299   1.0366   1.0372   1.0395   1.0401   1.0445
     1.0445   1.0447   1.0453   1.0470   1.0475   1.0491   1.0503   1.0511
     1.0596   1.0737   1.0741   1.0776   1.0793   1.0796   1.0800   1.0815
     1.0844   1.0865   1.0883   1.0966   1.0981   1.0993   1.1125   1.1161
     1.1234   1.1246   1.1252   1.1287   1.1333   1.1361   1.1394   1.1420
     1.1442   1.1448   1.1585   1.1799   1.1921   1.1942   1.1951   1.1960
     1.1971   1.1993   1.2116   1.2185   1.2216   1.2223   1.2236   1.2255
     1.2377   1.2380   1.2409   1.2447   1.2519   1.2528   1.2622   1.2691
     1.2704   1.2707   1.2713   1.2790   1.2796   1.2807   1.2813   1.2859
     1.2867   1.2875   1.2886   1.3410   1.3510   1.3515   1.3531   1.3533
     1.3542   1.3544   1.3547   1.3552   1.3559   1.3630   1.3660   1.3672
     1.3719   1.3732   1.3741   1.3753   1.3812   1.3836   1.3842   1.3844
     1.3883   1.3911   1.3933   1.3946   1.3953   1.3954   1.3957   1.4001
     1.4035   1.4092   1.4124   1.4146   1.4167   1.4173   1.4175   1.4480
     1.4494   1.4496   1.4498   1.4591   1.4643   1.4644   1.4665   1.4693
     1.4752   1.4794   1.4840   1.4949   1.5005   1.5006   1.5028   1.5292
     1.5498   1.5522   1.5595   1.5726   1.5735   1.5736   1.5741   1.5994
     1.6011   1.6040   1.6066   1.6097   1.6126   1.6138   1.6145   1.6156
     1.6164   1.6168   1.6184   1.8316   1.8360   1.8370   1.8377   2.2251
     2.3504   2.3513   2.3549   2.4161   2.5595   2.5601   2.5620   2.5967
     2.7943   2.8001   2.8020   2.8101   3.0869   3.1018   3.1043   3.1134
     3.4525   3.4528   3.4535   3.4542   3.6397   3.6430   3.6460   3.6489
     3.9223   3.9283   3.9288   3.9292   4.1631   4.2253   4.2279   4.2284
     4.2458   4.3460   4.3506   4.3586   4.3655   4.5509   4.5658   4.5711
     4.5737   4.5810   4.5959   4.6100   4.6931   4.8190   4.8960   4.9208
     5.0263   5.0368   5.0677   5.0687   5.1692   5.1718   5.1805   5.2236
     5.2518   5.2992   5.3057   5.3582   5.3659   5.3677   5.3695   5.3996
     5.6374   5.7049   5.7448   5.7477   5.7501   5.7510   5.7527   5.8508
     5.9046   5.9106   5.9150   6.5663   6.7650   6.7653   6.8038   6.8056
     7.1176   7.1205   7.1345   7.1393   7.1498   7.1584   7.1636   7.1925
     7.2782   7.2961   7.3007   7.3106   7.3687   7.3691   7.3714   7.3751
     7.6223   7.6296   7.6344   7.6441   7.7435   7.8610   7.9509   7.9688
     7.9809   7.9952   8.0110   8.0585   8.2286   8.2330   8.2393   8.2575
     8.3734   8.3928   8.4950   8.6237   8.8926   8.8940   8.8972   8.8989
     8.9068   8.9249   8.9319   8.9362   8.9656   8.9687   8.9732   8.9810
     9.1042   9.1418   9.1436   9.1477   9.1914   9.3216   9.4270   9.5182
     9.5333   9.5438   9.5495   9.5681   9.5884   9.5936   9.6015   9.6041
     9.9234   9.9974   9.9992  10.0207

     the Fermi energy is     3.3220 ev

!    total energy              =  -12740.11876809 Ry
     Harris-Foulkes estimate   =  -12740.11876809 Ry
     estimated scf accuracy    <          5.5E-09 Ry

     The total energy is the sum of the following terms:

     one-electron contribution = -108950.49555874 Ry
     hartree contribution      =   55840.39563948 Ry
     xc contribution           =   -4455.48880268 Ry
     ewald contribution        =   44831.82981499 Ry
     Dispersion Correction     =      -3.00587863 Ry
     smearing contrib. (-TS)   =      -3.35398251 Ry

     convergence has been achieved in  47 iterations

     Writing output data file gc.save
 
     init_run     :     99.17s CPU    106.47s WALL (       1 calls)
     electrons    :  12829.76s CPU  13699.90s WALL (       1 calls)

     Called by init_run:
     wfcinit      :     96.54s CPU    103.41s WALL (       1 calls)
     potinit      :      0.51s CPU      0.53s WALL (       1 calls)

     Called by electrons:
     c_bands      :  11781.36s CPU  12546.44s WALL (      47 calls)
     sum_band     :    871.96s CPU    948.64s WALL (      47 calls)
     v_of_rho     :      3.14s CPU      3.84s WALL (      48 calls)
     newd         :      9.26s CPU     16.05s WALL (      48 calls)
     mix_rho      :    163.88s CPU    184.88s WALL (      47 calls)

     Called by c_bands:
     init_us_2    :     39.58s CPU     40.24s WALL (     570 calls)
     cegterg      :  11606.13s CPU  12365.05s WALL (     287 calls)

     Called by sum_band:
     sum_band:bec :      5.00s CPU      5.70s WALL (     282 calls)
     addusdens    :      9.45s CPU     15.76s WALL (      47 calls)

     Called by *egterg:
     h_psi        :   4240.12s CPU   4573.69s WALL (    2002 calls)
     s_psi        :   1014.14s CPU   1025.19s WALL (    2002 calls)
     g_psi        :     10.68s CPU     10.68s WALL (    1709 calls)
     cdiaghg      :   3453.48s CPU   3584.65s WALL (    1991 calls)

     Called by h_psi:
     add_vuspsi   :   1018.33s CPU   1031.66s WALL (    2002 calls)

     General routines
     calbec       :   1461.79s CPU   1472.13s WALL (    2284 calls)
     fft          :      4.00s CPU      4.58s WALL (     623 calls)
     ffts         :     95.87s CPU    108.26s WALL (   24844 calls)
     fftw         :   2463.53s CPU   2733.21s WALL ( 1351626 calls)
     davcio       :      0.25s CPU      4.86s WALL (       6 calls)
 
     Parallel routines
     fft_scatter  :   1601.03s CPU   1746.95s WALL ( 1377093 calls)
 
     PWSCF        :     3h35m CPU        3h50m WALL

 
   This run was terminated on:  12:38:36   1May2017            

=------------------------------------------------------------------------------=
   JOB DONE.
=------------------------------------------------------------------------------=
