
     Program PWSCF v.5.4.0 starts on  9Mar2017 at 23:26: 7 

     This program is part of the open-source Quantum ESPRESSO suite
     for quantum simulation of materials; please cite
         "P. Giannozzi et al., J. Phys.:Condens. Matter 21 395502 (2009);
          URL http://www.quantum-espresso.org", 
     in publications or presentations arising from this work. More details at
     http://www.quantum-espresso.org/quote

     Parallel version (MPI & OpenMP), running on      64 processor cores
     Number of MPI processes:                64
     Threads/MPI process:                     1
     R & G space division:  proc/nbgrp/npool/nimage =      64
     Waiting for input...
     Reading input from standard input
Warning: card &IONS ignored
Warning: card / ignored

     Current dimensions of program PWSCF are:
     Max number of different atomic species (ntypx) = 10
     Max number of k-points (npk) =  40000
     Max angular momentum in pseudopotentials (lmaxx) =  3

     -------------------------------------
     Parameters for Dispersion Correction:
     -------------------------------------
       atom      VdW radius       C_6     

        Cu         2.952        374.666
        C_h        2.744         60.710
        C          2.744         60.710

     Subspace diagonalization in iterative solution of the eigenvalue problem:
     one sub-group per band group will be used
     scalapack distributed-memory algorithm (size of sub-group:  5*  5 procs)

 
     Parallelization info
     --------------------
     sticks:   dense  smooth     PW     G-vecs:    dense   smooth      PW
     Min         178     178     47                32032    32032    4341
     Max         179     179     48                32043    32043    4347
     Sum       11433   11433   3039              2050409  2050409  278033
 


     bravais-lattice index     =            0
     lattice parameter (alat)  =      13.9425  a.u.
     unit-cell volume          =   21209.0878 (a.u.)^3
     number of atoms/cell      =          148
     number of atomic types    =            3
     number of electrons       =      1292.00
     number of Kohn-Sham states=          775
     kinetic-energy cutoff     =      80.0000  Ry
     charge density cutoff     =     320.0000  Ry
     convergence threshold     =      1.0E-08
     mixing beta               =       0.7000
     number of iterations used =            8  local-TF  mixing
     Exchange-correlation      =  SLA  PW   PBX  PBC ( 1  4  3  4 0 0)

     celldm(1)=  13.942539  celldm(2)=   0.000000  celldm(3)=   0.000000
     celldm(4)=   0.000000  celldm(5)=   0.000000  celldm(6)=   0.000000

     crystal axes: (cart. coord. in units of alat)
               a(1) = (   1.000000   0.000000   0.000000 )  
               a(2) = (   0.000000   2.309401   0.000000 )  
               a(3) = (   0.000000   0.000000   3.388418 )  

     reciprocal axes: (cart. coord. in units 2 pi/alat)
               b(1) = (  1.000000  0.000000  0.000000 )  
               b(2) = (  0.000000  0.433013  0.000000 )  
               b(3) = (  0.000000  0.000000  0.295123 )  


     PseudoPot. # 1 for Cu read from file:
     /home/549/hxw549/Short/pseudopotentials/Cu.pbe-n-van_ak.UPF
     MD5 check sum: 601f7c30f7467666bec936e0661ce3e1
     Pseudo is Ultrasoft + core correction, Zval = 11.0
     Generated by new atomic code, or converted to UPF format
     Using radial grid of  867 points,  6 beta functions with: 
                l(1) =   0
                l(2) =   0
                l(3) =   1
                l(4) =   1
                l(5) =   2
                l(6) =   2
     Q(r) pseudized with  8 coefficients,  rinner =    1.400   1.400   1.400
                                                       1.400   1.400

     PseudoPot. # 2 for C  read from file:
     /home/549/hxw549/Short/pseudopotentials/C.star1s-pbe-mt_gipaw.UPF
     MD5 check sum: ef0cb3dee31bd9e4ba2a832a2c716264
     Pseudo is Norm-conserving, Zval =  5.0
     Generated by new atomic code, or converted to UPF format
     Using radial grid of 1073 points,  1 beta functions with: 
                l(1) =   0

     PseudoPot. # 3 for C  read from file:
     /home/549/hxw549/Short/pseudopotentials/C.pbe-mt_gipaw.UPF
     MD5 check sum: 5ac2f21f2c440b14befe521540822c15
     Pseudo is Norm-conserving, Zval =  4.0
     Generated by new atomic code, or converted to UPF format
     Using radial grid of 1073 points,  1 beta functions with: 
                l(1) =   0

     atomic species   valence    mass     pseudopotential
        Cu            11.00    63.54600     Cu( 1.00)
        C_h            5.00    12.01070     C ( 1.00)
        C              4.00    12.01070     C ( 1.00)

      2 Sym. Ops. (no inversion) found



   Cartesian axes

     site n.     atom                  positions (alat units)
         1           Cu  tau(   1) = (   0.0000000   0.0000567   0.9971194  )
         2           Cu  tau(   2) = (   0.2499927   0.2309760   0.9972946  )
         3           Cu  tau(   3) = (   0.5000000   0.0000313   0.9971490  )
         4           Cu  tau(   4) = (   0.7500073   0.2309760   0.9972946  )
         5           Cu  tau(   5) = (   0.0000000   0.4618437   0.9973425  )
         6           Cu  tau(   6) = (   0.2499840   0.6927701   0.9971914  )
         7           Cu  tau(   7) = (   0.5000000   0.4618722   0.9973119  )
         8           Cu  tau(   8) = (   0.7500160   0.6927701   0.9971914  )
         9           Cu  tau(   9) = (   0.0000000   0.9237521   0.9970621  )
        10           Cu  tau(  10) = (   0.2500157   1.1547420   0.9971373  )
        11           Cu  tau(  11) = (   0.5000000   0.9237453   0.9970727  )
        12           Cu  tau(  12) = (   0.7499843   1.1547420   0.9971373  )
        13           Cu  tau(  13) = (   0.0000000   1.3856555   0.9972830  )
        14           Cu  tau(  14) = (   0.2500029   1.6165618   0.9973242  )
        15           Cu  tau(  15) = (   0.5000000   1.3857014   0.9973005  )
        16           Cu  tau(  16) = (   0.7499971   1.6165618   0.9973242  )
        17           Cu  tau(  17) = (   0.0000000   1.8474941   0.9971969  )
        18           Cu  tau(  18) = (   0.2500043   2.0784518   0.9970745  )
        19           Cu  tau(  19) = (   0.5000000   1.8474499   0.9971773  )
        20           Cu  tau(  20) = (   0.7499957   2.0784518   0.9970745  )
        21           Cu  tau(  21) = (   0.0000000   0.2308065   1.2457643  )
        22           Cu  tau(  22) = (   0.2499892  -0.0001010   1.2455764  )
        23           Cu  tau(  23) = (   0.5000000   0.2308938   1.2456746  )
        24           Cu  tau(  24) = (   0.7500108  -0.0001010   1.2455764  )
        25           Cu  tau(  25) = (   0.0000000   0.6929786   1.2456406  )
        26           Cu  tau(  26) = (   0.2499874   0.4619293   1.2457459  )
        27           Cu  tau(  27) = (   0.5000000   0.6929012   1.2456074  )
        28           Cu  tau(  28) = (   0.7500126   0.4619293   1.2457459  )
        29           Cu  tau(  29) = (   0.0000000   1.1546142   1.2455676  )
        30           Cu  tau(  30) = (   0.2499981   0.9237849   1.2455149  )
        31           Cu  tau(  31) = (   0.5000000   1.1545763   1.2455800  )
        32           Cu  tau(  32) = (   0.7500019   0.9237849   1.2455149  )
        33           Cu  tau(  33) = (   0.0000000   1.6166029   1.2456910  )
        34           Cu  tau(  34) = (   0.2500161   1.3855492   1.2457134  )
        35           Cu  tau(  35) = (   0.5000000   1.6166555   1.2458019  )
        36           Cu  tau(  36) = (   0.7499839   1.3855492   1.2457134  )
        37           Cu  tau(  37) = (   0.0000000   2.0784993   1.2455162  )
        38           Cu  tau(  38) = (   0.2500161   1.8476387   1.2456210  )
        39           Cu  tau(  39) = (   0.5000000   2.0784755   1.2455152  )
        40           Cu  tau(  40) = (   0.7499839   1.8476387   1.2456210  )
        41           Cu  tau(  41) = (   0.0000000  -0.0003182   1.4954305  )
        42           Cu  tau(  42) = (   0.2500224   0.2307186   1.4951678  )
        43           Cu  tau(  43) = (   0.5000000  -0.0002059   1.4952775  )
        44           Cu  tau(  44) = (   0.7499776   0.2307186   1.4951678  )
        45           Cu  tau(  45) = (   0.0000000   0.4620254   1.4950571  )
        46           Cu  tau(  46) = (   0.2500339   0.6931225   1.4952807  )
        47           Cu  tau(  47) = (   0.5000000   0.4619896   1.4952144  )
        48           Cu  tau(  48) = (   0.7499661   0.6931225   1.4952807  )
        49           Cu  tau(  49) = (   0.0000000   0.9238798   1.4954544  )
        50           Cu  tau(  50) = (   0.2499708   1.1544329   1.4953374  )
        51           Cu  tau(  51) = (   0.5000000   0.9237633   1.4954072  )
        52           Cu  tau(  52) = (   0.7500292   1.1544329   1.4953374  )
        53           Cu  tau(  53) = (   0.0000000   1.3854453   1.4952066  )
        54           Cu  tau(  54) = (   0.2499861   1.6167017   1.4951298  )
        55           Cu  tau(  55) = (   0.5000000   1.3853760   1.4951346  )
        56           Cu  tau(  56) = (   0.7500139   1.6167017   1.4951298  )
        57           Cu  tau(  57) = (   0.0000000   1.8477718   1.4952308  )
        58           Cu  tau(  58) = (   0.2499930   2.0785254   1.4954090  )
        59           Cu  tau(  59) = (   0.5000000   1.8478762   1.4953503  )
        60           Cu  tau(  60) = (   0.7500070   2.0785254   1.4954090  )
        61           Cu  tau(  61) = (   0.0000000   0.2310733   1.7440777  )
        62           Cu  tau(  62) = (   0.2501089  -0.0001294   1.7450479  )
        63           Cu  tau(  63) = (   0.5000000   0.2306045   1.7445985  )
        64           Cu  tau(  64) = (   0.7498911  -0.0001294   1.7450479  )
        65           Cu  tau(  65) = (   0.0000000   0.6927994   1.7446059  )
        66           Cu  tau(  66) = (   0.2502918   0.4619532   1.7441197  )
        67           Cu  tau(  67) = (   0.5000000   0.6931011   1.7451318  )
        68           Cu  tau(  68) = (   0.7497082   0.4619532   1.7441197  )
        69           Cu  tau(  69) = (   0.0000000   1.1545789   1.7453503  )
        70           Cu  tau(  70) = (   0.2500220   0.9237908   1.7453835  )
        71           Cu  tau(  71) = (   0.5000000   1.1545999   1.7449118  )
        72           Cu  tau(  72) = (   0.7499780   0.9237908   1.7453835  )
        73           Cu  tau(  73) = (   0.0000000   1.6167791   1.7444075  )
        74           Cu  tau(  74) = (   0.2497438   1.3855115   1.7442733  )
        75           Cu  tau(  75) = (   0.5000000   1.6164906   1.7439233  )
        76           Cu  tau(  76) = (   0.7502562   1.3855115   1.7442733  )
        77           Cu  tau(  77) = (   0.0000000   2.0782721   1.7455014  )
        78           Cu  tau(  78) = (   0.2498426   1.8476765   1.7447807  )
        79           Cu  tau(  79) = (   0.5000000   2.0787016   1.7454002  )
        80           Cu  tau(  80) = (   0.7501574   1.8476765   1.7447807  )
        81           Cu  tau(  81) = (   0.0000000   0.0010732   1.9906710  )
        82           Cu  tau(  82) = (   0.2503054   0.2314650   1.9904877  )
        83           Cu  tau(  83) = (   0.5000000   0.0001335   1.9924670  )
        84           Cu  tau(  84) = (   0.7496946   0.2314650   1.9904877  )
        85           Cu  tau(  85) = (   0.0000000   0.4618379   1.9901778  )
        86           Cu  tau(  86) = (   0.2508441   0.6921348   1.9910282  )
        87           Cu  tau(  87) = (   0.5000000   0.4613052   1.9913358  )
        88           Cu  tau(  88) = (   0.7491559   0.6921348   1.9910282  )
        89           Cu  tau(  89) = (   0.0000000   0.9224699   1.9915918  )
        90           Cu  tau(  90) = (   0.2491275   1.1552920   1.9912642  )
        91           Cu  tau(  91) = (   0.5000000   0.9247757   1.9920574  )
        92           Cu  tau(  92) = (   0.7508725   1.1552920   1.9912642  )
        93           Cu  tau(  93) = (   0.0000000   1.3865904   1.9916296  )
        94           Cu  tau(  94) = (   0.2499532   1.6162906   1.9903050  )
        95           Cu  tau(  95) = (   0.5000000   1.3858063   1.9901800  )
        96           Cu  tau(  96) = (   0.7500468   1.6162906   1.9903050  )
        97           Cu  tau(  97) = (   0.0000000   1.8468318   1.9923212  )
        98           Cu  tau(  98) = (   0.2497561   2.0783183   1.9915134  )
        99           Cu  tau(  99) = (   0.5000000   1.8467805   1.9903847  )
       100           Cu  tau( 100) = (   0.7502439   2.0783183   1.9915134  )
       101           C   tau( 101) = (   0.0000000   0.0962962   2.4064410  )
       102           C   tau( 102) = (   0.0000000   0.2886925   2.4379940  )
       103           C   tau( 103) = (   0.1666323   0.0000435   2.3878454  )
       104           C   tau( 104) = (   0.1664900   0.3848966   2.4473596  )
       105           C   tau( 105) = (   0.3331238   0.0962174   2.4035541  )
       106           C   tau( 106) = (   0.3331280   0.2886629   2.4336026  )
       107           C   tau( 107) = (   0.5000000  -0.0000818   2.3845519  )
       108           C   tau( 108) = (   0.5000000   0.3849277   2.4429275  )
       109           C   tau( 109) = (   0.6668762   0.0962174   2.4035541  )
       110           C   tau( 110) = (   0.6668720   0.2886629   2.4336026  )
       111           C   tau( 111) = (   0.8333677   0.0000435   2.3878454  )
       112           C   tau( 112) = (   0.8335100   0.3848966   2.4473596  )
       113           C   tau( 113) = (   0.0000000   0.6735163   2.4547192  )
       114           C   tau( 114) = (   0.0000000   0.8659398   2.4350257  )
       115           C   tau( 115) = (   0.1664759   0.5773226   2.4560475  )
       116           C   tau( 116) = (   0.1667428   0.9622141   2.4209164  )
       117           C   tau( 117) = (   0.3332094   0.6735984   2.4512630  )
       118           C   tau( 118) = (   0.3332031   0.8660537   2.4345242  )
       119           C   tau( 119) = (   0.5000000   0.5773685   2.4526184  )
       120           C_h tau( 120) = (   0.5000000   0.9623380   2.4199540  )
       121           C   tau( 121) = (   0.6667906   0.6735984   2.4512630  )
       122           C   tau( 122) = (   0.6667969   0.8660537   2.4345242  )
       123           C   tau( 123) = (   0.8335241   0.5773226   2.4560475  )
       124           C   tau( 124) = (   0.8332572   0.9622141   2.4209164  )
       125           C   tau( 125) = (   0.0000000   1.2508867   2.3677317  )
       126           C   tau( 126) = (   0.0000000   1.4433300   2.3361788  )
       127           C   tau( 127) = (   0.1667360   1.1546708   2.3859750  )
       128           C   tau( 128) = (   0.1668939   1.5396104   2.3270301  )
       129           C   tau( 129) = (   0.3335095   1.2509657   2.3703476  )
       130           C   tau( 130) = (   0.3334866   1.4433958   2.3407328  )
       131           C   tau( 131) = (   0.5000000   1.1547731   2.3885366  )
       132           C   tau( 132) = (   0.5000000   1.5396099   2.3314486  )
       133           C   tau( 133) = (   0.6664905   1.2509657   2.3703476  )
       134           C   tau( 134) = (   0.6665134   1.4433958   2.3407328  )
       135           C   tau( 135) = (   0.8332640   1.1546708   2.3859750  )
       136           C   tau( 136) = (   0.8331061   1.5396104   2.3270301  )
       137           C   tau( 137) = (   0.0000000   1.8283510   2.3187488  )
       138           C   tau( 138) = (   0.0000000   2.0207949   2.3384287  )
       139           C   tau( 139) = (   0.1668959   1.7320513   2.3180982  )
       140           C   tau( 140) = (   0.1666186   2.1169980   2.3526601  )
       141           C   tau( 141) = (   0.3334155   1.8282368   2.3227607  )
       142           C   tau( 142) = (   0.3334352   2.0206763   2.3390251  )
       143           C   tau( 143) = (   0.5000000   1.7319961   2.3217712  )
       144           C   tau( 144) = (   0.5000000   2.1168754   2.3531209  )
       145           C   tau( 145) = (   0.6665845   1.8282368   2.3227607  )
       146           C   tau( 146) = (   0.6665648   2.0206763   2.3390251  )
       147           C   tau( 147) = (   0.8331041   1.7320513   2.3180982  )
       148           C   tau( 148) = (   0.8333814   2.1169980   2.3526601  )

     number of k points=     6  gaussian smearing, width (Ry)=  0.1000
                       cart. coord. in units 2pi/alat
        k(    1) = (   0.0000000   0.0000000   0.0000000), wk =   0.2500000
        k(    2) = (   0.0000000  -0.2165064   0.0000000), wk =   0.2500000
        k(    3) = (   0.2500000   0.0000000   0.0000000), wk =   0.5000000
        k(    4) = (   0.2500000  -0.2165064   0.0000000), wk =   0.5000000
        k(    5) = (  -0.5000000   0.0000000   0.0000000), wk =   0.2500000
        k(    6) = (  -0.5000000  -0.2165064   0.0000000), wk =   0.2500000

     Dense  grid:  2050409 G-vectors     FFT dimensions: (  80, 192, 270)

     Largest allocated arrays     est. size (Mb)     dimensions
        Kohn-Sham Wavefunctions        47.35 Mb     (    4004,  775)
        NL pseudopotentials           112.91 Mb     (    4004, 1848)
        Each V/rho on FFT grid          1.17 Mb     (   76800)
        Each G-vector array             0.24 Mb     (   32034)
        G-vector shells                 0.12 Mb     (   15554)
     Largest temporary arrays     est. size (Mb)     dimensions
        Auxiliary wavefunctions       189.40 Mb     (    4004, 3100)
        Each subspace H/S matrix        5.87 Mb     (     620,  620)
        Each <psi_i|beta_j> matrix     21.85 Mb     (    1848,  775)
        Arrays for rho mixing           9.38 Mb     (   76800,    8)

     Initial potential from superposition of free atoms
     Check: negative starting charge=   -0.001835

     starting charge 1266.81751, renormalised to 1292.00000

     negative rho (up, down):  1.871E-03 0.000E+00
     Starting wfc are 1284 randomized atomic wfcs

     total cpu time spent up to now is      150.9 secs

     Self-consistent Calculation

     iteration #  1     ecut=    80.00 Ry     beta=0.70
     Davidson diagonalization with overlap
     c_bands:  2 eigenvalues not converged
     c_bands:  4 eigenvalues not converged
     ethr =  1.00E-04,  avg # of iterations = 41.0

     negative rho (up, down):  2.702E+01 0.000E+00

     total cpu time spent up to now is     3167.0 secs

     total energy              =   -9519.10216523 Ry
     Harris-Foulkes estimate   =  -17297.87079477 Ry
     estimated scf accuracy    <  179261.86745647 Ry

     iteration #  2     ecut=    80.00 Ry     beta=0.70
     Davidson diagonalization with overlap
     ethr =  1.00E-02,  avg # of iterations = 12.7

     negative rho (up, down):  3.182E+01 0.000E+00

     total cpu time spent up to now is     4506.0 secs

     total energy              =  -12294.98293619 Ry
     Harris-Foulkes estimate   =  -13648.57630156 Ry
     estimated scf accuracy    <   22500.88147869 Ry

     iteration #  3     ecut=    80.00 Ry     beta=0.70
     Davidson diagonalization with overlap
     ethr =  1.00E-02,  avg # of iterations =  7.0

     negative rho (up, down):  3.204E+01 0.000E+00

     total cpu time spent up to now is     5275.7 secs

     total energy              =  -12456.66760338 Ry
     Harris-Foulkes estimate   =  -13383.78666822 Ry
     estimated scf accuracy    <    5997.84470309 Ry

     iteration #  4     ecut=    80.00 Ry     beta=0.70
     Davidson diagonalization with overlap
     ethr =  1.00E-02,  avg # of iterations =  5.5

     negative rho (up, down):  2.472E+01 0.000E+00

     total cpu time spent up to now is     5954.4 secs

     total energy              =  -12830.27036178 Ry
     Harris-Foulkes estimate   =  -13094.05653113 Ry
     estimated scf accuracy    <    2470.30917132 Ry

     iteration #  5     ecut=    80.00 Ry     beta=0.70
     Davidson diagonalization with overlap
     ethr =  1.00E-02,  avg # of iterations =  4.0

     negative rho (up, down):  1.859E+01 0.000E+00

     total cpu time spent up to now is     6375.5 secs

     total energy              =  -12848.73483229 Ry
     Harris-Foulkes estimate   =  -12986.00305501 Ry
     estimated scf accuracy    <    1233.90804003 Ry

     iteration #  6     ecut=    80.00 Ry     beta=0.70
     Davidson diagonalization with overlap
     ethr =  1.00E-02,  avg # of iterations =  3.0

     negative rho (up, down):  1.303E+01 0.000E+00

     total cpu time spent up to now is     6663.5 secs

     total energy              =  -12838.48917609 Ry
     Harris-Foulkes estimate   =  -12914.38120196 Ry
     estimated scf accuracy    <     611.72851068 Ry

     iteration #  7     ecut=    80.00 Ry     beta=0.70
     Davidson diagonalization with overlap
     ethr =  1.00E-02,  avg # of iterations =  2.0

     negative rho (up, down):  8.749E+00 0.000E+00

     total cpu time spent up to now is     6919.8 secs

     total energy              =  -12806.55195194 Ry
     Harris-Foulkes estimate   =  -12855.77491506 Ry
     estimated scf accuracy    <     418.28197834 Ry

     iteration #  8     ecut=    80.00 Ry     beta=0.70
     Davidson diagonalization with overlap
     ethr =  1.00E-02,  avg # of iterations =  2.0

     negative rho (up, down):  7.379E+00 0.000E+00

     total cpu time spent up to now is     7168.8 secs

     total energy              =  -12791.65094490 Ry
     Harris-Foulkes estimate   =  -12820.15608325 Ry
     estimated scf accuracy    <     575.47104057 Ry

     iteration #  9     ecut=    80.00 Ry     beta=0.70
     Davidson diagonalization with overlap
     ethr =  1.00E-02,  avg # of iterations =  1.0

     negative rho (up, down):  6.871E+00 0.000E+00

     total cpu time spent up to now is     7399.9 secs

     total energy              =  -12794.24170180 Ry
     Harris-Foulkes estimate   =  -12803.69455658 Ry
     estimated scf accuracy    <     297.88445496 Ry

     iteration # 10     ecut=    80.00 Ry     beta=0.70
     Davidson diagonalization with overlap
     ethr =  1.00E-02,  avg # of iterations =  1.0

     negative rho (up, down):  2.449E+00 0.000E+00

     total cpu time spent up to now is     7631.9 secs

     total energy              =  -12752.70840221 Ry
     Harris-Foulkes estimate   =  -12797.22974453 Ry
     estimated scf accuracy    <     173.54421253 Ry

     iteration # 11     ecut=    80.00 Ry     beta=0.70
     Davidson diagonalization with overlap
     ethr =  1.00E-02,  avg # of iterations =  2.0

     negative rho (up, down):  1.458E+00 0.000E+00

     total cpu time spent up to now is     7878.5 secs

     total energy              =  -12739.74434792 Ry
     Harris-Foulkes estimate   =  -12763.76593882 Ry
     estimated scf accuracy    <     425.72022816 Ry

     iteration # 12     ecut=    80.00 Ry     beta=0.70
     Davidson diagonalization with overlap
     ethr =  1.00E-02,  avg # of iterations =  2.0

     negative rho (up, down):  8.100E-01 0.000E+00

     total cpu time spent up to now is     8125.8 secs

     total energy              =  -12729.93775294 Ry
     Harris-Foulkes estimate   =  -12749.88171878 Ry
     estimated scf accuracy    <     200.50572824 Ry

     iteration # 13     ecut=    80.00 Ry     beta=0.70
     Davidson diagonalization with overlap
     ethr =  1.00E-02,  avg # of iterations =  2.0

     negative rho (up, down):  3.325E+00 0.000E+00

     total cpu time spent up to now is     8374.5 secs

     total energy              =  -12715.59807801 Ry
     Harris-Foulkes estimate   =  -12746.04512640 Ry
     estimated scf accuracy    <     283.79726850 Ry

     iteration # 14     ecut=    80.00 Ry     beta=0.70
     Davidson diagonalization with overlap
     ethr =  1.00E-02,  avg # of iterations =  2.0

     negative rho (up, down):  4.063E+00 0.000E+00

     total cpu time spent up to now is     8623.1 secs

     total energy              =  -12719.78747778 Ry
     Harris-Foulkes estimate   =  -12730.34104456 Ry
     estimated scf accuracy    <     145.38528787 Ry

     iteration # 15     ecut=    80.00 Ry     beta=0.70
     Davidson diagonalization with overlap
     ethr =  1.00E-02,  avg # of iterations =  1.7

     negative rho (up, down):  5.154E+00 0.000E+00

     total cpu time spent up to now is     8866.3 secs

     total energy              =  -12719.21856429 Ry
     Harris-Foulkes estimate   =  -12725.05705380 Ry
     estimated scf accuracy    <      60.03411002 Ry

     iteration # 16     ecut=    80.00 Ry     beta=0.70
     Davidson diagonalization with overlap
     ethr =  4.65E-03,  avg # of iterations =  2.7

     negative rho (up, down):  5.242E+00 0.000E+00

     total cpu time spent up to now is     9122.7 secs

     total energy              =  -12716.29003484 Ry
     Harris-Foulkes estimate   =  -12721.27939592 Ry
     estimated scf accuracy    <      44.84729710 Ry

     iteration # 17     ecut=    80.00 Ry     beta=0.70
     Davidson diagonalization with overlap
     ethr =  3.47E-03,  avg # of iterations =  1.5

     negative rho (up, down):  6.156E+00 0.000E+00

     total cpu time spent up to now is     9361.7 secs

     total energy              =  -12715.77572791 Ry
     Harris-Foulkes estimate   =  -12718.68771914 Ry
     estimated scf accuracy    <      33.80798994 Ry

     iteration # 18     ecut=    80.00 Ry     beta=0.70
     Davidson diagonalization with overlap
     ethr =  2.62E-03,  avg # of iterations =  2.7

     negative rho (up, down):  5.008E+00 0.000E+00

     total cpu time spent up to now is     9620.2 secs

     total energy              =  -12714.04819658 Ry
     Harris-Foulkes estimate   =  -12717.19346616 Ry
     estimated scf accuracy    <      24.16681579 Ry

     iteration # 19     ecut=    80.00 Ry     beta=0.70
     Davidson diagonalization with overlap
     ethr =  1.87E-03,  avg # of iterations =  5.7

     negative rho (up, down):  4.079E+00 0.000E+00

     total cpu time spent up to now is     9923.5 secs

     total energy              =  -12713.06418926 Ry
     Harris-Foulkes estimate   =  -12714.60411747 Ry
     estimated scf accuracy    <      13.01187745 Ry

     iteration # 20     ecut=    80.00 Ry     beta=0.70
     Davidson diagonalization with overlap
     ethr =  1.01E-03,  avg # of iterations =  5.7

     negative rho (up, down):  2.914E+00 0.000E+00

     total cpu time spent up to now is    10235.2 secs

     total energy              =  -12712.51803550 Ry
     Harris-Foulkes estimate   =  -12713.33153385 Ry
     estimated scf accuracy    <       8.90450171 Ry

     iteration # 21     ecut=    80.00 Ry     beta=0.70
     Davidson diagonalization with overlap
     ethr =  6.89E-04,  avg # of iterations =  2.8

     negative rho (up, down):  1.803E+00 0.000E+00

     total cpu time spent up to now is    10496.1 secs

     total energy              =  -12711.49022902 Ry
     Harris-Foulkes estimate   =  -12712.68937340 Ry
     estimated scf accuracy    <       7.63421043 Ry

     iteration # 22     ecut=    80.00 Ry     beta=0.70
     Davidson diagonalization with overlap
     ethr =  5.91E-04,  avg # of iterations =  1.0

     negative rho (up, down):  1.909E+00 0.000E+00

     total cpu time spent up to now is    10729.7 secs

     total energy              =  -12711.57808764 Ry
     Harris-Foulkes estimate   =  -12711.64597718 Ry
     estimated scf accuracy    <      10.36744011 Ry

     iteration # 23     ecut=    80.00 Ry     beta=0.70
     Davidson diagonalization with overlap
     ethr =  5.91E-04,  avg # of iterations =  1.0

     negative rho (up, down):  2.136E+00 0.000E+00

     total cpu time spent up to now is    10961.8 secs

     total energy              =  -12711.67998522 Ry
     Harris-Foulkes estimate   =  -12711.71757154 Ry
     estimated scf accuracy    <       8.08009194 Ry

     iteration # 24     ecut=    80.00 Ry     beta=0.70
     Davidson diagonalization with overlap
     ethr =  5.91E-04,  avg # of iterations =  1.0

     negative rho (up, down):  5.328E-01 0.000E+00

     total cpu time spent up to now is    11194.4 secs

     total energy              =  -12710.63170874 Ry
     Harris-Foulkes estimate   =  -12711.80717119 Ry
     estimated scf accuracy    <       6.79856163 Ry

     iteration # 25     ecut=    80.00 Ry     beta=0.70
     Davidson diagonalization with overlap
     c_bands:  3 eigenvalues not converged
     ethr =  5.26E-04,  avg # of iterations = 13.0

     total cpu time spent up to now is    11610.2 secs

     total energy              =  -12709.39744869 Ry
     Harris-Foulkes estimate   =  -12710.73130100 Ry
     estimated scf accuracy    <       6.71228790 Ry

     iteration # 26     ecut=    80.00 Ry     beta=0.70
     Davidson diagonalization with overlap
     ethr =  5.20E-04,  avg # of iterations =  1.2

     total cpu time spent up to now is    11842.9 secs

     total energy              =  -12709.00006752 Ry
     Harris-Foulkes estimate   =  -12709.54847050 Ry
     estimated scf accuracy    <       9.07825357 Ry

     iteration # 27     ecut=    80.00 Ry     beta=0.70
     Davidson diagonalization with overlap
     ethr =  5.20E-04,  avg # of iterations =  1.0

     total cpu time spent up to now is    12075.0 secs

     total energy              =  -12708.65370716 Ry
     Harris-Foulkes estimate   =  -12709.11814638 Ry
     estimated scf accuracy    <       4.53703597 Ry

     iteration # 28     ecut=    80.00 Ry     beta=0.70
     Davidson diagonalization with overlap
     ethr =  3.51E-04,  avg # of iterations =  1.2

     total cpu time spent up to now is    12312.0 secs

     total energy              =  -12708.10412939 Ry
     Harris-Foulkes estimate   =  -12708.73040621 Ry
     estimated scf accuracy    <       3.93747209 Ry

     iteration # 29     ecut=    80.00 Ry     beta=0.70
     Davidson diagonalization with overlap
     ethr =  3.05E-04,  avg # of iterations =  2.0

     negative rho (up, down):  1.162E-01 0.000E+00

     total cpu time spent up to now is    12560.0 secs

     total energy              =  -12707.15122759 Ry
     Harris-Foulkes estimate   =  -12708.20003486 Ry
     estimated scf accuracy    <       2.83554794 Ry

     iteration # 30     ecut=    80.00 Ry     beta=0.70
     Davidson diagonalization with overlap
     ethr =  2.19E-04,  avg # of iterations =  8.3

     negative rho (up, down):  2.343E-01 0.000E+00

     total cpu time spent up to now is    12936.4 secs

     total energy              =  -12707.09361549 Ry
     Harris-Foulkes estimate   =  -12707.30553888 Ry
     estimated scf accuracy    <       1.48365868 Ry

     iteration # 31     ecut=    80.00 Ry     beta=0.70
     Davidson diagonalization with overlap
     ethr =  1.15E-04,  avg # of iterations =  8.5

     negative rho (up, down):  3.296E-01 0.000E+00

     total cpu time spent up to now is    13299.1 secs

     total energy              =  -12707.08944567 Ry
     Harris-Foulkes estimate   =  -12707.17824373 Ry
     estimated scf accuracy    <       0.71678650 Ry

     iteration # 32     ecut=    80.00 Ry     beta=0.70
     Davidson diagonalization with overlap
     ethr =  5.55E-05,  avg # of iterations =  7.5

     negative rho (up, down):  3.104E-01 0.000E+00

     total cpu time spent up to now is    13645.9 secs

     total energy              =  -12707.09098979 Ry
     Harris-Foulkes estimate   =  -12707.13132088 Ry
     estimated scf accuracy    <       0.44918236 Ry

     iteration # 33     ecut=    80.00 Ry     beta=0.70
     Davidson diagonalization with overlap
     ethr =  3.48E-05,  avg # of iterations =  6.0

     negative rho (up, down):  1.558E-01 0.000E+00

     total cpu time spent up to now is    13965.1 secs

     total energy              =  -12707.08267614 Ry
     Harris-Foulkes estimate   =  -12707.10737813 Ry
     estimated scf accuracy    <       0.17436627 Ry

     iteration # 34     ecut=    80.00 Ry     beta=0.70
     Davidson diagonalization with overlap
     ethr =  1.35E-05,  avg # of iterations =  9.5

     negative rho (up, down):  1.183E-01 0.000E+00

     total cpu time spent up to now is    14344.3 secs

     total energy              =  -12707.08556467 Ry
     Harris-Foulkes estimate   =  -12707.09278442 Ry
     estimated scf accuracy    <       0.03573882 Ry

     iteration # 35     ecut=    80.00 Ry     beta=0.70
     Davidson diagonalization with overlap
     ethr =  2.77E-06,  avg # of iterations = 11.3

     negative rho (up, down):  6.736E-02 0.000E+00

     total cpu time spent up to now is    14798.8 secs

     total energy              =  -12707.08776376 Ry
     Harris-Foulkes estimate   =  -12707.09122757 Ry
     estimated scf accuracy    <       0.02424945 Ry

     iteration # 36     ecut=    80.00 Ry     beta=0.70
     Davidson diagonalization with overlap
     c_bands:  1 eigenvalues not converged
     ethr =  1.88E-06,  avg # of iterations = 13.3

     negative rho (up, down):  3.918E-02 0.000E+00

     total cpu time spent up to now is    15247.1 secs

     total energy              =  -12707.08841522 Ry
     Harris-Foulkes estimate   =  -12707.08919366 Ry
     estimated scf accuracy    <       0.00278091 Ry

     iteration # 37     ecut=    80.00 Ry     beta=0.70
     Davidson diagonalization with overlap
     ethr =  2.15E-07,  avg # of iterations =  9.5

     negative rho (up, down):  3.987E-02 0.000E+00

     total cpu time spent up to now is    15629.8 secs

     total energy              =  -12707.08855163 Ry
     Harris-Foulkes estimate   =  -12707.08863997 Ry
     estimated scf accuracy    <       0.00122619 Ry

     iteration # 38     ecut=    80.00 Ry     beta=0.70
     Davidson diagonalization with overlap
     c_bands:  1 eigenvalues not converged
     ethr =  9.49E-08,  avg # of iterations = 10.7

     negative rho (up, down):  1.759E-02 0.000E+00

     total cpu time spent up to now is    16026.9 secs

     total energy              =  -12707.08826364 Ry
     Harris-Foulkes estimate   =  -12707.08864652 Ry
     estimated scf accuracy    <       0.00046768 Ry

     iteration # 39     ecut=    80.00 Ry     beta=0.70
     Davidson diagonalization with overlap
     c_bands:  1 eigenvalues not converged
     c_bands:  2 eigenvalues not converged
     ethr =  3.62E-08,  avg # of iterations = 13.7

     negative rho (up, down):  4.902E-03 0.000E+00

     total cpu time spent up to now is    16493.1 secs

     total energy              =  -12707.08805533 Ry
     Harris-Foulkes estimate   =  -12707.08830954 Ry
     estimated scf accuracy    <       0.00025591 Ry

     iteration # 40     ecut=    80.00 Ry     beta=0.70
     Davidson diagonalization with overlap
     ethr =  1.98E-08,  avg # of iterations =  6.5

     negative rho (up, down):  2.552E-03 0.000E+00

     total cpu time spent up to now is    16830.2 secs

     total energy              =  -12707.08805002 Ry
     Harris-Foulkes estimate   =  -12707.08807606 Ry
     estimated scf accuracy    <       0.00002145 Ry

     iteration # 41     ecut=    80.00 Ry     beta=0.70
     Davidson diagonalization with overlap
     ethr =  1.66E-09,  avg # of iterations =  7.7

     negative rho (up, down):  2.349E-03 0.000E+00

     total cpu time spent up to now is    17229.9 secs

     total energy              =  -12707.08805342 Ry
     Harris-Foulkes estimate   =  -12707.08805316 Ry
     estimated scf accuracy    <       0.00001213 Ry

     iteration # 42     ecut=    80.00 Ry     beta=0.70
     Davidson diagonalization with overlap
     ethr =  9.39E-10,  avg # of iterations =  3.0

     negative rho (up, down):  2.343E-03 0.000E+00

     total cpu time spent up to now is    17503.4 secs

     total energy              =  -12707.08805467 Ry
     Harris-Foulkes estimate   =  -12707.08805463 Ry
     estimated scf accuracy    <       0.00000350 Ry

     iteration # 43     ecut=    80.00 Ry     beta=0.70
     Davidson diagonalization with overlap
     ethr =  2.71E-10,  avg # of iterations =  2.7

     negative rho (up, down):  2.213E-03 0.000E+00

     total cpu time spent up to now is    17779.2 secs

     total energy              =  -12707.08805502 Ry
     Harris-Foulkes estimate   =  -12707.08805506 Ry
     estimated scf accuracy    <       0.00000053 Ry

     iteration # 44     ecut=    80.00 Ry     beta=0.70
     Davidson diagonalization with overlap
     ethr =  4.10E-11,  avg # of iterations =  3.0

     negative rho (up, down):  2.150E-03 0.000E+00

     total cpu time spent up to now is    18077.7 secs

     total energy              =  -12707.08805515 Ry
     Harris-Foulkes estimate   =  -12707.08805510 Ry
     estimated scf accuracy    <       0.00000017 Ry

     iteration # 45     ecut=    80.00 Ry     beta=0.70
     Davidson diagonalization with overlap
     ethr =  1.29E-11,  avg # of iterations =  2.7

     negative rho (up, down):  2.115E-03 0.000E+00

     total cpu time spent up to now is    18349.2 secs

     total energy              =  -12707.08805526 Ry
     Harris-Foulkes estimate   =  -12707.08805517 Ry
     estimated scf accuracy    <       0.00000008 Ry

     iteration # 46     ecut=    80.00 Ry     beta=0.70
     Davidson diagonalization with overlap
     ethr =  6.27E-12,  avg # of iterations =  3.2

     negative rho (up, down):  2.081E-03 0.000E+00

     total cpu time spent up to now is    18636.7 secs

     total energy              =  -12707.08805533 Ry
     Harris-Foulkes estimate   =  -12707.08805527 Ry
     estimated scf accuracy    <       0.00000005 Ry

     iteration # 47     ecut=    80.00 Ry     beta=0.70
     Davidson diagonalization with overlap
     ethr =  3.50E-12,  avg # of iterations =  3.5

     negative rho (up, down):  2.105E-03 0.000E+00

     total cpu time spent up to now is    18916.4 secs

     End of self-consistent calculation

          k = 0.0000 0.0000 0.0000 (256287 PWs)   bands (ev):

   -17.0841 -16.4215 -15.9977 -15.3867 -15.0253 -14.6977 -14.6170 -14.4180
   -14.3071 -14.0449 -14.0286 -13.4870 -13.3334 -13.1538 -13.1253 -13.0704
   -13.0704 -11.7066 -11.5436 -11.5275 -11.3869 -11.2939 -10.3199  -9.8138
    -9.7372  -9.6178  -9.5528  -8.9544  -8.8409  -8.6044  -8.5972  -8.0717
    -7.8979  -7.8472  -7.6665  -7.5870  -7.5574  -7.5090  -7.4763  -6.3885
    -6.3745  -6.1610  -6.0426  -6.0249  -5.9695  -5.9677  -5.9201  -5.8464
    -5.5397  -5.4785  -5.3172  -4.9219  -4.9189  -4.8512  -4.7595  -4.7204
    -4.5609  -4.5127  -4.2400  -4.1310  -4.0201  -3.9792  -3.9671  -3.8959
    -3.6501  -3.6358  -3.5439  -3.5326  -3.5016  -3.4304  -3.4162  -3.4115
    -3.3224  -3.2496  -3.1587  -3.0793  -3.0759  -3.0063  -2.9965  -2.9719
    -2.9194  -2.8991  -2.8972  -2.8947  -2.8722  -2.8609  -2.7644  -2.7263
    -2.7031  -2.6992  -2.6106  -2.4319  -2.4255  -2.4208  -2.3344  -2.2748
    -2.2161  -2.1815  -2.1774  -2.1636  -2.1422  -2.1397  -2.1381  -2.1368
    -2.1359  -2.0634  -2.0599  -2.0114  -2.0093  -2.0066  -2.0018  -1.9982
    -1.9430  -1.8279  -1.7638  -1.7607  -1.7340  -1.7197  -1.7195  -1.7073
    -1.6998  -1.6605  -1.6491  -1.6461  -1.6227  -1.5965  -1.5828  -1.5778
    -1.5737  -1.5499  -1.5480  -1.5427  -1.5282  -1.5219  -1.5195  -1.5045
    -1.5016  -1.4940  -1.4792  -1.4292  -1.4209  -1.4128  -1.4030  -1.3877
    -1.3555  -1.3399  -1.3077  -1.2858  -1.2803  -1.2491  -1.2464  -1.2317
    -1.1992  -1.1979  -1.1789  -1.1760  -1.1644  -1.1505  -1.1451  -1.1399
    -1.1152  -1.1126  -1.0581  -1.0378  -1.0356  -1.0155  -1.0143  -1.0117
    -1.0114  -1.0089  -1.0088  -1.0044  -1.0037  -0.9898  -0.9841  -0.9793
    -0.9454  -0.9317  -0.9285  -0.9237  -0.9218  -0.9165  -0.9129  -0.9093
    -0.9060  -0.9010  -0.8529  -0.8497  -0.8474  -0.8460  -0.8451  -0.8406
    -0.8400  -0.8369  -0.8353  -0.8345  -0.8344  -0.8344  -0.8330  -0.8279
    -0.8274  -0.8189  -0.8129  -0.8083  -0.8047  -0.7743  -0.7440  -0.6793
    -0.6791  -0.6703  -0.6703  -0.6541  -0.6501  -0.6309  -0.6303  -0.6090
    -0.6084  -0.5936  -0.5917  -0.5884  -0.5879  -0.5863  -0.5525  -0.5513
    -0.5488  -0.5483  -0.5447  -0.5445  -0.5344  -0.5336  -0.4824  -0.4823
    -0.4275  -0.4274  -0.4214  -0.4204  -0.4169  -0.4165  -0.3963  -0.3958
    -0.3920  -0.3920  -0.3912  -0.3905  -0.3901  -0.3899  -0.3840  -0.3720
    -0.3717  -0.3671  -0.3647  -0.3646  -0.3408  -0.3402  -0.3182  -0.2875
    -0.2779  -0.2777  -0.2739  -0.2534  -0.2517  -0.2513  -0.2489  -0.2487
    -0.2456  -0.2418  -0.2288  -0.2287  -0.2148  -0.2080  -0.2075  -0.2068
    -0.2050  -0.2048  -0.2016  -0.2014  -0.2006  -0.1983  -0.1970  -0.1787
    -0.1787  -0.1772  -0.1765  -0.1685  -0.1538  -0.1161  -0.1120  -0.1106
    -0.1079  -0.1034  -0.1015  -0.1004  -0.0776  -0.0627  -0.0547  -0.0506
    -0.0499  -0.0485  -0.0476  -0.0456  -0.0448  -0.0396  -0.0010   0.0006
     0.0019   0.0045   0.0134   0.0246   0.0270   0.0305   0.0360   0.0377
     0.0385   0.0415   0.0468   0.0499   0.0509   0.0588   0.0612   0.0615
     0.0726   0.0733   0.0753   0.0759   0.0840   0.0884   0.0889   0.1044
     0.1160   0.1161   0.1432   0.1459   0.1472   0.1740   0.1786   0.1974
     0.2038   0.2094   0.2428   0.2430   0.2453   0.2472   0.2522   0.2530
     0.2708   0.2737   0.2746   0.2752   0.2771   0.2795   0.2805   0.3063
     0.3312   0.3398   0.3532   0.3541   0.3557   0.3579   0.3583   0.3636
     0.3848   0.3852   0.3853   0.3874   0.4001   0.4029   0.4193   0.4284
     0.4306   0.4442   0.4463   0.4492   0.4514   0.4835   0.4879   0.4934
     0.4975   0.5021   0.5058   0.5112   0.5121   0.5150   0.5189   0.5237
     0.5317   0.5318   0.5389   0.5407   0.5445   0.5452   0.5566   0.5584
     0.5614   0.5623   0.5701   0.5707   0.5782   0.5843   0.5845   0.6073
     0.6137   0.6176   0.6180   0.6187   0.6348   0.6368   0.6393   0.6463
     0.6489   0.6562   0.6565   0.6673   0.6677   0.6685   0.6712   0.6837
     0.6859   0.6872   0.6877   0.6885   0.7005   0.7006   0.7095   0.7124
     0.7146   0.7205   0.7322   0.7339   0.7373   0.7406   0.7414   0.7549
     0.7588   0.7601   0.7604   0.7634   0.7634   0.7650   0.7692   0.7726
     0.7732   0.7815   0.8160   0.8167   0.8188   0.8215   0.8254   0.8406
     0.8417   0.8424   0.8651   0.8653   0.8782   0.8799   0.8884   0.8893
     0.8958   0.8980   0.8983   0.9043   0.9127   0.9142   0.9144   0.9239
     0.9418   0.9473   0.9500   0.9536   0.9542   0.9544   0.9645   0.9694
     0.9699   0.9844   0.9901   0.9959   0.9993   1.0075   1.0077   1.0107
     1.0124   1.0194   1.0207   1.0244   1.0262   1.0319   1.0326   1.0390
     1.0401   1.0411   1.0504   1.0573   1.0577   1.0594   1.0647   1.0786
     1.0848   1.0870   1.0896   1.0945   1.1064   1.1089   1.1100   1.1110
     1.1311   1.1319   1.1321   1.1339   1.1341   1.1418   1.1420   1.1428
     1.1442   1.1477   1.1497   1.1616   1.1778   1.1939   1.1969   1.2000
     1.2017   1.2099   1.2177   1.2237   1.2245   1.2253   1.2273   1.2307
     1.2357   1.2379   1.2438   1.2478   1.2500   1.2513   1.2529   1.2644
     1.2716   1.2721   1.2779   1.2793   1.2820   1.2826   1.2860   1.2864
     1.2870   1.2884   1.2937   1.3070   1.3075   1.3132   1.3172   1.3235
     1.3247   1.3247   1.3268   1.3271   1.3314   1.3391   1.3522   1.3578
     1.3633   1.3644   1.3695   1.3710   1.3728   1.3737   1.3791   1.3841
     1.3985   1.3993   1.4005   1.4013   1.4175   1.4238   1.4248   1.4311
     1.4354   1.4361   1.4379   1.4392   1.4409   1.4466   1.4475   1.4489
     1.4515   1.4537   1.4541   1.4634   1.4662   1.4668   1.4741   1.4758
     1.4776   1.4776   1.4793   1.5001   1.5034   1.5074   1.5105   1.5335
     1.5365   1.5393   1.5685   1.5692   1.5696   1.5755   1.5925   1.5949
     1.6003   1.6014   1.6017   1.6207   1.6403   1.6504   1.6513   1.6563
     1.6576   1.6583   1.6588   1.6589   1.8953   1.9708   2.1133   2.1188
     2.1847   2.2062   2.2091   2.2161   2.2166   2.2172   2.2284   2.2284
     2.2490   2.2497   2.4123   2.4152   2.4815   2.4869   2.4899   2.5168
     2.5185   2.5202   2.6301   2.7179   2.7392   2.7577   2.7662   2.9516
     2.9774   2.9969   3.2143   3.5484   3.5509   3.7300   3.8558   3.8685
     3.8716   3.8914   3.9011   3.9300   3.9821   4.0139   4.0197   4.0209
     4.0289   4.0326   4.0328   4.0401   4.0499   4.2487   4.2856   4.2891
     4.3292   4.3745   4.5455   4.6369   4.6756   4.8239   4.8263   4.8554
     5.2918   5.3877   5.4045   5.5095   5.7160   5.7487   5.8446   5.9022
     5.9377   5.9434   6.1313   6.3268   6.3273   6.3649   6.4319   6.4651
     6.4802   6.4974   6.5014   6.5584   6.5974   6.6056   6.6366   6.6785
     6.7796   6.7832   6.7959   6.7960   6.9907   7.0121   7.1560   7.1712
     7.2099   7.2184   7.3868   7.3908   7.5182   7.5924   7.5998   7.7167
     7.7188   7.7344   7.7437   7.9438   8.0286   8.0435   8.1466   8.2158
     8.2258   8.2622   8.2710   8.2925   8.3038   8.3115   8.3658   8.3781
     8.3909   8.4575   8.4800   8.5272   8.5322   8.5975   8.6889   8.6972
     8.7090   8.7140   8.8198   8.8257   8.8281   8.8476   8.9299   8.9803
     9.0847   9.1524   9.1604   9.1770   9.1807   9.1951   9.1988   9.2169
     9.2242   9.3634   9.3752   9.4368   9.4464   9.5988   9.6008   9.6802
     9.6958   9.8416   9.8446   9.8930  10.0052  10.0581  10.0602

          k = 0.0000-0.2165 0.0000 (256176 PWs)   bands (ev):

   -17.0828 -16.4475 -15.8466 -15.6463 -14.9468 -14.5948 -14.4977 -14.3980
   -14.2534 -14.2061 -13.7977 -13.7388 -13.7037 -13.6758 -12.6228 -12.4437
   -12.3849 -12.3204 -12.1944 -12.1096 -10.6569 -10.6029 -10.5547 -10.4193
    -9.4545  -9.3518  -9.3034  -9.1040  -9.0503  -8.9877  -8.4181  -8.2471
    -8.2065  -8.1403  -7.4962  -7.3019  -7.0514  -7.0431  -6.9044  -6.8779
    -6.8414  -6.8337  -6.2685  -6.1665  -5.9173  -5.8632  -5.5371  -5.4624
    -5.3471  -5.2253  -5.2179  -5.0376  -4.9973  -4.8331  -4.8133  -4.7835
    -4.7044  -4.6837  -4.6609  -4.5183  -4.2057  -4.0347  -3.7238  -3.6678
    -3.6648  -3.5831  -3.3476  -3.3458  -3.3415  -3.2842  -3.2825  -3.2304
    -3.1861  -3.1577  -3.0928  -3.0520  -3.0207  -3.0116  -2.9883  -2.9831
    -2.9725  -2.9509  -2.9219  -2.8984  -2.8508  -2.8392  -2.8278  -2.6519
    -2.5853  -2.5709  -2.5651  -2.5620  -2.5597  -2.5202  -2.4779  -2.4170
    -2.3305  -2.3222  -2.3096  -2.2660  -2.2255  -2.2235  -2.1598  -2.1400
    -2.1192  -2.1139  -2.0615  -2.0348  -1.9764  -1.9749  -1.9499  -1.9490
    -1.9092  -1.8593  -1.8549  -1.8393  -1.7946  -1.7657  -1.7548  -1.7536
    -1.7371  -1.7354  -1.7284  -1.7265  -1.7110  -1.7069  -1.6353  -1.6299
    -1.6141  -1.5886  -1.5752  -1.5705  -1.5478  -1.4580  -1.4571  -1.4431
    -1.4419  -1.3701  -1.3649  -1.3603  -1.3553  -1.3550  -1.3063  -1.3010
    -1.2703  -1.2676  -1.2624  -1.2619  -1.2614  -1.2566  -1.2448  -1.2381
    -1.2215  -1.2167  -1.2134  -1.2111  -1.1939  -1.1929  -1.1597  -1.1405
    -1.1384  -1.1380  -1.1257  -1.1224  -1.0769  -1.0752  -1.0436  -1.0376
    -1.0373  -1.0344  -1.0341  -0.9832  -0.9757  -0.9754  -0.9754  -0.9679
    -0.9666  -0.9612  -0.9285  -0.9098  -0.9074  -0.9070  -0.9006  -0.8999
    -0.8891  -0.8877  -0.8812  -0.8801  -0.8306  -0.8251  -0.8180  -0.8089
    -0.8080  -0.8062  -0.8042  -0.8012  -0.7930  -0.7859  -0.7824  -0.7702
    -0.7456  -0.7444  -0.7418  -0.7366  -0.7125  -0.6538  -0.6442  -0.6422
    -0.6397  -0.6391  -0.6188  -0.6185  -0.5973  -0.5962  -0.5945  -0.5934
    -0.5864  -0.5863  -0.5836  -0.5588  -0.5439  -0.5418  -0.5368  -0.5350
    -0.5343  -0.5258  -0.5257  -0.5245  -0.5155  -0.5144  -0.4963  -0.4923
    -0.4922  -0.4690  -0.4690  -0.4653  -0.4562  -0.4409  -0.4392  -0.4319
    -0.4303  -0.4220  -0.4200  -0.4147  -0.4147  -0.3969  -0.3596  -0.3579
    -0.3457  -0.3452  -0.3439  -0.3434  -0.3197  -0.2988  -0.2916  -0.2911
    -0.2881  -0.2758  -0.2751  -0.2654  -0.2640  -0.2615  -0.2578  -0.2557
    -0.2542  -0.2535  -0.2491  -0.2433  -0.2366  -0.2358  -0.2352  -0.2243
    -0.2216  -0.2188  -0.2111  -0.1935  -0.1929  -0.1914  -0.1909  -0.1577
    -0.1481  -0.1465  -0.1301  -0.1280  -0.1249  -0.1244  -0.1207  -0.1179
    -0.1111  -0.1100  -0.1087  -0.0966  -0.0914  -0.0840  -0.0825  -0.0751
    -0.0724  -0.0716  -0.0659  -0.0646  -0.0599  -0.0581  -0.0577  -0.0374
    -0.0127  -0.0120  -0.0081  -0.0067   0.0128   0.0132   0.0221   0.0226
     0.0229   0.0262   0.0388   0.0410   0.0425   0.0433   0.0536   0.0546
     0.0730   0.0803   0.0886   0.0891   0.0902   0.0907   0.1040   0.1071
     0.1241   0.1244   0.1255   0.1258   0.1372   0.1431   0.1468   0.1472
     0.1881   0.1885   0.1937   0.1951   0.2053   0.2130   0.2152   0.2154
     0.2357   0.2364   0.2740   0.2749   0.2787   0.2849   0.3114   0.3152
     0.3347   0.3367   0.3769   0.3822   0.3838   0.3867   0.3884   0.4023
     0.4046   0.4234   0.4243   0.4255   0.4309   0.4389   0.4430   0.4502
     0.4505   0.4510   0.4516   0.4556   0.4618   0.4759   0.4809   0.4838
     0.4843   0.4874   0.4906   0.4933   0.4934   0.5037   0.5262   0.5277
     0.5328   0.5330   0.5393   0.5397   0.5470   0.5508   0.5508   0.5636
     0.5644   0.5648   0.5656   0.5694   0.5700   0.5723   0.5733   0.5763
     0.5857   0.5894   0.5928   0.5931   0.5932   0.5969   0.5984   0.5991
     0.6127   0.6224   0.6543   0.6609   0.6651   0.6678   0.6697   0.6704
     0.6704   0.6771   0.6774   0.6852   0.6910   0.6928   0.6944   0.6951
     0.6983   0.6984   0.7252   0.7292   0.7381   0.7405   0.7413   0.7469
     0.7529   0.7549   0.7564   0.7576   0.7633   0.7780   0.7823   0.7853
     0.7913   0.7931   0.7951   0.7962   0.8409   0.8440   0.8763   0.8766
     0.8800   0.8965   0.9004   0.9018   0.9053   0.9055   0.9099   0.9125
     0.9147   0.9171   0.9248   0.9259   0.9301   0.9322   0.9333   0.9366
     0.9378   0.9486   0.9501   0.9577   0.9583   0.9615   0.9661   0.9771
     0.9803   0.9813   0.9813   0.9835   0.9876   0.9912   0.9936   1.0017
     1.0017   1.0026   1.0038   1.0051   1.0102   1.0109   1.0196   1.0271
     1.0305   1.0318   1.0339   1.0365   1.0406   1.0416   1.0462   1.0464
     1.0496   1.0508   1.0510   1.0532   1.0865   1.1020   1.1047   1.1071
     1.1359   1.1417   1.1417   1.1467   1.1528   1.1539   1.1550   1.1582
     1.1655   1.1680   1.1811   1.1866   1.1944   1.1955   1.2068   1.2070
     1.2083   1.2091   1.2111   1.2114   1.2177   1.2182   1.2215   1.2219
     1.2220   1.2283   1.2349   1.2386   1.2421   1.2454   1.2514   1.2520
     1.2545   1.2550   1.2687   1.2696   1.2775   1.2790   1.2865   1.2889
     1.2908   1.2922   1.3098   1.3126   1.3141   1.3154   1.3162   1.3229
     1.3255   1.3259   1.3268   1.3272   1.3289   1.3387   1.3471   1.3477
     1.3490   1.3567   1.3578   1.3751   1.3762   1.3916   1.3927   1.3936
     1.3943   1.3950   1.3965   1.3982   1.4085   1.4108   1.4129   1.4238
     1.4244   1.4386   1.4396   1.4465   1.4556   1.4560   1.4572   1.4610
     1.4618   1.4654   1.4684   1.4686   1.4894   1.4900   1.4944   1.5026
     1.5033   1.5056   1.5112   1.5123   1.5247   1.5260   1.5407   1.5411
     1.5428   1.5440   1.5550   1.5561   1.5939   1.5957   1.6229   1.6232
     1.6792   1.6918   1.7033   1.7132   1.7258   1.7326   1.7445   1.7549
     1.7955   1.8116   1.8132   1.8177   1.8234   1.8247   1.8296   1.8322
     1.8671   1.8685   1.8978   2.0257   2.0484   2.0785   2.4178   2.4187
     2.4644   2.4657   2.4888   2.5221   2.5829   2.5843   2.5999   2.6000
     2.6279   2.6325   2.7219   2.7241   2.7576   2.7602   2.8468   2.8514
     2.9358   2.9368   3.1845   3.1845   3.2573   3.2670   3.3496   3.5508
     3.5859   3.6209   3.7127   3.7996   3.8443   3.9251   4.0628   4.0794
     4.1766   4.1785   4.3719   4.3730   4.3814   4.3879   4.4881   4.5153
     4.5451   4.7234   4.7848   4.9009   5.0611   5.1032   5.1214   5.1227
     5.3049   5.3734   5.3745   5.3788   5.3802   5.4627   5.5104   5.6223
     5.6491   5.6887   5.7155   5.7196   6.3712   6.3811   6.4348   6.4499
     6.5616   6.5674   6.5746   6.5849   6.6884   6.6982   6.8713   6.8906
     6.9446   7.0050   7.0363   7.0444   7.0560   7.0939   7.1238   7.1577
     7.1776   7.1786   7.2011   7.3581   7.3584   7.4179   7.4321   7.4577
     7.5963   7.6119   7.6507   7.7015   7.7055   7.7480   8.1386   8.1649
     8.1666   8.2812   8.3742   8.3749   8.3847   8.3851   8.4340   8.4450
     8.6063   8.6088   8.6306   8.6409   8.6720   8.7102   8.7339   8.7532
     8.7562   8.7725   8.7988   8.8027   8.9525   8.9708   9.0318   9.0509
     9.0921   9.1418   9.1735   9.1776   9.2655   9.3356   9.3884   9.3904
     9.4040   9.4055   9.4731   9.4781   9.5103   9.5512   9.5973   9.6520
     9.7453   9.7609   9.8022   9.8050   9.8314   9.9016   9.9062

          k = 0.2500 0.0000 0.0000 (256240 PWs)   bands (ev):

   -17.0291 -16.3072 -15.8756 -15.5617 -15.2952 -14.9508 -14.9263 -14.8528
   -14.1021 -13.9327 -13.6600 -13.3851 -13.1930 -13.1154 -12.9557 -12.3751
   -12.2511 -12.1441 -12.0611 -11.3063 -11.0472 -10.8928 -10.6412 -10.4491
   -10.1979  -9.9671  -9.8732  -9.4770  -9.2731  -9.1526  -8.7720  -7.9906
    -7.8435  -7.7337  -7.5999  -7.5732  -7.4664  -7.0705  -6.9277  -6.4122
    -6.2488  -6.0511  -5.9787  -5.9005  -5.8461  -5.4811  -5.3715  -5.3595
    -5.3062  -5.1596  -4.9162  -4.8107  -4.6281  -4.6147  -4.5595  -4.5303
    -4.4776  -4.4207  -4.3871  -4.1440  -4.1112  -4.0742  -4.0054  -3.9908
    -3.9644  -3.8873  -3.8806  -3.8324  -3.8209  -3.7208  -3.6924  -3.6450
    -3.5563  -3.4757  -3.4512  -3.4090  -3.3378  -3.2831  -3.2646  -3.1857
    -3.1459  -3.0090  -2.9536  -2.8771  -2.7993  -2.7824  -2.7780  -2.7601
    -2.6424  -2.5857  -2.5831  -2.4900  -2.4245  -2.3978  -2.3560  -2.3343
    -2.1919  -2.1690  -2.0883  -2.0869  -2.0831  -2.0698  -2.0396  -1.9857
    -1.9799  -1.8879  -1.8762  -1.8718  -1.8279  -1.8167  -1.7939  -1.7902
    -1.7869  -1.7800  -1.7799  -1.7627  -1.7594  -1.7319  -1.7177  -1.7095
    -1.7071  -1.6461  -1.6423  -1.5944  -1.5873  -1.5793  -1.5755  -1.5683
    -1.5677  -1.5630  -1.5508  -1.5091  -1.5062  -1.4923  -1.4891  -1.4771
    -1.4760  -1.4512  -1.3599  -1.3450  -1.3002  -1.2977  -1.2753  -1.2700
    -1.2556  -1.2432  -1.2292  -1.2279  -1.2249  -1.2244  -1.2227  -1.1983
    -1.1946  -1.1728  -1.1710  -1.1668  -1.1653  -1.1424  -1.1304  -1.1281
    -1.1228  -1.1201  -1.1161  -1.1100  -1.1030  -1.0984  -1.0928  -1.0785
    -1.0633  -1.0543  -1.0485  -1.0347  -1.0247  -1.0190  -1.0082  -1.0059
    -1.0007  -0.9990  -0.9891  -0.9885  -0.9707  -0.9694  -0.9675  -0.9661
    -0.9653  -0.9634  -0.9525  -0.9459  -0.9405  -0.9372  -0.9362  -0.9323
    -0.9056  -0.8948  -0.8912  -0.8890  -0.8440  -0.8415  -0.8018  -0.8014
    -0.7843  -0.7836  -0.7807  -0.7607  -0.7593  -0.7465  -0.7441  -0.7437
    -0.7389  -0.7319  -0.7283  -0.7158  -0.6037  -0.5985  -0.5933  -0.5901
    -0.5598  -0.5581  -0.5560  -0.5542  -0.5472  -0.5436  -0.5400  -0.5377
    -0.5297  -0.5244  -0.5204  -0.5165  -0.5158  -0.5133  -0.4843  -0.4777
    -0.4757  -0.4752  -0.4736  -0.4713  -0.4480  -0.4473  -0.4471  -0.4158
    -0.4043  -0.3957  -0.3871  -0.3864  -0.3819  -0.3798  -0.3783  -0.3681
    -0.3674  -0.3572  -0.3447  -0.3441  -0.3284  -0.3256  -0.3191  -0.3154
    -0.2994  -0.2869  -0.2815  -0.2813  -0.2778  -0.2768  -0.2700  -0.2598
    -0.2570  -0.2522  -0.2387  -0.2348  -0.2318  -0.2299  -0.2035  -0.1928
    -0.1893  -0.1873  -0.1851  -0.1827  -0.1742  -0.1723  -0.1705  -0.1702
    -0.1532  -0.1470  -0.1360  -0.1358  -0.1256  -0.1235  -0.1049  -0.1033
    -0.1017  -0.0741  -0.0563  -0.0554  -0.0528  -0.0498  -0.0388  -0.0326
    -0.0289  -0.0246  -0.0112  -0.0069   0.0003   0.0007   0.0015   0.0064
     0.0121   0.0155   0.0160   0.0184   0.0191   0.0198   0.0225   0.0405
     0.0451   0.0466   0.0471   0.0512   0.0515   0.0730   0.0793   0.0857
     0.0878   0.1088   0.1164   0.1193   0.1255   0.1263   0.1319   0.1370
     0.1460   0.1489   0.1546   0.1549   0.1558   0.1719   0.1739   0.2091
     0.2138   0.2379   0.2462   0.2575   0.2581   0.2662   0.2724   0.2804
     0.2834   0.2884   0.2943   0.2962   0.2975   0.2994   0.2999   0.3010
     0.3028   0.3087   0.3136   0.3187   0.3204   0.3288   0.3303   0.3388
     0.3431   0.3475   0.3478   0.3501   0.3610   0.3686   0.3743   0.3850
     0.3932   0.4011   0.4170   0.4212   0.4243   0.4477   0.4483   0.4535
     0.4572   0.4586   0.4657   0.4842   0.4876   0.4882   0.4905   0.4917
     0.5045   0.5055   0.5086   0.5091   0.5157   0.5279   0.5305   0.5376
     0.5384   0.5425   0.5431   0.5573   0.5591   0.5612   0.5652   0.5658
     0.5830   0.5884   0.5904   0.5909   0.5910   0.5970   0.6061   0.6092
     0.6150   0.6173   0.6225   0.6293   0.6298   0.6337   0.6425   0.6447
     0.6668   0.6677   0.6767   0.6770   0.6780   0.6834   0.6870   0.6880
     0.7050   0.7096   0.7233   0.7337   0.7347   0.7428   0.7471   0.7527
     0.7592   0.7668   0.7735   0.7767   0.7822   0.7857   0.7884   0.7910
     0.7949   0.8008   0.8043   0.8129   0.8207   0.8264   0.8342   0.8345
     0.8538   0.8658   0.8666   0.8678   0.8716   0.8906   0.8928   0.8978
     0.8984   0.9037   0.9043   0.9076   0.9092   0.9133   0.9145   0.9178
     0.9308   0.9383   0.9530   0.9594   0.9626   0.9631   0.9660   0.9762
     0.9833   0.9934   0.9963   0.9980   1.0009   1.0020   1.0037   1.0068
     1.0090   1.0181   1.0226   1.0288   1.0298   1.0304   1.0316   1.0336
     1.0374   1.0415   1.0445   1.0453   1.0460   1.0507   1.0650   1.0701
     1.0738   1.0753   1.0834   1.0835   1.0845   1.0857   1.0970   1.1007
     1.1029   1.1053   1.1140   1.1149   1.1164   1.1232   1.1361   1.1365
     1.1386   1.1439   1.1486   1.1514   1.1557   1.1611   1.1624   1.1670
     1.1679   1.1908   1.1976   1.1986   1.2017   1.2031   1.2091   1.2420
     1.2463   1.2474   1.2478   1.2575   1.2597   1.2600   1.2621   1.2672
     1.2675   1.2744   1.2791   1.2846   1.2876   1.2889   1.2900   1.2904
     1.3031   1.3040   1.3071   1.3094   1.3118   1.3125   1.3163   1.3203
     1.3234   1.3263   1.3288   1.3319   1.3325   1.3341   1.3434   1.3589
     1.3619   1.3638   1.3664   1.3707   1.3754   1.3768   1.3795   1.3860
     1.3876   1.3945   1.3954   1.3980   1.4011   1.4026   1.4189   1.4303
     1.4317   1.4329   1.4339   1.4358   1.4391   1.4398   1.4463   1.4477
     1.4483   1.4538   1.4549   1.4579   1.4680   1.4717   1.4747   1.4781
     1.4831   1.4855   1.4878   1.4961   1.4964   1.5040   1.5103   1.5123
     1.5172   1.5226   1.5233   1.5240   1.5263   1.5289   1.5571   1.5624
     1.5676   1.5931   1.5946   1.6337   1.6344   1.6374   1.6482   1.6796
     1.6938   1.7653   1.7698   1.7740   1.7793   1.7851   1.8267   1.8511
     1.8530   1.9244   2.0424   2.0689   2.1062   2.1089   2.1213   2.1290
     2.2159   2.2957   2.3168   2.5648   2.5796   2.5846   2.5966   2.9880
     2.9887   3.0305   3.1992   3.2017   3.2321   3.2327   3.3022   3.3505
     3.4529   3.5007   3.5083   3.6100   3.6126   3.6418   3.6739   3.7052
     3.7359   3.7489   3.7633   3.7987   3.8398   3.9141   3.9712   4.0218
     4.0281   4.1697   4.2091   4.2398   4.2511   4.2912   4.3966   4.5393
     4.8222   4.8335   4.8627   5.0204   5.1630   5.1769   5.2376   5.2411
     5.2508   5.3661   5.4840   5.4936   5.5070   5.5404   5.5784   5.6342
     5.6514   5.6963   5.7104   5.7246   5.7721   5.7936   5.9640   6.0184
     6.0247   6.0370   6.0605   6.0684   6.2934   6.4830   6.5722   6.5926
     6.7192   6.7232   6.7729   6.7806   6.8981   6.9050   7.0527   7.0684
     7.0819   7.0974   7.1028   7.1854   7.2059   7.3636   7.4004   7.4181
     7.5735   7.6058   7.6464   7.6836   7.7147   7.8024   7.8179   7.8196
     7.9150   8.0237   8.0286   8.0410   8.1096   8.1368   8.1853   8.2096
     8.2878   8.3231   8.3469   8.3814   8.4209   8.4831   8.4972   8.5057
     8.6526   8.6718   8.9526   8.9679   8.9951   8.9994   9.0118   9.1584
     9.1847   9.2051   9.2310   9.2398   9.2580   9.3105   9.3397   9.3479
     9.4428   9.4500   9.4584   9.4911   9.5124   9.5375   9.5615   9.6094
     9.7021   9.7369   9.7404   9.8380   9.8555   9.8597   9.8893

          k = 0.2500-0.2165 0.0000 (256316 PWs)   bands (ev):

   -17.0283 -16.3277 -15.7862 -15.5270 -15.4103 -15.2622 -14.6779 -14.5497
   -14.2387 -14.1197 -13.6061 -13.3801 -13.2455 -13.1625 -12.7342 -12.6448
   -12.1907 -12.0724 -11.4822 -11.4268 -11.3215 -11.1801 -10.9077 -10.6435
    -9.8448  -9.7292  -9.4554  -9.3788  -9.1760  -9.0972  -8.7081  -8.6173
    -8.4733  -8.4338  -7.1876  -7.0478  -6.8524  -6.7144  -6.6753  -6.5705
    -6.3898  -6.3426  -6.1526  -6.1037  -5.7408  -5.6852  -5.4201  -5.2582
    -5.1940  -5.1394  -4.9647  -4.9014  -4.6726  -4.6501  -4.5632  -4.5230
    -4.4355  -4.3876  -4.3617  -4.3248  -4.2885  -4.2354  -4.0860  -4.0701
    -3.9422  -3.8887  -3.8557  -3.7575  -3.6316  -3.6054  -3.4868  -3.4548
    -3.4432  -3.4402  -3.4228  -3.3351  -3.2251  -3.1769  -3.1701  -3.0927
    -3.0766  -3.0254  -2.9453  -2.9136  -2.8962  -2.8890  -2.8688  -2.8008
    -2.7720  -2.7399  -2.5991  -2.5174  -2.3861  -2.3249  -2.3121  -2.2964
    -2.1702  -2.1644  -2.1605  -2.1553  -2.1540  -2.0462  -2.0205  -1.9993
    -1.9975  -1.9819  -1.9701  -1.9354  -1.9018  -1.8907  -1.8141  -1.8048
    -1.8009  -1.7986  -1.7892  -1.7460  -1.7289  -1.7229  -1.7155  -1.6996
    -1.6940  -1.6776  -1.6654  -1.6643  -1.6633  -1.6616  -1.6553  -1.6534
    -1.5716  -1.5669  -1.5570  -1.5031  -1.4684  -1.4539  -1.3899  -1.3658
    -1.3591  -1.3419  -1.3209  -1.3143  -1.2677  -1.2620  -1.2517  -1.2512
    -1.2434  -1.2367  -1.2266  -1.2249  -1.2148  -1.2086  -1.2077  -1.2014
    -1.1975  -1.1964  -1.1899  -1.1767  -1.1741  -1.1723  -1.1607  -1.1482
    -1.1239  -1.1185  -1.1176  -1.1109  -1.1094  -1.1035  -1.0991  -1.0922
    -1.0730  -1.0648  -1.0344  -1.0281  -1.0267  -1.0193  -1.0177  -1.0133
    -1.0071  -0.9954  -0.9905  -0.9835  -0.9828  -0.9580  -0.9561  -0.9474
    -0.9455  -0.9411  -0.9402  -0.9388  -0.9211  -0.9078  -0.9017  -0.8934
    -0.8781  -0.8644  -0.8554  -0.8530  -0.8492  -0.8473  -0.7826  -0.7735
    -0.7640  -0.7588  -0.7574  -0.7568  -0.7554  -0.7354  -0.7176  -0.7031
    -0.7026  -0.6955  -0.6937  -0.6907  -0.6788  -0.6610  -0.6517  -0.6390
    -0.6063  -0.6037  -0.5759  -0.5650  -0.5568  -0.5557  -0.5515  -0.5501
    -0.5474  -0.5395  -0.5332  -0.5305  -0.5171  -0.5163  -0.5044  -0.4935
    -0.4892  -0.4746  -0.4742  -0.4563  -0.4523  -0.4504  -0.4359  -0.4289
    -0.4051  -0.4023  -0.4018  -0.3880  -0.3835  -0.3816  -0.3770  -0.3683
    -0.3635  -0.3574  -0.3528  -0.3488  -0.3484  -0.3431  -0.3418  -0.3345
    -0.3266  -0.3197  -0.3079  -0.3069  -0.2939  -0.2808  -0.2730  -0.2639
    -0.2562  -0.2482  -0.2437  -0.2364  -0.2290  -0.2216  -0.2191  -0.2171
    -0.2000  -0.1994  -0.1983  -0.1815  -0.1726  -0.1412  -0.1404  -0.1114
    -0.1030  -0.1026  -0.1003  -0.0980  -0.0967  -0.0943  -0.0745  -0.0740
    -0.0627  -0.0589  -0.0556  -0.0554  -0.0448  -0.0438  -0.0408  -0.0372
    -0.0338  -0.0255  -0.0123  -0.0093  -0.0026   0.0026   0.0066   0.0072
     0.0089   0.0099   0.0128   0.0134   0.0153   0.0165   0.0263   0.0321
     0.0403   0.0411   0.0466   0.0610   0.0661   0.0686   0.0797   0.0808
     0.0848   0.0871   0.1024   0.1091   0.1167   0.1305   0.1409   0.1412
     0.1528   0.1538   0.1619   0.1637   0.1657   0.1703   0.1706   0.1841
     0.1867   0.1884   0.1996   0.2219   0.2579   0.2687   0.2711   0.2792
     0.2882   0.2905   0.2912   0.2983   0.3018   0.3039   0.3055   0.3071
     0.3110   0.3182   0.3230   0.3281   0.3289   0.3311   0.3328   0.3368
     0.3475   0.3483   0.3494   0.3729   0.3749   0.3792   0.3817   0.3920
     0.4100   0.4148   0.4269   0.4315   0.4380   0.4538   0.4590   0.4596
     0.4625   0.4679   0.4694   0.4729   0.4775   0.4792   0.4858   0.4889
     0.4926   0.4952   0.4962   0.5017   0.5179   0.5214   0.5330   0.5367
     0.5423   0.5438   0.5573   0.5733   0.5740   0.5817   0.5827   0.6054
     0.6083   0.6118   0.6151   0.6168   0.6187   0.6234   0.6266   0.6288
     0.6361   0.6434   0.6467   0.6536   0.6558   0.6582   0.6625   0.6748
     0.6762   0.6780   0.6803   0.6842   0.6846   0.6920   0.6959   0.6980
     0.6991   0.7039   0.7123   0.7137   0.7160   0.7217   0.7234   0.7241
     0.7267   0.7284   0.7299   0.7348   0.7665   0.7668   0.7700   0.7723
     0.7738   0.7826   0.7944   0.8184   0.8256   0.8306   0.8311   0.8328
     0.8350   0.8362   0.8374   0.8416   0.8619   0.8632   0.8645   0.8648
     0.8679   0.8685   0.8716   0.8736   0.8891   0.8955   0.9023   0.9060
     0.9091   0.9263   0.9329   0.9378   0.9387   0.9392   0.9516   0.9534
     0.9627   0.9652   0.9687   0.9754   0.9808   0.9824   0.9871   0.9967
     1.0041   1.0072   1.0120   1.0179   1.0269   1.0275   1.0472   1.0491
     1.0512   1.0619   1.0740   1.0760   1.0861   1.0933   1.0983   1.1008
     1.1028   1.1031   1.1035   1.1054   1.1059   1.1090   1.1157   1.1187
     1.1214   1.1240   1.1271   1.1380   1.1382   1.1405   1.1596   1.1620
     1.1655   1.1716   1.1736   1.1858   1.1868   1.1879   1.1896   1.1915
     1.1967   1.1989   1.2021   1.2042   1.2088   1.2135   1.2157   1.2182
     1.2268   1.2291   1.2308   1.2320   1.2330   1.2397   1.2410   1.2419
     1.2533   1.2577   1.2586   1.2722   1.2772   1.2819   1.2872   1.2925
     1.2932   1.3023   1.3033   1.3139   1.3166   1.3214   1.3228   1.3259
     1.3284   1.3305   1.3316   1.3423   1.3463   1.3468   1.3486   1.3551
     1.3575   1.3596   1.3620   1.3669   1.3720   1.3745   1.3886   1.3922
     1.3938   1.3944   1.3948   1.4005   1.4030   1.4047   1.4052   1.4088
     1.4094   1.4202   1.4231   1.4263   1.4299   1.4360   1.4450   1.4453
     1.4479   1.4486   1.4515   1.4523   1.4534   1.4559   1.4582   1.4624
     1.4693   1.4696   1.4908   1.4909   1.4995   1.5003   1.5074   1.5109
     1.5167   1.5243   1.5297   1.5320   1.5442   1.5569   1.5656   1.5668
     1.5702   1.5957   1.6071   1.6153   1.6305   1.6460   1.6808   1.6826
     1.7261   1.7653   1.7685   1.7716   1.7824   1.8092   1.8169   1.8276
     1.8342   1.8394   1.8696   1.9445   2.1364   2.1374   2.1756   2.1765
     2.2923   2.3252   2.5927   2.5969   2.7808   2.7840   2.7878   2.8140
     2.8323   2.8376   2.8984   2.9017   2.9917   3.0002   3.0589   3.1655
     3.5320   3.5832   3.6063   3.6367   3.6590   3.7098   3.7896   3.8409
     3.8538   3.8599   3.8758   3.9750   4.0262   4.0639   4.0751   4.1566
     4.1804   4.2477   4.3193   4.3621   4.4537   4.4926   4.5322   4.5702
     4.6143   4.6393   4.7481   4.7835   4.8432   4.8602   4.9230   5.0801
     5.1590   5.2110   5.3646   5.3781   5.4154   5.4207   5.4605   5.4924
     5.5185   5.5518   5.6936   5.7525   5.8129   5.8870   5.9400   5.9485
     5.9607   5.9711   6.5635   6.6037   6.6271   6.6505   6.6852   6.7709
     6.7808   6.9170   6.9199   6.9571   6.9641   7.0603   7.0669   7.0715
     7.1557   7.1626   7.2120   7.2261   7.2534   7.2753   7.2935   7.3497
     7.3920   7.4303   7.4689   7.4944   7.6473   7.7484   7.7718   7.8236
     7.8472   7.8669   8.0193   8.0365   8.0962   8.2009   8.2169   8.2376
     8.2545   8.3336   8.6036   8.6075   8.6109   8.6177   8.6526   8.6591
     8.7607   8.7641   8.7948   8.8088   8.9326   8.9621   8.9654   8.9808
     8.9929   9.0945   9.1093   9.1584   9.1760   9.1861   9.1916   9.2197
     9.2619   9.2887   9.3315   9.3444   9.3649   9.4229   9.4278   9.4465
     9.4501   9.4989   9.6426   9.6470   9.9194   9.9628   9.9900

          k =-0.5000 0.0000 0.0000 (256496 PWs)   bands (ev):

   -16.9628 -16.0276 -15.9355 -15.6385 -15.5281 -15.4713 -14.8220 -14.5980
   -14.5102 -14.4650 -13.1914 -12.9258 -12.7901 -12.7150 -12.3530 -12.3093
   -12.0663 -12.0386 -11.7193 -11.7059 -11.2265 -11.1941 -11.0639 -10.8516
   -10.3036 -10.3021 -10.0461  -9.7349  -9.1965  -9.1760  -8.9979  -8.9554
    -7.8184  -7.7386  -7.6862  -7.4898  -7.4637  -7.3587  -6.2130  -6.1640
    -5.7809  -5.3233  -5.3183  -5.2932  -5.1553  -5.1202  -4.9091  -4.8922
    -4.8794  -4.8419  -4.8042  -4.7964  -4.7801  -4.7433  -4.7066  -4.6504
    -4.6415  -4.6398  -4.6022  -4.5459  -4.5003  -4.4724  -4.4163  -4.0965
    -4.0899  -4.0521  -3.9630  -3.8413  -3.7366  -3.6614  -3.6487  -3.5724
    -3.5500  -3.5463  -3.4668  -3.4494  -3.4259  -3.4143  -3.4077  -3.4023
    -3.4016  -3.3967  -3.0122  -2.9649  -2.9204  -2.8685  -2.8410  -2.7996
    -2.7906  -2.7856  -2.5969  -2.5867  -2.5611  -2.4864  -2.4752  -2.4639
    -2.2725  -2.2721  -2.2711  -2.2692  -1.9456  -1.8977  -1.8677  -1.8668
    -1.8658  -1.8654  -1.8651  -1.8647  -1.7716  -1.7466  -1.7450  -1.7420
    -1.7398  -1.6424  -1.6420  -1.6394  -1.6393  -1.5982  -1.5919  -1.5918
    -1.5887  -1.5885  -1.5713  -1.5058  -1.4927  -1.4925  -1.4740  -1.4739
    -1.4312  -1.4206  -1.4188  -1.4145  -1.3941  -1.3935  -1.3476  -1.3453
    -1.3433  -1.3415  -1.3415  -1.3392  -1.3292  -1.3274  -1.3270  -1.3237
    -1.2832  -1.2795  -1.2792  -1.2777  -1.2685  -1.2596  -1.2592  -1.2565
    -1.2554  -1.1921  -1.1916  -1.1867  -1.1842  -1.1734  -1.1716  -1.1638
    -1.1595  -1.1574  -1.1370  -1.1368  -1.1347  -1.1340  -1.1234  -1.0954
    -1.0950  -1.0947  -1.0938  -1.0734  -1.0734  -1.0476  -1.0474  -1.0424
    -1.0423  -1.0009  -1.0009  -0.9731  -0.9709  -0.9681  -0.9680  -0.9663
    -0.9660  -0.9537  -0.9401  -0.9387  -0.9365  -0.9341  -0.9263  -0.9199
    -0.9177  -0.9153  -0.9088  -0.9065  -0.8759  -0.8516  -0.8498  -0.8364
    -0.8332  -0.7964  -0.7889  -0.7847  -0.7844  -0.7461  -0.7371  -0.7116
    -0.6979  -0.6948  -0.6941  -0.6903  -0.6630  -0.6624  -0.6615  -0.6611
    -0.6575  -0.6559  -0.6276  -0.6192  -0.6111  -0.6070  -0.6045  -0.6010
    -0.5951  -0.5908  -0.5570  -0.5343  -0.5304  -0.5264  -0.5247  -0.5153
    -0.4855  -0.4592  -0.4506  -0.4504  -0.4202  -0.4110  -0.4079  -0.3990
    -0.3960  -0.3946  -0.3941  -0.3940  -0.3811  -0.3756  -0.3547  -0.3541
    -0.3514  -0.3467  -0.3238  -0.3229  -0.3215  -0.3209  -0.3135  -0.2872
    -0.2871  -0.2842  -0.2838  -0.2718  -0.2717  -0.2510  -0.2491  -0.2452
    -0.2437  -0.2379  -0.2378  -0.2366  -0.2363  -0.2338  -0.1993  -0.1915
    -0.1735  -0.1640  -0.1348  -0.1280  -0.1243  -0.1201  -0.1174  -0.1160
    -0.1159  -0.1158  -0.1151  -0.0815  -0.0808  -0.0801  -0.0773  -0.0481
    -0.0439  -0.0323  -0.0185  -0.0154  -0.0149  -0.0139  -0.0085  -0.0083
    -0.0071  -0.0063  -0.0059  -0.0052  -0.0047  -0.0026   0.0314   0.0407
     0.0668   0.0703   0.0727   0.0793   0.0801   0.0803   0.0809   0.0813
     0.0826   0.0984   0.1007   0.1031   0.1073   0.1094   0.1124   0.1172
     0.1182   0.1201   0.1306   0.1307   0.1313   0.1313   0.1339   0.1353
     0.1368   0.1389   0.1393   0.1394   0.1510   0.1512   0.1519   0.1650
     0.1659   0.1660   0.1671   0.1913   0.1915   0.2148   0.2434   0.2828
     0.2852   0.2874   0.2900   0.2903   0.3290   0.3323   0.3330   0.3334
     0.3336   0.3341   0.3371   0.3462   0.3539   0.3550   0.3559   0.3577
     0.3619   0.3625   0.3634   0.3643   0.3654   0.3667   0.3740   0.3753
     0.3808   0.3809   0.3991   0.3992   0.4058   0.4060   0.4064   0.4086
     0.4110   0.4130   0.4782   0.4812   0.4975   0.4975   0.5044   0.5050
     0.5174   0.5231   0.5256   0.5276   0.5302   0.5309   0.5346   0.5351
     0.5403   0.5416   0.5445   0.5451   0.5459   0.5459   0.5517   0.5527
     0.5542   0.5556   0.5591   0.5622   0.5691   0.5701   0.5953   0.5953
     0.5979   0.6101   0.6151   0.6180   0.6200   0.6212   0.6369   0.6378
     0.6398   0.6427   0.6430   0.6440   0.6460   0.6475   0.6551   0.6577
     0.6647   0.6654   0.6755   0.6768   0.6815   0.6822   0.7077   0.7098
     0.7181   0.7182   0.7198   0.7203   0.7263   0.7342   0.7502   0.7513
     0.7536   0.7568   0.7665   0.7683   0.7762   0.7796   0.7796   0.8082
     0.8393   0.8422   0.8519   0.8531   0.8532   0.8540   0.8546   0.8549
     0.8553   0.8557   0.8595   0.8600   0.8788   0.8825   0.8828   0.8911
     0.8966   0.8973   0.8983   0.8984   0.9095   0.9116   0.9124   0.9150
     0.9194   0.9206   0.9507   0.9579   0.9589   0.9603   0.9626   0.9891
     1.0216   1.0229   1.0249   1.0251   1.0299   1.0306   1.0459   1.0461
     1.0487   1.0538   1.0772   1.0781   1.0866   1.0867   1.0879   1.0897
     1.0980   1.1056   1.1139   1.1182   1.1233   1.1237   1.1257   1.1263
     1.1359   1.1372   1.1373   1.1382   1.1385   1.1386   1.1476   1.1476
     1.1481   1.1489   1.1563   1.1566   1.1874   1.1902   1.1902   1.1902
     1.2011   1.2045   1.2103   1.2107   1.2183   1.2219   1.2222   1.2240
     1.2249   1.2330   1.2351   1.2520   1.2527   1.2529   1.2538   1.2582
     1.2584   1.2634   1.2635   1.2685   1.2726   1.2766   1.3001   1.3057
     1.3097   1.3107   1.3210   1.3239   1.3291   1.3292   1.3295   1.3306
     1.3321   1.3324   1.3330   1.3330   1.3382   1.3391   1.3396   1.3403
     1.3434   1.3438   1.3491   1.3498   1.3515   1.3518   1.3622   1.3651
     1.3669   1.3697   1.3758   1.3761   1.3867   1.3892   1.3915   1.3916
     1.4071   1.4087   1.4090   1.4129   1.4175   1.4213   1.4265   1.4266
     1.4332   1.4382   1.4462   1.4477   1.4511   1.4582   1.4617   1.4624
     1.4651   1.4662   1.4793   1.4828   1.4851   1.4876   1.4891   1.4939
     1.4979   1.5012   1.5065   1.5085   1.5112   1.5146   1.5252   1.5267
     1.5267   1.5271   1.5272   1.5331   1.5373   1.5553   1.5876   1.5937
     1.6015   1.6173   1.6176   1.6185   1.6244   1.6522   2.0599   2.0615
     2.0671   2.0692   2.2530   2.2553   2.2736   2.2782   2.2932   2.2973
     2.3024   2.3066   2.6466   2.6536   2.6845   2.6949   2.8293   2.8346
     2.8487   2.8601   3.1908   3.1927   3.1999   3.2020   3.4808   3.4899
     3.7822   3.7838   3.7878   3.7927   3.8071   3.8740   3.9104   3.9719
     3.9934   4.0455   4.0836   4.0917   4.1109   4.2023   4.2044   4.2923
     4.3516   4.4412   4.6628   4.7697   4.7722   4.8326   4.8339   4.8425
     4.8486   4.8786   4.8805   4.9710   5.0238   5.0263   5.0391   5.0395
     5.0494   5.0637   5.0956   5.0992   5.1238   5.1346   5.1408   5.1554
     5.5016   5.5111   5.5243   5.5550   5.6694   5.7222   5.7256   5.7362
     5.9064   5.9558   5.9900   5.9937   6.0529   6.0626   6.0661   6.0738
     6.1470   6.3267   6.3403   6.3879   6.5028   6.5206   6.6009   6.6318
     7.1239   7.1303   7.1328   7.1359   7.1512   7.1513   7.5762   7.5868
     7.5952   7.5981   7.6498   7.6539   7.6550   7.6642   7.8150   7.8246
     7.9162   7.9191   7.9273   7.9320   8.0941   8.1100   8.1104   8.1348
     8.1604   8.1903   8.2051   8.2146   8.2312   8.2636   8.6365   8.6891
     8.6913   8.7126   8.8053   8.8379   8.8445   8.8461   8.8483   8.9983
     9.0000   9.0760   9.1021   9.1289   9.1310   9.1672   9.1760   9.2018
     9.3324   9.3857   9.5042   9.5070   9.5073   9.5096   9.5397   9.5490
     9.5572   9.5617   9.5684   9.5701   9.8177   9.8342   9.8739

          k =-0.5000-0.2165 0.0000 (256328 PWs)   bands (ev):

   -16.9626 -16.0084 -15.9594 -15.7592 -15.3503 -15.2037 -15.1166 -15.0956
   -14.0602 -13.8420 -13.7131 -13.6789 -12.5431 -12.3110 -12.1600 -12.1035
   -11.9428 -11.7872 -11.7295 -11.6253 -11.5191 -11.5138 -11.3851 -11.3627
   -10.0411  -9.9564  -9.8034  -9.7886  -9.2375  -8.9405  -8.8666  -8.7515
    -8.3005  -8.2873  -8.0988  -8.0542  -6.5883  -6.2077  -6.1707  -6.0104
    -5.8588  -5.6409  -5.4299  -5.3227  -5.3026  -5.2234  -5.2204  -5.2031
    -5.1638  -5.1589  -5.0904  -4.9870  -4.8106  -4.7140  -4.5823  -4.4835
    -4.3442  -4.2692  -4.2580  -4.2175  -4.2014  -4.1799  -4.1748  -4.1620
    -4.1251  -4.0727  -3.9261  -3.9046  -3.8961  -3.8526  -3.7853  -3.7674
    -3.7456  -3.7212  -3.6406  -3.6395  -3.6378  -3.4883  -3.4723  -3.4353
    -3.1526  -3.0819  -3.0706  -3.0556  -2.6785  -2.6206  -2.5725  -2.5674
    -2.5665  -2.5656  -2.5333  -2.5240  -2.4956  -2.4791  -2.4774  -2.4369
    -2.2564  -2.2281  -2.1842  -2.1050  -2.1004  -2.0935  -2.0712  -2.0479
    -2.0401  -2.0078  -2.0060  -2.0034  -1.9266  -1.8084  -1.8015  -1.7960
    -1.7948  -1.7859  -1.7848  -1.7702  -1.5541  -1.5233  -1.5185  -1.5114
    -1.4805  -1.4800  -1.4797  -1.4795  -1.4490  -1.4452  -1.4430  -1.4392
    -1.4203  -1.4201  -1.4186  -1.4185  -1.3835  -1.3761  -1.3745  -1.3742
    -1.3691  -1.3689  -1.3667  -1.3662  -1.3662  -1.3442  -1.3442  -1.3441
    -1.3440  -1.3169  -1.3151  -1.2908  -1.2904  -1.2184  -1.2177  -1.2176
    -1.2159  -1.1847  -1.1793  -1.1784  -1.1763  -1.1761  -1.1739  -1.1686
    -1.1649  -1.1578  -1.1146  -1.1109  -1.1097  -1.1096  -1.1040  -1.1029
    -1.1021  -1.1011  -1.0965  -1.0832  -1.0814  -1.0801  -1.0783  -1.0655
    -1.0468  -1.0457  -1.0425  -1.0421  -1.0308  -1.0306  -1.0288  -1.0285
    -1.0246  -1.0245  -1.0208  -1.0204  -0.9005  -0.8936  -0.8654  -0.8654
    -0.8504  -0.8405  -0.8398  -0.8397  -0.8348  -0.8049  -0.7848  -0.7651
    -0.7649  -0.7617  -0.7610  -0.7586  -0.7562  -0.7550  -0.7532  -0.7531
    -0.7238  -0.7148  -0.6965  -0.6903  -0.6889  -0.6872  -0.6854  -0.6849
    -0.6768  -0.6754  -0.6595  -0.6580  -0.6479  -0.6458  -0.5968  -0.5824
    -0.5536  -0.5487  -0.5387  -0.5343  -0.4921  -0.4918  -0.4901  -0.4900
    -0.4724  -0.4614  -0.4560  -0.4396  -0.4346  -0.4334  -0.4303  -0.4288
    -0.4205  -0.4116  -0.4110  -0.3999  -0.3943  -0.3804  -0.3802  -0.3791
    -0.3785  -0.3468  -0.3446  -0.3372  -0.3309  -0.2663  -0.2659  -0.2591
    -0.2582  -0.2489  -0.2482  -0.2451  -0.2450  -0.2444  -0.2443  -0.2284
    -0.2283  -0.2133  -0.2101  -0.1542  -0.1519  -0.1510  -0.1501  -0.1481
    -0.1427  -0.1426  -0.1389  -0.1388  -0.1370  -0.1311  -0.1278  -0.0981
    -0.0981  -0.0980  -0.0978  -0.0886  -0.0881  -0.0880  -0.0877  -0.0853
    -0.0849  -0.0829  -0.0818  -0.0562  -0.0239  -0.0237  -0.0194  -0.0188
    -0.0086   0.0005   0.0163   0.0173   0.0203   0.0320   0.0655   0.0661
     0.0721   0.0816   0.0886   0.0892   0.0908   0.0923   0.0932   0.0945
     0.0951   0.0979   0.0998   0.1035   0.1049   0.1108   0.1144   0.1184
     0.1213   0.1216   0.1216   0.1221   0.1340   0.1358   0.1363   0.1369
     0.1529   0.1596   0.1618   0.1625   0.1626   0.1668   0.1696   0.1723
     0.1756   0.1775   0.1783   0.2221   0.2225   0.2236   0.2243   0.2503
     0.2509   0.2550   0.2565   0.2718   0.2844   0.2853   0.3201   0.3262
     0.3270   0.3384   0.3422   0.3482   0.3551   0.3561   0.3561   0.3569
     0.3690   0.3712   0.3722   0.3730   0.3746   0.3748   0.3761   0.3763
     0.3778   0.3825   0.3834   0.3846   0.3888   0.3964   0.4374   0.4374
     0.4514   0.4555   0.4577   0.4591   0.4598   0.4620   0.4817   0.4819
     0.4823   0.4826   0.5086   0.5099   0.5147   0.5162   0.5170   0.5186
     0.5240   0.5240   0.5415   0.5490   0.5523   0.5534   0.5577   0.5605
     0.5649   0.5664   0.5709   0.5724   0.5746   0.5767   0.5814   0.5820
     0.5839   0.5844   0.5853   0.5881   0.5909   0.5921   0.5967   0.6049
     0.6119   0.6146   0.6306   0.6322   0.6600   0.6618   0.6682   0.6748
     0.6883   0.6887   0.6915   0.6925   0.6948   0.6957   0.6980   0.7015
     0.7017   0.7205   0.7231   0.7257   0.7333   0.7371   0.7383   0.7412
     0.7441   0.7451   0.7503   0.7532   0.7819   0.7824   0.7976   0.7997
     0.8106   0.8130   0.8189   0.8223   0.8269   0.8275   0.8465   0.8481
     0.8502   0.8513   0.8642   0.8644   0.8777   0.8781   0.8886   0.8928
     0.9342   0.9342   0.9355   0.9359   0.9558   0.9567   0.9662   0.9684
     0.9860   0.9890   1.0055   1.0161   1.0165   1.0231   1.0248   1.0279
     1.0380   1.0384   1.0477   1.0504   1.0509   1.0518   1.0547   1.0549
     1.0554   1.0557   1.0582   1.0595   1.0603   1.0611   1.0707   1.0725
     1.0726   1.0829   1.0848   1.0854   1.0861   1.0906   1.0929   1.0964
     1.1101   1.1109   1.1218   1.1241   1.1297   1.1302   1.1311   1.1357
     1.1414   1.1436   1.1473   1.1535   1.1605   1.1608   1.1647   1.1664
     1.1815   1.1818   1.1978   1.2002   1.2031   1.2076   1.2090   1.2158
     1.2204   1.2222   1.2232   1.2247   1.2445   1.2476   1.2492   1.2498
     1.2638   1.2681   1.2797   1.2806   1.2813   1.2818   1.2828   1.2860
     1.2898   1.2928   1.2945   1.2953   1.2980   1.2987   1.3031   1.3035
     1.3443   1.3486   1.3487   1.3520   1.3533   1.3611   1.3681   1.3682
     1.3697   1.3702   1.3721   1.3725   1.3786   1.3787   1.3841   1.3893
     1.3922   1.3927   1.3936   1.3947   1.3964   1.3983   1.4009   1.4047
     1.4050   1.4057   1.4101   1.4113   1.4120   1.4161   1.4263   1.4273
     1.4274   1.4316   1.4328   1.4371   1.4569   1.4579   1.4589   1.4591
     1.4707   1.4729   1.4751   1.4757   1.4874   1.4904   1.5023   1.5028
     1.5100   1.5115   1.5167   1.5193   1.5436   1.5504   1.5637   1.5808
     1.5809   1.5873   1.5877   1.5938   1.6054   1.6060   1.6193   1.6220
     1.6259   1.6280   1.6296   1.6305   1.6405   1.6413   1.6444   1.6489
     1.8558   1.8568   1.8606   1.8639   2.3202   2.3251   2.4328   2.4405
     2.5652   2.5692   2.5789   2.5816   2.8139   2.8195   2.8197   2.8272
     3.1392   3.1398   3.1485   3.1526   3.4528   3.4549   3.4652   3.4708
     3.6284   3.6474   3.6652   3.6657   3.8841   3.9191   3.9461   3.9480
     4.0248   4.1824   4.1875   4.2462   4.2497   4.2673   4.2741   4.3249
     4.4520   4.4908   4.5051   4.5374   4.5527   4.5908   4.5982   4.6395
     4.6625   4.6911   4.7985   4.8482   4.8836   4.9297   4.9347   5.1385
     5.1569   5.1889   5.2089   5.2148   5.2241   5.2422   5.2924   5.2937
     5.3279   5.4000   5.4007   5.4471   5.4629   5.5054   5.6794   5.6832
     5.7696   5.7740   5.7762   5.7796   5.8129   5.8332   6.1209   6.1526
     6.7745   6.7790   6.8012   6.8033   7.0955   7.1010   7.1444   7.1461
     7.1791   7.1824   7.1845   7.2188   7.2848   7.2874   7.2968   7.3129
     7.3852   7.3854   7.3898   7.3915   7.4496   7.6525   7.6842   7.6995
     7.7083   7.7626   7.7719   7.8058   8.0605   8.0773   8.0850   8.0916
     8.2450   8.2762   8.2880   8.2964   8.3244   8.3250   8.3589   8.3716
     8.9060   8.9094   8.9111   8.9112   8.9245   8.9275   8.9429   8.9438
     8.9879   8.9895   8.9910   8.9923   9.1155   9.1207   9.1339   9.1359
     9.3014   9.3189   9.3372   9.3449   9.5080   9.5096   9.6042   9.6140
     9.6186   9.6326   9.6454   9.6669   9.8957   9.9229   9.9792

     the Fermi energy is     3.3356 ev

!    total energy              =  -12707.08805533 Ry
     Harris-Foulkes estimate   =  -12707.08805533 Ry
     estimated scf accuracy    <          5.3E-09 Ry

     The total energy is the sum of the following terms:

     one-electron contribution = -109315.88989530 Ry
     hartree contribution      =   56019.43772984 Ry
     xc contribution           =   -4447.56658471 Ry
     ewald contribution        =   45043.26098477 Ry
     Dispersion Correction     =      -2.96908383 Ry
     smearing contrib. (-TS)   =      -3.36120609 Ry

     convergence has been achieved in  47 iterations

     Writing output data file gc.save
 
     init_run     :    146.20s CPU    150.58s WALL (       1 calls)
     electrons    :  18258.17s CPU  18765.80s WALL (       1 calls)

     Called by init_run:
     wfcinit      :    143.02s CPU    146.99s WALL (       1 calls)
     potinit      :      0.64s CPU      0.67s WALL (       1 calls)

     Called by electrons:
     c_bands      :  16827.71s CPU  17279.73s WALL (      47 calls)
     sum_band     :   1195.32s CPU   1231.55s WALL (      47 calls)
     v_of_rho     :      4.55s CPU      4.98s WALL (      48 calls)
     newd         :     10.26s CPU     14.17s WALL (      48 calls)
     mix_rho      :    220.20s CPU    235.19s WALL (      47 calls)

     Called by c_bands:
     init_us_2    :     28.66s CPU     29.13s WALL (     570 calls)
     cegterg      :  16689.71s CPU  17135.49s WALL (     289 calls)

     Called by sum_band:
     sum_band:bec :      8.12s CPU      8.97s WALL (     282 calls)
     addusdens    :     10.33s CPU     14.59s WALL (      47 calls)

     Called by *egterg:
     h_psi        :   5884.79s CPU   6041.12s WALL (    1865 calls)
     s_psi        :   1706.93s CPU   1721.34s WALL (    1865 calls)
     g_psi        :     15.11s CPU     15.12s WALL (    1570 calls)
     cdiaghg      :   4356.22s CPU   4461.75s WALL (    1852 calls)

     Called by h_psi:
     add_vuspsi   :   1667.66s CPU   1681.97s WALL (    1865 calls)

     General routines
     calbec       :   2349.57s CPU   2359.38s WALL (    2147 calls)
     fft          :      5.25s CPU      5.66s WALL (     623 calls)
     ffts         :    158.11s CPU    169.08s WALL (   23678 calls)
     fftw         :   2788.47s CPU   2940.18s WALL ( 1356584 calls)
     davcio       :      0.23s CPU      3.57s WALL (       6 calls)
 
     Parallel routines
     fft_scatter  :   1925.01s CPU   1990.03s WALL ( 1380885 calls)
 
     PWSCF        :     5h 6m CPU        5h15m WALL

 
   This run was terminated on:   4:41:35  10Mar2017            

=------------------------------------------------------------------------------=
   JOB DONE.
=------------------------------------------------------------------------------=
WALL ( 1379977 calls)
 
     PWSCF        :     3h27m CPU        3h41m WALL

 
   This run was terminated on:   0: 1:14  10Mar2017            

=------------------------------------------------------------------------------=
   JOB DONE.
=------------------------------------------------------------------------------=
