
     Program PWSCF v.5.4.0 starts on  7Apr2017 at 17:19:33 

     This program is part of the open-source Quantum ESPRESSO suite
     for quantum simulation of materials; please cite
         "P. Giannozzi et al., J. Phys.:Condens. Matter 21 395502 (2009);
          URL http://www.quantum-espresso.org", 
     in publications or presentations arising from this work. More details at
     http://www.quantum-espresso.org/quote

     Parallel version (MPI & OpenMP), running on      56 processor cores
     Number of MPI processes:                56
     Threads/MPI process:                     1
     R & G space division:  proc/nbgrp/npool/nimage =      56
     Waiting for input...
     Reading input from standard input

     Current dimensions of program PWSCF are:
     Max number of different atomic species (ntypx) = 10
     Max number of k-points (npk) =  40000
     Max angular momentum in pseudopotentials (lmaxx) =  3

     -------------------------------------
     Parameters for Dispersion Correction:
     -------------------------------------
       atom      VdW radius       C_6     

        C          2.744         60.710
        H          1.892          4.857

     Subspace diagonalization in iterative solution of the eigenvalue problem:
     one sub-group per band group will be used
     scalapack distributed-memory algorithm (size of sub-group:  5*  5 procs)

 
     Parallelization info
     --------------------
     sticks:   dense  smooth     PW     G-vecs:    dense   smooth      PW
     Min         204     204     54                14646    14646    1986
     Max         205     205     55                14650    14650    1989
     Sum       11433   11433   3039               820307   820307  111297
 
     Generating pointlists ...
     new r_m :   0.0391 (alat units)  0.5457 (a.u.) for type    1
     new r_m :   0.0391 (alat units)  0.5457 (a.u.) for type    2


     bravais-lattice index     =            0
     lattice parameter (alat)  =      13.9425  a.u.
     unit-cell volume          =    8483.6351 (a.u.)^3
     number of atoms/cell      =           50
     number of atomic types    =            2
     number of electrons       =       194.00
     number of Kohn-Sham states=          116
     kinetic-energy cutoff     =      80.0000  Ry
     charge density cutoff     =     320.0000  Ry
     convergence threshold     =      1.0E-08
     mixing beta               =       0.7000
     number of iterations used =            8  local-TF  mixing
     Exchange-correlation      =  SLA  PW   PBE  PBE ( 1  4  3  4 0 0)
     nstep                     =           50


     celldm(1)=  13.942539  celldm(2)=   0.000000  celldm(3)=   0.000000
     celldm(4)=   0.000000  celldm(5)=   0.000000  celldm(6)=   0.000000

     crystal axes: (cart. coord. in units of alat)
               a(1) = (   1.000000   0.000000   0.000000 )  
               a(2) = (   0.000000   2.309401   0.000000 )  
               a(3) = (   0.000000   0.000000   1.355367 )  

     reciprocal axes: (cart. coord. in units 2 pi/alat)
               b(1) = (  1.000000  0.000000  0.000000 )  
               b(2) = (  0.000000  0.433013  0.000000 )  
               b(3) = (  0.000000  0.000000  0.737807 )  


     PseudoPot. # 1 for C  read from file:
     /home/549/hxw549/Short/pseudopotentials/C.pbe-mt_gipaw.UPF
     MD5 check sum: 5ac2f21f2c440b14befe521540822c15
     Pseudo is Norm-conserving, Zval =  4.0
     Generated by new atomic code, or converted to UPF format
     Using radial grid of 1073 points,  1 beta functions with: 
                l(1) =   0

     PseudoPot. # 2 for H  read from file:
     /home/549/hxw549/Short/pseudopotentials/H.pbe-van_ak.UPF
     MD5 check sum: 077eb6d537518a38cb46c6de387227b7
     Pseudo is Ultrasoft, Zval =  1.0
     Generated by new atomic code, or converted to UPF format
     Using radial grid of  615 points,  1 beta functions with: 
                l(1) =   0
     Q(r) pseudized with  8 coefficients,  rinner =    0.800

     atomic species   valence    mass     pseudopotential
        C              4.00    12.01070     C ( 1.00)
        H              1.00     1.00783     H ( 1.00)

     Starting magnetic structure 
     atomic species   magnetization
        C            0.000
        H            1.000

     No symmetry found



   Cartesian axes

     site n.     atom                  positions (alat units)
         1           C   tau(   1) = (  -0.0003149   0.0965100   0.6939128  )
         2           C   tau(   2) = (  -0.0001965   0.2887396   0.6921291  )
         3           C   tau(   3) = (   0.1663155   0.0004359   0.6944766  )
         4           C   tau(   4) = (   0.1662439   0.3848407   0.6885971  )
         5           C   tau(   5) = (   0.3328713   0.0965696   0.6921698  )
         6           C   tau(   6) = (   0.3328917   0.2888101   0.6886689  )
         7           C   tau(   7) = (   0.4996643   0.0002673   0.6913457  )
         8           C   tau(   8) = (   0.4998058   0.3856635   0.6864176  )
         9           C   tau(   9) = (   0.6665294   0.0965879   0.6910408  )
        10           C   tau(  10) = (   0.6666849   0.2888526   0.6880901  )
        11           C   tau(  11) = (   0.8330068   0.0004097   0.6937339  )
        12           C   tau(  12) = (   0.8334435   0.3848189   0.6884168  )
        13           C   tau(  13) = (  -0.0000108   0.6734180   0.6819503  )
        14           C   tau(  14) = (  -0.0000193   0.8659152   0.6769287  )
        15           C   tau(  15) = (   0.1661894   0.5770487   0.6833016  )
        16           C   tau(  16) = (   0.1669571   0.9618721   0.6829750  )
        17           C   tau(  17) = (   0.3326286   0.6740461   0.7788957  )
        18           H   tau(  18) = (   0.3309500   0.8648892   0.9198241  )
        19           C   tau(  19) = (   0.3309500   0.8648892   0.8249484  )
        20           C   tau(  20) = (   0.4999201   0.5773268   0.6861533  )
        21           C   tau(  21) = (   0.5001047   0.9620977   0.7848607  )
        22           H   tau(  22) = (   0.5017283   0.9601426   0.9088469  )
        23           C   tau(  23) = (   0.6672628   0.6739780   0.6835022  )
        24           C   tau(  24) = (   0.6689827   0.8649033   0.6883680  )
        25           C   tau(  25) = (   0.8337206   0.5770576   0.6831105  )
        26           C   tau(  26) = (   0.8330459   0.9619034   0.6825115  )
        27           C   tau(  27) = (  -0.0000747   1.2509098   0.6849308  )
        28           C   tau(  28) = (  -0.0002185   1.4440550   0.6838872  )
        29           C   tau(  29) = (   0.1666185   1.1551756   0.6855177  )
        30           C   tau(  30) = (   0.1664632   1.5404836   0.6867361  )
        31           C   tau(  31) = (   0.3338644   1.2520710   0.6879519  )
        32           C   tau(  32) = (   0.3332198   1.4446490   0.6875250  )
        33           C   tau(  33) = (   0.4998777   1.1584205   0.6942394  )
        34           C   tau(  34) = (   0.4997169   1.5406150   0.6905962  )
        35           C   tau(  35) = (   0.6658678   1.2520782   0.6881444  )
        36           C   tau(  36) = (   0.6662775   1.4446333   0.6873067  )
        37           C   tau(  37) = (   0.8332462   1.1551883   0.6854540  )
        38           C   tau(  38) = (   0.8329891   1.5405003   0.6860259  )
        39           C   tau(  39) = (  -0.0003525   1.8290905   0.6899375  )
        40           C   tau(  40) = (  -0.0003780   2.0214157   0.6931972  )
        41           C   tau(  41) = (   0.1664672   1.7328546   0.6904390  )
        42           C   tau(  42) = (   0.1662477   2.1174983   0.6938749  )
        43           C   tau(  43) = (   0.3330006   1.8289262   0.6935279  )
        44           C   tau(  44) = (   0.3330139   2.0212634   0.6940917  )
        45           C   tau(  45) = (   0.4996241   1.7329494   0.6929749  )
        46           C   tau(  46) = (   0.4996037   2.1173492   0.6942977  )
        47           C   tau(  47) = (   0.6662286   1.8289388   0.6931809  )
        48           C   tau(  48) = (   0.6661888   2.0212694   0.6937285  )
        49           C   tau(  49) = (   0.8328102   1.7328971   0.6899009  )
        50           C   tau(  50) = (   0.8329945   2.1174691   0.6935401  )

     number of k points=     4  gaussian smearing, width (Ry)=  0.1000
                       cart. coord. in units 2pi/alat
        k(    1) = (   0.0000000   0.0000000   0.0000000), wk =   0.2500000
        k(    2) = (   0.0000000  -0.2165064   0.0000000), wk =   0.2500000
        k(    3) = (  -0.5000000   0.0000000   0.0000000), wk =   0.2500000
        k(    4) = (  -0.5000000  -0.2165064   0.0000000), wk =   0.2500000

     Dense  grid:   820307 G-vectors     FFT dimensions: (  80, 192, 108)

     Largest allocated arrays     est. size (Mb)     dimensions
        Kohn-Sham Wavefunctions         3.27 Mb     (    1845,  116)
        NL pseudopotentials             1.41 Mb     (    1845,   50)
        Each V/rho on FFT grid          0.94 Mb     (   30720,   2)
        Each G-vector array             0.11 Mb     (   14650)
        G-vector shells                 0.06 Mb     (    7248)
     Largest temporary arrays     est. size (Mb)     dimensions
        Auxiliary wavefunctions        13.06 Mb     (    1845,  464)
        Each subspace H/S matrix        0.13 Mb     (      92,   92)
        Each <psi_i|beta_j> matrix      0.09 Mb     (      50,  116)
        Arrays for rho mixing           3.75 Mb     (   30720,    8)

     Initial potential from superposition of free atoms
     Check: negative starting charge=(component1):   -0.000226

     starting charge  169.99992, renormalised to  194.00000

     negative rho (up, down):  2.578E-04 8.863E-07
     Starting wfc are  386 randomized atomic wfcs

     total cpu time spent up to now is        7.6 secs

     Self-consistent Calculation

     iteration #  1     ecut=    80.00 Ry     beta=0.70
     Davidson diagonalization with overlap
     ethr =  1.00E-04,  avg # of iterations =  8.8

     total cpu time spent up to now is       23.2 secs

     total energy              =    -549.13436083 Ry
     Harris-Foulkes estimate   =    -549.41994342 Ry
     estimated scf accuracy    <       1.98128181 Ry

     total magnetization       =     0.09 Bohr mag/cell
     absolute magnetization    =     0.33 Bohr mag/cell

     iteration #  2     ecut=    80.00 Ry     beta=0.70
     Davidson diagonalization with overlap
     ethr =  1.02E-03,  avg # of iterations =  1.0

     total cpu time spent up to now is       28.2 secs

     total energy              =    -549.08547579 Ry
     Harris-Foulkes estimate   =    -549.20252214 Ry
     estimated scf accuracy    <       0.45788427 Ry

     total magnetization       =     0.04 Bohr mag/cell
     absolute magnetization    =     0.18 Bohr mag/cell

     iteration #  3     ecut=    80.00 Ry     beta=0.70
     Davidson diagonalization with overlap
     ethr =  2.36E-04,  avg # of iterations =  4.0

     total cpu time spent up to now is       34.4 secs

     total energy              =    -549.11207859 Ry
     Harris-Foulkes estimate   =    -549.12119692 Ry
     estimated scf accuracy    <       0.06334898 Ry

     total magnetization       =     0.00 Bohr mag/cell
     absolute magnetization    =     0.05 Bohr mag/cell

     iteration #  4     ecut=    80.00 Ry     beta=0.70
     Davidson diagonalization with overlap
     ethr =  3.27E-05,  avg # of iterations =  7.5

     total cpu time spent up to now is       42.2 secs

     total energy              =    -549.10565206 Ry
     Harris-Foulkes estimate   =    -549.11448800 Ry
     estimated scf accuracy    <       0.03017409 Ry

     total magnetization       =     0.00 Bohr mag/cell
     absolute magnetization    =     0.03 Bohr mag/cell

     iteration #  5     ecut=    80.00 Ry     beta=0.70
     Davidson diagonalization with overlap
     ethr =  1.56E-05,  avg # of iterations =  6.0

     negative rho (up, down):  3.509E-06 3.608E-06

     total cpu time spent up to now is       51.0 secs

     total energy              =    -549.10776520 Ry
     Harris-Foulkes estimate   =    -549.10845281 Ry
     estimated scf accuracy    <       0.00512923 Ry

     total magnetization       =     0.00 Bohr mag/cell
     absolute magnetization    =     0.01 Bohr mag/cell

     iteration #  6     ecut=    80.00 Ry     beta=0.70
     Davidson diagonalization with overlap
     ethr =  2.64E-06,  avg # of iterations =  6.1

     negative rho (up, down):  8.772E-05 8.752E-05

     total cpu time spent up to now is       60.6 secs

     total energy              =    -549.10826225 Ry
     Harris-Foulkes estimate   =    -549.10829654 Ry
     estimated scf accuracy    <       0.00081549 Ry

     total magnetization       =    -0.00 Bohr mag/cell
     absolute magnetization    =     0.01 Bohr mag/cell

     iteration #  7     ecut=    80.00 Ry     beta=0.70
     Davidson diagonalization with overlap
     ethr =  4.20E-07,  avg # of iterations =  5.0

     negative rho (up, down):  2.815E-04 2.817E-04

     total cpu time spent up to now is       70.2 secs

     total energy              =    -549.10854183 Ry
     Harris-Foulkes estimate   =    -549.10835389 Ry
     estimated scf accuracy    <       0.00018271 Ry

     total magnetization       =     0.00 Bohr mag/cell
     absolute magnetization    =     0.00 Bohr mag/cell

     iteration #  8     ecut=    80.00 Ry     beta=0.70
     Davidson diagonalization with overlap
     ethr =  9.42E-08,  avg # of iterations =  7.5

     negative rho (up, down):  2.240E-04 2.241E-04

     total cpu time spent up to now is       81.0 secs

     total energy              =    -549.10861507 Ry
     Harris-Foulkes estimate   =    -549.10855342 Ry
     estimated scf accuracy    <       0.00002130 Ry

     total magnetization       =    -0.00 Bohr mag/cell
     absolute magnetization    =     0.00 Bohr mag/cell

     iteration #  9     ecut=    80.00 Ry     beta=0.70
     Davidson diagonalization with overlap
     ethr =  1.10E-08,  avg # of iterations =  5.9

     negative rho (up, down):  1.530E-04 1.529E-04

     total cpu time spent up to now is       91.6 secs

     total energy              =    -549.10862243 Ry
     Harris-Foulkes estimate   =    -549.10861814 Ry
     estimated scf accuracy    <       0.00000363 Ry

     total magnetization       =    -0.00 Bohr mag/cell
     absolute magnetization    =     0.00 Bohr mag/cell

     iteration # 10     ecut=    80.00 Ry     beta=0.70
     Davidson diagonalization with overlap
     ethr =  1.87E-09,  avg # of iterations =  3.4

     negative rho (up, down):  1.288E-04 1.288E-04

     total cpu time spent up to now is      100.7 secs

     total energy              =    -549.10862270 Ry
     Harris-Foulkes estimate   =    -549.10862296 Ry
     estimated scf accuracy    <       0.00000039 Ry

     total magnetization       =    -0.00 Bohr mag/cell
     absolute magnetization    =     0.00 Bohr mag/cell

     iteration # 11     ecut=    80.00 Ry     beta=0.70
     Davidson diagonalization with overlap
     ethr =  2.02E-10,  avg # of iterations =  3.0

     negative rho (up, down):  1.074E-04 1.074E-04

     total cpu time spent up to now is      108.6 secs

     total energy              =    -549.10862231 Ry
     Harris-Foulkes estimate   =    -549.10862274 Ry
     estimated scf accuracy    <       0.00000009 Ry

     total magnetization       =    -0.00 Bohr mag/cell
     absolute magnetization    =     0.00 Bohr mag/cell

     iteration # 12     ecut=    80.00 Ry     beta=0.70
     Davidson diagonalization with overlap
     ethr =  4.55E-11,  avg # of iterations =  3.2

     negative rho (up, down):  1.107E-04 1.107E-04

     total cpu time spent up to now is      117.7 secs

     total energy              =    -549.10862236 Ry
     Harris-Foulkes estimate   =    -549.10862232 Ry
     estimated scf accuracy    <       0.00000001 Ry

     total magnetization       =     0.00 Bohr mag/cell
     absolute magnetization    =     0.00 Bohr mag/cell

     iteration # 13     ecut=    80.00 Ry     beta=0.70
     Davidson diagonalization with overlap
     ethr =  7.22E-12,  avg # of iterations =  3.0

     negative rho (up, down):  1.129E-04 1.129E-04
 
     Magnetic moment per site:
     atom:    1    charge:    0.2084    magn:    0.0000    constr:    0.0000
     atom:    2    charge:    0.2086    magn:   -0.0000    constr:    0.0000
     atom:    3    charge:    0.2049    magn:   -0.0000    constr:    0.0000
     atom:    4    charge:    0.2070    magn:    0.0000    constr:    0.0000
     atom:    5    charge:    0.2056    magn:    0.0000    constr:    0.0000
     atom:    6    charge:    0.2062    magn:   -0.0000    constr:    0.0000
     atom:    7    charge:    0.2080    magn:   -0.0000    constr:    0.0000
     atom:    8    charge:    0.2077    magn:    0.0000    constr:    0.0000
     atom:    9    charge:    0.2073    magn:    0.0000    constr:    0.0000
     atom:   10    charge:    0.2058    magn:   -0.0000    constr:    0.0000
     atom:   11    charge:    0.2047    magn:   -0.0000    constr:    0.0000
     atom:   12    charge:    0.2068    magn:    0.0000    constr:    0.0000
     atom:   13    charge:    0.2084    magn:    0.0000    constr:    0.0000
     atom:   14    charge:    0.2072    magn:   -0.0000    constr:    0.0000
     atom:   15    charge:    0.1990    magn:   -0.0000    constr:    0.0000
     atom:   16    charge:    0.1966    magn:    0.0000    constr:    0.0000
     atom:   17    charge:    0.1952    magn:    0.0000    constr:    0.0000
     atom:   18    charge:    0.3815    magn:    0.0000    constr:    0.0000
     atom:   19    charge:    0.2353    magn:   -0.0000    constr:    0.0000
     atom:   20    charge:    0.2023    magn:   -0.0000    constr:    0.0000
     atom:   21    charge:    0.2108    magn:    0.0000    constr:    0.0000
     atom:   22    charge:    0.2514    magn:   -0.0000    constr:    0.0000
     atom:   23    charge:    0.2045    magn:    0.0000    constr:    0.0000
     atom:   24    charge:    0.2008    magn:   -0.0000    constr:    0.0000
     atom:   25    charge:    0.2044    magn:   -0.0000    constr:    0.0000
     atom:   26    charge:    0.2044    magn:    0.0000    constr:    0.0000
     atom:   27    charge:    0.2073    magn:    0.0000    constr:    0.0000
     atom:   28    charge:    0.2067    magn:   -0.0000    constr:    0.0000
     atom:   29    charge:    0.2037    magn:   -0.0000    constr:    0.0000
     atom:   30    charge:    0.2049    magn:    0.0000    constr:    0.0000
     atom:   31    charge:    0.2060    magn:    0.0000    constr:    0.0000
     atom:   32    charge:    0.2053    magn:   -0.0000    constr:    0.0000
     atom:   33    charge:    0.2019    magn:   -0.0000    constr:    0.0000
     atom:   34    charge:    0.2078    magn:    0.0000    constr:    0.0000
     atom:   35    charge:    0.2061    magn:    0.0000    constr:    0.0000
     atom:   36    charge:    0.2054    magn:   -0.0000    constr:    0.0000
     atom:   37    charge:    0.2041    magn:   -0.0000    constr:    0.0000
     atom:   38    charge:    0.2044    magn:    0.0000    constr:    0.0000
     atom:   39    charge:    0.2076    magn:    0.0000    constr:    0.0000
     atom:   40    charge:    0.2085    magn:   -0.0000    constr:    0.0000
     atom:   41    charge:    0.2074    magn:   -0.0000    constr:    0.0000
     atom:   42    charge:    0.2050    magn:    0.0000    constr:    0.0000
     atom:   43    charge:    0.2048    magn:    0.0000    constr:    0.0000
     atom:   44    charge:    0.2046    magn:   -0.0000    constr:    0.0000
     atom:   45    charge:    0.2085    magn:   -0.0000    constr:    0.0000
     atom:   46    charge:    0.2081    magn:    0.0000    constr:    0.0000
     atom:   47    charge:    0.2055    magn:   -0.0000    constr:    0.0000
     atom:   48    charge:    0.2053    magn:   -0.0000    constr:    0.0000
     atom:   49    charge:    0.2068    magn:   -0.0000    constr:    0.0000
     atom:   50    charge:    0.2047    magn:    0.0000    constr:    0.0000

     total cpu time spent up to now is      124.1 secs

     End of self-consistent calculation

 ------ SPIN UP ------------


          k = 0.0000 0.0000 0.0000 (102525 PWs)   bands (ev):

   -19.8519 -19.4884 -19.4191 -18.5349 -18.3117 -18.0720 -17.8786 -17.7823
   -17.5473 -17.5147 -17.3252 -16.8606 -16.5641 -16.5410 -16.4155 -16.3091
   -16.2366 -15.1781 -14.7444 -14.6797 -14.6580 -14.4831 -13.5847 -13.3429
   -13.0157 -12.8206 -12.7594 -12.2885 -12.1198 -12.0085 -11.8573 -11.4274
   -11.2811 -10.9912 -10.9545 -10.9083 -10.8203 -10.7014 -10.5758 -10.1032
    -9.6289  -9.3732  -9.3204  -9.2134  -9.1403  -9.0050  -8.8974  -8.7490
    -8.3559  -7.9714  -7.8928  -7.7540  -7.6021  -7.5163  -7.2328  -7.1450
    -6.9433  -6.8908  -6.8254  -6.7841  -6.7570  -6.7033  -6.5185  -6.4380
    -6.3245  -6.2524  -6.1303  -6.1104  -6.0266  -5.9093  -5.6653  -5.6360
    -5.5806  -5.4436  -5.2446  -5.1969  -5.0093  -4.9275  -4.7647  -4.6819
    -4.5229  -4.2626  -4.2416  -4.1080  -3.9829  -3.7912  -3.7259  -3.6198
    -3.4649  -3.0438  -2.8183  -2.4333  -2.2651  -1.9215  -1.8279  -0.9215
    -0.3961  -0.2746   0.0290   0.8618   0.9991   1.4286   1.5506   1.9782
     2.5018   2.5668   2.7085   3.1163   3.2215   3.2591   3.3402   3.4157
     3.9686   4.1689   4.2110   4.4149

          k = 0.0000-0.2165 0.0000 (102536 PWs)   bands (ev):

   -19.8128 -19.6710 -19.0473 -18.9792 -18.2023 -17.8569 -17.8515 -17.6605
   -17.6171 -17.4672 -17.3166 -17.0672 -16.9870 -16.8813 -16.0625 -15.6391
   -15.6119 -15.5673 -15.4762 -15.2747 -14.2191 -13.7681 -13.7499 -13.6058
   -12.8884 -12.6867 -12.4847 -12.3890 -12.3447 -12.2057 -11.8020 -11.6581
   -11.4958 -11.3699 -10.8289 -10.4992 -10.3756 -10.3177 -10.2361 -10.1328
   -10.0799  -9.8729  -9.6222  -9.4591  -9.0761  -8.7266  -8.5915  -8.4691
    -8.1373  -8.0305  -7.9449  -7.9165  -7.8421  -7.7481  -7.5510  -7.1290
    -6.9699  -6.8265  -6.7582  -6.5610  -6.4693  -6.4303  -6.4194  -6.3800
    -6.3130  -6.2743  -6.2228  -6.1363  -6.0866  -5.8826  -5.7475  -5.6295
    -5.6147  -5.4291  -5.3176  -5.2260  -5.1624  -5.1024  -4.8775  -4.6698
    -4.5145  -4.3586  -4.2305  -4.0458  -3.8150  -3.7388  -3.6203  -3.2956
    -3.2875  -3.1708  -3.0901  -2.7343  -2.3656  -1.7929  -1.2810  -1.2158
    -0.9004  -0.0137   0.3829   0.6485   0.9642   1.5514   1.6533   2.0372
     2.2800   2.4328   2.7490   2.8011   3.0339   3.3722   3.5792   3.8124
     3.8936   4.0021   4.2736   4.3629

          k =-0.5000 0.0000 0.0000 (102516 PWs)   bands (ev):

   -19.3781 -19.3504 -19.0280 -19.0210 -18.9676 -18.9113 -18.1483 -17.9018
   -17.8775 -17.7207 -16.6761 -16.1347 -16.0966 -15.9158 -15.6308 -15.5232
   -15.4433 -15.2205 -15.2067 -14.9746 -14.7621 -14.4841 -14.1421 -14.0382
   -13.5667 -13.4022 -13.1831 -13.1308 -12.6382 -12.3848 -12.1605 -12.0401
   -11.3927 -11.1795 -10.8027 -10.7745 -10.7052 -10.5626  -9.6402  -9.2785
    -9.1906  -8.9737  -8.5652  -8.5278  -8.2049  -8.1784  -8.1352  -8.0923
    -8.0383  -7.9310  -7.8382  -7.7504  -7.6633  -7.5971  -7.5410  -7.3691
    -7.3216  -7.0828  -7.0485  -6.9877  -6.9056  -6.8179  -6.7743  -6.6732
    -6.6012  -6.4691  -6.4313  -6.4174  -6.0627  -6.0431  -5.9411  -5.6887
    -5.5853  -5.5652  -5.4288  -5.1237  -4.9855  -4.9162  -4.8944  -4.8167
    -4.6455  -4.4745  -4.3232  -3.8769  -3.6792  -3.6165  -3.2875  -3.0869
    -3.0770  -2.9393  -2.9077  -2.8794  -2.8146  -2.4699  -2.1348  -1.8348
    -1.5684   0.1506   0.8010   1.1348   1.4553   1.4769   1.7765   1.8746
     2.0199   2.2457   2.3148   2.8080   2.9509   3.0773   3.3048   3.3434
     3.7539   3.7720   3.8394   3.8501

          k =-0.5000-0.2165 0.0000 (102520 PWs)   bands (ev):

   -19.3257 -19.3153 -19.2312 -19.1707 -18.6814 -18.5473 -18.5053 -18.4206
   -17.4433 -17.0966 -17.0666 -16.8659 -16.0886 -15.5125 -15.5097 -15.2899
   -15.2056 -15.0418 -15.0144 -14.9260 -14.8620 -14.7690 -14.6586 -14.6312
   -13.3725 -13.1947 -13.0158 -12.8342 -12.3792 -12.2748 -12.1794 -12.1294
   -11.7193 -11.4637 -11.3210 -11.1364 -10.2593  -9.9068  -9.3412  -9.3060
    -8.9404  -8.8423  -8.6929  -8.5531  -8.5355  -8.5051  -8.4509  -8.3561
    -8.1888  -7.9484  -7.5787  -7.5631  -7.5079  -7.4116  -7.3620  -7.3095
    -7.2733  -7.1684  -7.1121  -7.0965  -6.9869  -6.9051  -6.8358  -6.7656
    -6.6353  -6.4539  -6.2955  -6.2638  -6.1364  -5.8557  -5.7085  -5.6734
    -5.6308  -5.5811  -5.4054  -5.3269  -5.1756  -4.7989  -4.7607  -4.7100
    -4.6102  -4.5352  -4.4413  -4.2676  -3.9374  -3.3741  -3.0860  -3.0701
    -2.9426  -2.8844  -2.8152  -2.7178  -2.6985  -2.5544  -2.4559  -2.0208
    -1.5344   0.1269   0.9527   1.4563   1.4760   1.6790   1.7112   1.7405
     1.9129   1.9436   2.2318   2.2767   3.0864   3.3823   3.4386   3.4685
     3.4745   3.8436   4.0978   4.4049

 ------ SPIN DOWN ----------


          k = 0.0000 0.0000 0.0000 (102525 PWs)   bands (ev):

   -19.8519 -19.4884 -19.4191 -18.5349 -18.3117 -18.0720 -17.8786 -17.7823
   -17.5473 -17.5147 -17.3252 -16.8606 -16.5641 -16.5410 -16.4155 -16.3091
   -16.2366 -15.1781 -14.7444 -14.6797 -14.6580 -14.4831 -13.5847 -13.3429
   -13.0157 -12.8206 -12.7594 -12.2885 -12.1198 -12.0085 -11.8573 -11.4274
   -11.2811 -10.9912 -10.9545 -10.9083 -10.8203 -10.7014 -10.5758 -10.1032
    -9.6289  -9.3732  -9.3204  -9.2134  -9.1403  -9.0050  -8.8974  -8.7490
    -8.3559  -7.9714  -7.8928  -7.7540  -7.6021  -7.5163  -7.2328  -7.1450
    -6.9433  -6.8908  -6.8254  -6.7841  -6.7570  -6.7033  -6.5185  -6.4380
    -6.3245  -6.2524  -6.1303  -6.1104  -6.0266  -5.9093  -5.6653  -5.6360
    -5.5806  -5.4436  -5.2446  -5.1969  -5.0093  -4.9275  -4.7647  -4.6819
    -4.5229  -4.2626  -4.2416  -4.1080  -3.9829  -3.7912  -3.7259  -3.6198
    -3.4649  -3.0438  -2.8183  -2.4333  -2.2651  -1.9215  -1.8279  -0.9214
    -0.3961  -0.2746   0.0290   0.8618   0.9991   1.4286   1.5506   1.9782
     2.5018   2.5668   2.7085   3.1163   3.2215   3.2591   3.3402   3.4157
     3.9686   4.1689   4.2110   4.4148

          k = 0.0000-0.2165 0.0000 (102536 PWs)   bands (ev):

   -19.8128 -19.6710 -19.0473 -18.9792 -18.2023 -17.8569 -17.8515 -17.6605
   -17.6171 -17.4672 -17.3166 -17.0672 -16.9870 -16.8813 -16.0625 -15.6391
   -15.6119 -15.5673 -15.4762 -15.2747 -14.2191 -13.7681 -13.7499 -13.6058
   -12.8884 -12.6867 -12.4847 -12.3890 -12.3447 -12.2057 -11.8020 -11.6581
   -11.4958 -11.3699 -10.8289 -10.4992 -10.3756 -10.3177 -10.2361 -10.1328
   -10.0799  -9.8729  -9.6222  -9.4591  -9.0761  -8.7266  -8.5915  -8.4691
    -8.1373  -8.0305  -7.9449  -7.9165  -7.8421  -7.7481  -7.5510  -7.1290
    -6.9699  -6.8265  -6.7582  -6.5610  -6.4693  -6.4303  -6.4194  -6.3800
    -6.3130  -6.2743  -6.2228  -6.1363  -6.0866  -5.8826  -5.7475  -5.6295
    -5.6147  -5.4291  -5.3176  -5.2260  -5.1624  -5.1024  -4.8775  -4.6698
    -4.5145  -4.3586  -4.2305  -4.0458  -3.8150  -3.7388  -3.6203  -3.2956
    -3.2875  -3.1708  -3.0901  -2.7343  -2.3656  -1.7929  -1.2810  -1.2158
    -0.9004  -0.0137   0.3829   0.6485   0.9642   1.5514   1.6533   2.0372
     2.2800   2.4328   2.7490   2.8011   3.0339   3.3722   3.5792   3.8124
     3.8936   4.0021   4.2736   4.3633

          k =-0.5000 0.0000 0.0000 (102516 PWs)   bands (ev):

   -19.3781 -19.3504 -19.0280 -19.0210 -18.9676 -18.9113 -18.1483 -17.9018
   -17.8775 -17.7207 -16.6761 -16.1347 -16.0966 -15.9158 -15.6308 -15.5232
   -15.4433 -15.2205 -15.2067 -14.9746 -14.7621 -14.4841 -14.1421 -14.0382
   -13.5667 -13.4022 -13.1831 -13.1308 -12.6382 -12.3848 -12.1605 -12.0401
   -11.3927 -11.1795 -10.8027 -10.7745 -10.7052 -10.5626  -9.6402  -9.2785
    -9.1906  -8.9737  -8.5652  -8.5278  -8.2049  -8.1784  -8.1352  -8.0923
    -8.0383  -7.9310  -7.8382  -7.7504  -7.6633  -7.5971  -7.5410  -7.3691
    -7.3216  -7.0828  -7.0485  -6.9877  -6.9056  -6.8179  -6.7743  -6.6732
    -6.6012  -6.4691  -6.4313  -6.4174  -6.0627  -6.0431  -5.9411  -5.6887
    -5.5853  -5.5652  -5.4288  -5.1237  -4.9855  -4.9162  -4.8944  -4.8167
    -4.6455  -4.4745  -4.3232  -3.8769  -3.6792  -3.6165  -3.2875  -3.0869
    -3.0770  -2.9393  -2.9077  -2.8794  -2.8146  -2.4699  -2.1348  -1.8348
    -1.5684   0.1506   0.8010   1.1348   1.4553   1.4769   1.7765   1.8746
     2.0199   2.2457   2.3148   2.8080   2.9509   3.0773   3.3048   3.3434
     3.7538   3.7720   3.8394   3.8501

          k =-0.5000-0.2165 0.0000 (102520 PWs)   bands (ev):

   -19.3257 -19.3153 -19.2312 -19.1707 -18.6814 -18.5473 -18.5053 -18.4206
   -17.4433 -17.0966 -17.0666 -16.8659 -16.0886 -15.5125 -15.5097 -15.2899
   -15.2056 -15.0418 -15.0144 -14.9260 -14.8620 -14.7690 -14.6586 -14.6312
   -13.3725 -13.1947 -13.0158 -12.8342 -12.3792 -12.2748 -12.1794 -12.1294
   -11.7193 -11.4637 -11.3210 -11.1364 -10.2593  -9.9068  -9.3412  -9.3060
    -8.9404  -8.8423  -8.6929  -8.5531  -8.5355  -8.5051  -8.4509  -8.3561
    -8.1888  -7.9484  -7.5787  -7.5631  -7.5079  -7.4116  -7.3620  -7.3095
    -7.2733  -7.1684  -7.1121  -7.0965  -6.9869  -6.9051  -6.8358  -6.7656
    -6.6353  -6.4539  -6.2955  -6.2638  -6.1364  -5.8557  -5.7085  -5.6734
    -5.6308  -5.5811  -5.4054  -5.3269  -5.1756  -4.7989  -4.7607  -4.7100
    -4.6102  -4.5352  -4.4413  -4.2676  -3.9374  -3.3741  -3.0860  -3.0701
    -2.9426  -2.8844  -2.8152  -2.7178  -2.6985  -2.5544  -2.4559  -2.0208
    -1.5344   0.1269   0.9527   1.4563   1.4760   1.6790   1.7112   1.7405
     1.9129   1.9436   2.2318   2.2767   3.0864   3.3823   3.4386   3.4685
     3.4745   3.8436   4.0978   4.4050

     the Fermi energy is    -0.4776 ev

!    total energy              =    -549.10862245 Ry
     Harris-Foulkes estimate   =    -549.10862236 Ry
     estimated scf accuracy    <          2.5E-09 Ry

     The total energy is the sum of the following terms:

     one-electron contribution =   -2178.43499475 Ry
     hartree contribution      =    1132.64014326 Ry
     xc contribution           =    -170.05604155 Ry
     ewald contribution        =     667.20289421 Ry
     Dispersion Correction     =      -0.20545024 Ry
     smearing contrib. (-TS)   =      -0.25517338 Ry

     total magnetization       =     0.00 Bohr mag/cell
     absolute magnetization    =     0.00 Bohr mag/cell

     convergence has been achieved in  13 iterations

     Forces acting on atoms (Ry/au):

     atom    1 type  1   force =     0.00090662   -0.00293201    0.00182961
     atom    2 type  1   force =    -0.00069480    0.00133973   -0.01398755
     atom    3 type  1   force =    -0.00131545   -0.00077153   -0.00230957
     atom    4 type  1   force =     0.00871571    0.00067160   -0.02145813
     atom    5 type  1   force =     0.00310154    0.00239087    0.00055037
     atom    6 type  1   force =     0.00398103   -0.00264142    0.01070972
     atom    7 type  1   force =     0.00106936    0.00236134    0.00419608
     atom    8 type  1   force =    -0.00794000   -0.00970996   -0.01881639
     atom    9 type  1   force =    -0.00420455   -0.00215774   -0.00006033
     atom   10 type  1   force =    -0.00253828    0.00466511   -0.00798965
     atom   11 type  1   force =     0.00096323    0.00071736   -0.00040674
     atom   12 type  1   force =    -0.00217979   -0.00132760    0.00088816
     atom   13 type  1   force =    -0.00866311   -0.01642886   -0.00666972
     atom   14 type  1   force =     0.03018632    0.01049011   -0.00170159
     atom   15 type  1   force =     0.06544741    0.06439759    0.15223547
     atom   16 type  1   force =     0.00473785   -0.00885884    0.13925353
     atom   17 type  1   force =     0.00864637   -0.18859499   -0.25858504
     atom   18 type  2   force =    -0.11418609    0.05365339    1.74997989
     atom   19 type  1   force =    -0.10333015   -0.03838060   -1.89595842
     atom   20 type  1   force =    -0.06671449    0.07304707    0.14499288
     atom   21 type  1   force =     0.11233398    0.05398687   -0.46630762
     atom   22 type  2   force =     0.15607417    0.07891459    0.38850214
     atom   23 type  1   force =    -0.00132616    0.00458500   -0.01091067
     atom   24 type  1   force =    -0.06102207   -0.00075999    0.09302620
     atom   25 type  1   force =     0.00699120    0.00383394   -0.02171644
     atom   26 type  1   force =    -0.01267186    0.00372015   -0.02391283
     atom   27 type  1   force =    -0.01171050    0.00251602   -0.01441943
     atom   28 type  1   force =     0.00018013    0.00306705    0.00428679
     atom   29 type  1   force =     0.00781766   -0.03639291   -0.00413239
     atom   30 type  1   force =    -0.00296145   -0.00093139   -0.00096883
     atom   31 type  1   force =     0.01316428    0.00207030    0.00157272
     atom   32 type  1   force =    -0.00081423    0.00069148   -0.00577484
     atom   33 type  1   force =    -0.03343439   -0.05086920    0.08826399
     atom   34 type  1   force =     0.00028620   -0.00118694   -0.00242859
     atom   35 type  1   force =     0.00108862   -0.01182089   -0.00584292
     atom   36 type  1   force =    -0.00083936    0.00233382   -0.00897355
     atom   37 type  1   force =     0.00612690    0.00555131    0.01302164
     atom   38 type  1   force =     0.00323165   -0.00340838    0.00135591
     atom   39 type  1   force =    -0.00023525   -0.00275830    0.00467225
     atom   40 type  1   force =     0.00011321    0.00004230   -0.00166813
     atom   41 type  1   force =    -0.00331689    0.00069126   -0.00220189
     atom   42 type  1   force =     0.00203679   -0.00099291    0.00134274
     atom   43 type  1   force =     0.00027310    0.00049894   -0.00162522
     atom   44 type  1   force =    -0.00232706    0.00110248    0.00108265
     atom   45 type  1   force =     0.00036739    0.00131285    0.00102472
     atom   46 type  1   force =     0.00027346    0.00085198   -0.00317125
     atom   47 type  1   force =     0.00018343    0.00003450   -0.00182600
     atom   48 type  1   force =     0.00269215    0.00147320    0.00119733
     atom   49 type  1   force =     0.00351258    0.00104550   -0.00144960
     atom   50 type  1   force =    -0.00207641   -0.00113328    0.00128854

     Total force =     2.704626     Total SCF correction =     0.000089

     BFGS Geometry Optimization

     number of scf cycles    =   1
     number of bfgs steps    =   0

     energy   new            =    -549.1086224499 Ry

     new trust radius        =       0.5000000000 bohr
     new conv_thr            =       0.0000000100 Ry


ATOMIC_POSITIONS (angstrom)
C       -0.002197205   0.711649397   5.119994898
C       -0.001546258   2.130528482   5.104631272
C        1.226905047   0.003108598   5.123578233
C        1.227773816   2.839476471   5.077530480
C        2.456381081   0.712831098   5.106956677
C        2.456653888   2.130494482   5.082542065
C        3.686709467   0.002301272   5.101384593
C        3.686497719   2.844101202   5.061818523
C        4.917117155   0.712332333   5.098541595
C        4.918496658   2.131825631   5.075666891
C        6.146120204   0.003122503   5.118363333
C        6.148904243   2.839037615   5.079313738
C       -0.001286314   4.966239112   5.030550782
C        0.004063435   6.390248052   4.994192937
C        1.235275506   4.266480063   5.062659257
C        1.232482205   7.095529456   5.058440628
C        2.455362865   4.946887426   5.710724254
H        2.425864958   6.388691732   7.030335024
C        2.427377395   6.375869671   5.822387429
C        3.679152711   4.269736306   5.082690228
C        3.705459722   7.105949176   5.725794602
H        3.723532900   7.094997752   6.759665636
C        4.922929266   4.973298477   5.041409939
C        4.927302125   6.381214401   5.091790294
C        6.152226073   4.258107612   5.037014492
C        6.144508734   7.097512907   5.032288494
C       -0.002182624   9.229655682   5.051461102
C       -0.001586735  10.654771953   5.046367231
C        1.230412509   8.517900500   5.057224281
C        1.227765304  11.365671990   5.066655024
C        2.465110568   9.238160983   5.075979110
C        2.458407187  10.658823564   5.071805457
C        3.683476758   8.539825369   5.134446829
C        3.686988373  11.366605890   5.094931652
C        4.912973297   9.236279086   5.076365972
C        4.915727403  10.658936805   5.069749817
C        6.148605491   8.523838279   5.059144159
C        6.146305092  11.365450664   5.061738904
C       -0.002633364  13.494780543   5.091060932
C       -0.002772985  14.914160323   5.114227599
C        1.227744870  12.785225423   5.093803236
C        1.226871838  15.622920617   5.119647070
C        2.456940897  13.494022092   5.116673576
C        2.456677076  14.913184660   5.121210833
C        3.686315084  12.786011913   5.112962762
C        3.686150889  15.622077511   5.122138185
C        4.915509387  13.494050607   5.114085603
C        4.915565372  14.913280132   5.118546811
C        6.145024705  12.785588995   5.089938044
C        6.145605885  15.622685452   5.117169517



     Writing output data file gc.save
     Check: negative starting charge=(component1):   -0.000175
     NEW-OLD atomic charge density approx. for the potential
     Check: negative starting charge=(component1):   -0.000168

     negative rho (up, down):  7.184E-05 7.184E-05

     total cpu time spent up to now is      125.1 secs

     Self-consistent Calculation

     iteration #  1     ecut=    80.00 Ry     beta=0.70
     Davidson diagonalization with overlap
     ethr =  1.00E-06,  avg # of iterations = 15.5

     negative rho (up, down):  5.653E-05 5.652E-05

     total cpu time spent up to now is      150.2 secs

     total energy              =    -549.70153288 Ry
     Harris-Foulkes estimate   =    -549.82785514 Ry
     estimated scf accuracy    <       0.35948786 Ry

     total magnetization       =     0.00 Bohr mag/cell
     absolute magnetization    =     0.00 Bohr mag/cell

     iteration #  2     ecut=    80.00 Ry     beta=0.70
     Davidson diagonalization with overlap
     ethr =  1.85E-04,  avg # of iterations =  2.0

     negative rho (up, down):  4.763E-05 4.763E-05

     total cpu time spent up to now is      157.6 secs

     total energy              =    -549.71133953 Ry
     Harris-Foulkes estimate   =    -549.73005973 Ry
     estimated scf accuracy    <       0.04421152 Ry

     total magnetization       =     0.00 Bohr mag/cell
     absolute magnetization    =     0.00 Bohr mag/cell

     iteration #  3     ecut=    80.00 Ry     beta=0.70
     Davidson diagonalization with overlap
     ethr =  2.28E-05,  avg # of iterations =  4.2

     negative rho (up, down):  4.122E-05 4.122E-05

     total cpu time spent up to now is      166.8 secs

     total energy              =    -549.71673057 Ry
     Harris-Foulkes estimate   =    -549.71720732 Ry
     estimated scf accuracy    <       0.00143584 Ry

     total magnetization       =     0.00 Bohr mag/cell
     absolute magnetization    =     0.00 Bohr mag/cell

     iteration #  4     ecut=    80.00 Ry     beta=0.70
     Davidson diagonalization with overlap
     ethr =  7.40E-07,  avg # of iterations =  6.0

     negative rho (up, down):  3.565E-05 3.565E-05

     total cpu time spent up to now is      177.9 secs

     total energy              =    -549.71686272 Ry
     Harris-Foulkes estimate   =    -549.71689568 Ry
     estimated scf accuracy    <       0.00017532 Ry

     total magnetization       =     0.00 Bohr mag/cell
     absolute magnetization    =     0.00 Bohr mag/cell

     iteration #  5     ecut=    80.00 Ry     beta=0.70
     Davidson diagonalization with overlap
     ethr =  9.04E-08,  avg # of iterations =  2.5

     negative rho (up, down):  3.304E-05 3.304E-05

     total cpu time spent up to now is      185.4 secs

     total energy              =    -549.71686140 Ry
     Harris-Foulkes estimate   =    -549.71687073 Ry
     estimated scf accuracy    <       0.00004048 Ry

     total magnetization       =     0.00 Bohr mag/cell
     absolute magnetization    =     0.00 Bohr mag/cell

     iteration #  6     ecut=    80.00 Ry     beta=0.70
     Davidson diagonalization with overlap
     ethr =  2.09E-08,  avg # of iterations =  3.0

     negative rho (up, down):  3.479E-05 3.479E-05

     total cpu time spent up to now is      192.8 secs

     total energy              =    -549.71686558 Ry
     Harris-Foulkes estimate   =    -549.71686529 Ry
     estimated scf accuracy    <       0.00000647 Ry

     total magnetization       =     0.00 Bohr mag/cell
     absolute magnetization    =     0.00 Bohr mag/cell

     iteration #  7     ecut=    80.00 Ry     beta=0.70
     Davidson diagonalization with overlap
     ethr =  3.34E-09,  avg # of iterations =  3.2

     negative rho (up, down):  3.770E-05 3.770E-05

     total cpu time spent up to now is      201.1 secs

     total energy              =    -549.71686652 Ry
     Harris-Foulkes estimate   =    -549.71686604 Ry
     estimated scf accuracy    <       0.00000132 Ry

     total magnetization       =     0.00 Bohr mag/cell
     absolute magnetization    =     0.00 Bohr mag/cell

     iteration #  8     ecut=    80.00 Ry     beta=0.70
     Davidson diagonalization with overlap
     ethr =  6.79E-10,  avg # of iterations =  3.5

     negative rho (up, down):  4.052E-05 4.052E-05

     total cpu time spent up to now is      209.4 secs

     total energy              =    -549.71686687 Ry
     Harris-Foulkes estimate   =    -549.71686663 Ry
     estimated scf accuracy    <       0.00000030 Ry

     total magnetization       =     0.00 Bohr mag/cell
     absolute magnetization    =     0.00 Bohr mag/cell

     iteration #  9     ecut=    80.00 Ry     beta=0.70
     Davidson diagonalization with overlap
     ethr =  1.53E-10,  avg # of iterations =  3.0

     negative rho (up, down):  4.052E-05 4.052E-05

     total cpu time spent up to now is      217.5 secs

     total energy              =    -549.71686690 Ry
     Harris-Foulkes estimate   =    -549.71686690 Ry
     estimated scf accuracy    <       0.00000003 Ry

     total magnetization       =     0.00 Bohr mag/cell
     absolute magnetization    =     0.00 Bohr mag/cell

     iteration # 10     ecut=    80.00 Ry     beta=0.70
     Davidson diagonalization with overlap
     ethr =  1.62E-11,  avg # of iterations =  3.8

     negative rho (up, down):  3.996E-05 3.996E-05
 
     Magnetic moment per site:
     atom:    1    charge:    0.2084    magn:    0.0000    constr:    0.0000
     atom:    2    charge:    0.2085    magn:   -0.0000    constr:    0.0000
     atom:    3    charge:    0.2048    magn:   -0.0000    constr:    0.0000
     atom:    4    charge:    0.2068    magn:    0.0000    constr:    0.0000
     atom:    5    charge:    0.2057    magn:    0.0000    constr:    0.0000
     atom:    6    charge:    0.2063    magn:   -0.0000    constr:    0.0000
     atom:    7    charge:    0.2080    magn:   -0.0000    constr:    0.0000
     atom:    8    charge:    0.2074    magn:    0.0000    constr:    0.0000
     atom:    9    charge:    0.2073    magn:    0.0000    constr:    0.0000
     atom:   10    charge:    0.2058    magn:   -0.0000    constr:    0.0000
     atom:   11    charge:    0.2047    magn:   -0.0000    constr:    0.0000
     atom:   12    charge:    0.2068    magn:    0.0000    constr:    0.0000
     atom:   13    charge:    0.2082    magn:    0.0000    constr:    0.0000
     atom:   14    charge:    0.2071    magn:   -0.0000    constr:    0.0000
     atom:   15    charge:    0.2001    magn:   -0.0000    constr:    0.0000
     atom:   16    charge:    0.1997    magn:    0.0000    constr:    0.0000
     atom:   17    charge:    0.2001    magn:    0.0000    constr:    0.0000
     atom:   18    charge:    0.1820    magn:   -0.0000    constr:    0.0000
     atom:   19    charge:    0.2107    magn:    0.0000    constr:    0.0000
     atom:   20    charge:    0.2035    magn:   -0.0000    constr:    0.0000
     atom:   21    charge:    0.2117    magn:    0.0000    constr:    0.0000
     atom:   22    charge:    0.2213    magn:   -0.0000    constr:    0.0000
     atom:   23    charge:    0.2044    magn:    0.0000    constr:    0.0000
     atom:   24    charge:    0.2022    magn:   -0.0000    constr:    0.0000
     atom:   25    charge:    0.2044    magn:   -0.0000    constr:    0.0000
     atom:   26    charge:    0.2040    magn:    0.0000    constr:    0.0000
     atom:   27    charge:    0.2072    magn:    0.0000    constr:    0.0000
     atom:   28    charge:    0.2068    magn:   -0.0000    constr:    0.0000
     atom:   29    charge:    0.2037    magn:   -0.0000    constr:    0.0000
     atom:   30    charge:    0.2049    magn:    0.0000    constr:    0.0000
     atom:   31    charge:    0.2059    magn:   -0.0000    constr:    0.0000
     atom:   32    charge:    0.2053    magn:   -0.0000    constr:    0.0000
     atom:   33    charge:    0.2032    magn:    0.0000    constr:    0.0000
     atom:   34    charge:    0.2078    magn:    0.0000    constr:    0.0000
     atom:   35    charge:    0.2058    magn:    0.0000    constr:    0.0000
     atom:   36    charge:    0.2053    magn:   -0.0000    constr:    0.0000
     atom:   37    charge:    0.2042    magn:   -0.0000    constr:    0.0000
     atom:   38    charge:    0.2044    magn:    0.0000    constr:    0.0000
     atom:   39    charge:    0.2076    magn:    0.0000    constr:    0.0000
     atom:   40    charge:    0.2085    magn:   -0.0000    constr:    0.0000
     atom:   41    charge:    0.2074    magn:   -0.0000    constr:    0.0000
     atom:   42    charge:    0.2051    magn:    0.0000    constr:    0.0000
     atom:   43    charge:    0.2048    magn:    0.0000    constr:    0.0000
     atom:   44    charge:    0.2046    magn:   -0.0000    constr:    0.0000
     atom:   45    charge:    0.2085    magn:   -0.0000    constr:    0.0000
     atom:   46    charge:    0.2081    magn:   -0.0000    constr:    0.0000
     atom:   47    charge:    0.2055    magn:    0.0000    constr:    0.0000
     atom:   48    charge:    0.2053    magn:    0.0000    constr:    0.0000
     atom:   49    charge:    0.2068    magn:   -0.0000    constr:    0.0000
     atom:   50    charge:    0.2047    magn:    0.0000    constr:    0.0000

     total cpu time spent up to now is      224.3 secs

     End of self-consistent calculation

 ------ SPIN UP ------------


          k = 0.0000 0.0000 0.0000 (102525 PWs)   bands (ev):

   -19.8396 -19.4769 -19.3945 -18.3720 -18.3179 -17.9087 -17.8689 -17.5899
   -17.5244 -17.5114 -17.3778 -16.6623 -16.5550 -16.5257 -16.4122 -16.3666
   -16.3195 -14.9667 -14.7424 -14.7088 -14.6709 -14.5183 -13.5312 -13.1442
   -12.9470 -12.8229 -12.7875 -12.1105 -12.0702 -11.9986 -11.9043 -11.2280
   -11.1283 -10.9802 -10.9454 -10.9087 -10.8273 -10.7842 -10.6826  -9.7873
    -9.4788  -9.3536  -9.3222  -9.2175  -9.1521  -9.0749  -9.0336  -8.5790
    -8.1650  -7.9396  -7.8696  -7.7770  -7.6350  -7.5298  -7.2128  -7.0177
    -6.9437  -6.9122  -6.8056  -6.7562  -6.7429  -6.6895  -6.4361  -6.3976
    -6.3064  -6.1888  -6.1220  -6.1075  -5.9377  -5.9108  -5.7203  -5.5922
    -5.4958  -5.4860  -5.2557  -5.2410  -5.0757  -4.9083  -4.8302  -4.5966
    -4.4116  -4.2630  -4.2440  -4.1640  -4.0461  -3.9051  -3.7819  -3.5366
    -3.2172  -3.1590  -2.9270  -2.4765  -2.2794  -2.1678  -1.7010  -0.9272
    -0.4318  -0.2810   0.1182   0.8614   1.1106   1.4285   1.5564   2.0756
     2.3790   2.6280   2.8292   3.1554   3.2385   3.2650   3.3439   3.4282
     3.8334   4.0328   4.3212   4.5021

          k = 0.0000-0.2165 0.0000 (102536 PWs)   bands (ev):

   -19.7980 -19.6615 -18.9842 -18.9734 -17.8467 -17.8389 -17.8010 -17.6723
   -17.5726 -17.4857 -17.1762 -17.0471 -17.0139 -16.9589 -15.8579 -15.6426
   -15.6254 -15.5929 -15.4595 -15.3526 -14.0006 -13.7709 -13.7428 -13.6529
   -12.6570 -12.5488 -12.4681 -12.3897 -12.3447 -12.2467 -11.6618 -11.6229
   -11.4947 -11.4276 -10.5924 -10.3692 -10.3445 -10.3046 -10.2390 -10.1729
   -10.0997  -9.9657  -9.4857  -9.3887  -8.9864  -8.6163  -8.5751  -8.5130
    -8.1376  -7.9986  -7.9579  -7.9405  -7.8937  -7.7517  -7.4626  -6.9863
    -6.8701  -6.7456  -6.6907  -6.5287  -6.4662  -6.4052  -6.3955  -6.3677
    -6.2967  -6.2612  -6.1964  -6.1523  -6.0727  -5.8972  -5.7796  -5.6263
    -5.6045  -5.5281  -5.2676  -5.1945  -5.1514  -5.0276  -4.9048  -4.7141
    -4.5770  -4.4402  -4.1679  -3.9446  -3.7883  -3.6881  -3.6321  -3.3432
    -3.2797  -3.2568  -3.1478  -2.6834  -2.5278  -1.8329  -1.3297  -1.2778
    -0.7946  -0.0153   0.4162   0.6464   1.0442   1.6307   1.7046   2.0417
     2.2783   2.4462   2.7111   2.8214   3.0287   3.3292   3.6808   3.8755
     3.9815   4.0316   4.1026   4.3980

          k =-0.5000 0.0000 0.0000 (102516 PWs)   bands (ev):

   -19.3639 -19.3313 -19.0058 -18.9698 -18.9529 -18.8490 -17.9178 -17.8921
   -17.8732 -17.7583 -16.2604 -16.1191 -16.0907 -15.9716 -15.5906 -15.5185
   -15.3526 -15.2140 -15.1927 -15.0453 -14.6798 -14.5051 -14.1445 -14.0805
   -13.5544 -13.4375 -13.1680 -13.1021 -12.5004 -12.3490 -12.2000 -12.1040
   -11.1427 -10.8445 -10.7866 -10.7718 -10.6741 -10.6426  -9.4050  -9.2357
    -9.1000  -8.6869  -8.5211  -8.4576  -8.1901  -8.1639  -8.1206  -8.0994
    -8.0678  -7.9808  -7.8422  -7.7606  -7.7044  -7.6241  -7.5734  -7.3621
    -7.2941  -7.0423  -6.9823  -6.9200  -6.8280  -6.7764  -6.7459  -6.6779
    -6.6692  -6.5116  -6.4057  -6.3944  -6.1429  -6.0940  -5.8947  -5.6489
    -5.6377  -5.5745  -5.2712  -5.0992  -5.0088  -4.9166  -4.8597  -4.7845
    -4.6025  -4.4192  -4.2063  -4.1760  -3.6935  -3.6208  -3.3961  -3.1116
    -3.0619  -3.0280  -2.9248  -2.8698  -2.7938  -2.5148  -2.1188  -2.0596
    -1.2841   0.1484   0.8745   1.1418   1.4813   1.4846   1.8111   1.8810
     2.0831   2.2563   2.3417   2.8663   2.9208   3.0927   3.1861   3.3243
     3.6097   3.7826   3.8474   3.8738

          k =-0.5000-0.2165 0.0000 (102520 PWs)   bands (ev):

   -19.3086 -19.3001 -19.2190 -19.1226 -18.5342 -18.5131 -18.4885 -18.4271
   -17.1571 -17.0862 -17.0617 -16.9273 -15.6790 -15.4981 -15.4924 -15.3140
   -15.1443 -15.0279 -14.9987 -14.9417 -14.8570 -14.7732 -14.7594 -14.7137
   -13.2761 -13.1730 -13.0341 -12.8970 -12.2769 -12.1817 -12.1642 -12.0864
   -11.6003 -11.4372 -11.3419 -11.1710  -9.7602  -9.5892  -9.3321  -9.2764
    -8.9762  -8.7717  -8.7271  -8.5739  -8.5431  -8.5282  -8.4693  -8.3849
    -8.1216  -7.7098  -7.5871  -7.5429  -7.4391  -7.3916  -7.3433  -7.2962
    -7.2852  -7.1806  -7.0980  -7.0855  -6.9995  -6.9679  -6.8540  -6.7660
    -6.7008  -6.4070  -6.3256  -6.3028  -5.9089  -5.8209  -5.6841  -5.6646
    -5.6385  -5.5850  -5.4683  -5.3862  -4.9550  -4.9222  -4.7727  -4.7062
    -4.5806  -4.4512  -4.4193  -4.3294  -3.9383  -3.6561  -3.0711  -3.0543
    -2.9278  -2.8721  -2.8007  -2.7035  -2.6882  -2.5965  -2.4924  -2.3166
    -1.2456   0.1138   1.0764   1.4651   1.4870   1.6833   1.7213   1.7558
     1.9332   1.9553   2.2509   2.2870   3.0684   3.2687   3.4459   3.4836
     3.4895   3.8080   4.0879   4.3538

 ------ SPIN DOWN ----------


          k = 0.0000 0.0000 0.0000 (102525 PWs)   bands (ev):

   -19.8396 -19.4769 -19.3945 -18.3720 -18.3179 -17.9087 -17.8689 -17.5899
   -17.5244 -17.5114 -17.3778 -16.6623 -16.5550 -16.5257 -16.4122 -16.3666
   -16.3195 -14.9667 -14.7424 -14.7088 -14.6709 -14.5183 -13.5312 -13.1442
   -12.9470 -12.8229 -12.7875 -12.1105 -12.0702 -11.9986 -11.9043 -11.2280
   -11.1283 -10.9802 -10.9454 -10.9087 -10.8273 -10.7842 -10.6826  -9.7873
    -9.4788  -9.3536  -9.3222  -9.2175  -9.1521  -9.0749  -9.0336  -8.5790
    -8.1650  -7.9396  -7.8696  -7.7770  -7.6350  -7.5298  -7.2128  -7.0177
    -6.9437  -6.9122  -6.8056  -6.7562  -6.7429  -6.6895  -6.4361  -6.3976
    -6.3064  -6.1888  -6.1220  -6.1075  -5.9377  -5.9108  -5.7203  -5.5922
    -5.4958  -5.4860  -5.2557  -5.2410  -5.0757  -4.9083  -4.8302  -4.5966
    -4.4116  -4.2630  -4.2440  -4.1640  -4.0461  -3.9051  -3.7819  -3.5366
    -3.2172  -3.1590  -2.9270  -2.4765  -2.2794  -2.1678  -1.7010  -0.9272
    -0.4318  -0.2810   0.1182   0.8614   1.1106   1.4285   1.5564   2.0756
     2.3790   2.6280   2.8292   3.1554   3.2385   3.2650   3.3439   3.4282
     3.8334   4.0328   4.3212   4.5021

          k = 0.0000-0.2165 0.0000 (102536 PWs)   bands (ev):

   -19.7980 -19.6615 -18.9842 -18.9734 -17.8467 -17.8389 -17.8010 -17.6723
   -17.5726 -17.4857 -17.1762 -17.0471 -17.0139 -16.9589 -15.8579 -15.6426
   -15.6254 -15.5929 -15.4595 -15.3526 -14.0006 -13.7709 -13.7428 -13.6529
   -12.6570 -12.5488 -12.4681 -12.3897 -12.3447 -12.2467 -11.6618 -11.6229
   -11.4947 -11.4276 -10.5924 -10.3692 -10.3445 -10.3046 -10.2390 -10.1729
   -10.0997  -9.9657  -9.4857  -9.3887  -8.9864  -8.6163  -8.5751  -8.5130
    -8.1376  -7.9986  -7.9579  -7.9405  -7.8937  -7.7517  -7.4626  -6.9863
    -6.8701  -6.7456  -6.6907  -6.5287  -6.4662  -6.4052  -6.3955  -6.3677
    -6.2967  -6.2612  -6.1964  -6.1523  -6.0727  -5.8972  -5.7796  -5.6263
    -5.6045  -5.5281  -5.2676  -5.1945  -5.1514  -5.0276  -4.9048  -4.7141
    -4.5770  -4.4402  -4.1679  -3.9446  -3.7883  -3.6881  -3.6321  -3.3432
    -3.2797  -3.2568  -3.1478  -2.6834  -2.5278  -1.8329  -1.3297  -1.2778
    -0.7946  -0.0153   0.4162   0.6464   1.0442   1.6307   1.7046   2.0417
     2.2783   2.4462   2.7111   2.8214   3.0287   3.3292   3.6808   3.8755
     3.9815   4.0316   4.1026   4.3979

          k =-0.5000 0.0000 0.0000 (102516 PWs)   bands (ev):

   -19.3639 -19.3313 -19.0058 -18.9698 -18.9529 -18.8490 -17.9178 -17.8921
   -17.8732 -17.7583 -16.2604 -16.1191 -16.0907 -15.9716 -15.5906 -15.5185
   -15.3526 -15.2140 -15.1927 -15.0453 -14.6798 -14.5051 -14.1445 -14.0805
   -13.5544 -13.4375 -13.1680 -13.1021 -12.5004 -12.3490 -12.2000 -12.1040
   -11.1427 -10.8445 -10.7866 -10.7718 -10.6741 -10.6426  -9.4050  -9.2357
    -9.1000  -8.6869  -8.5211  -8.4576  -8.1901  -8.1639  -8.1206  -8.0994
    -8.0678  -7.9808  -7.8422  -7.7606  -7.7044  -7.6241  -7.5734  -7.3621
    -7.2941  -7.0423  -6.9823  -6.9200  -6.8280  -6.7764  -6.7459  -6.6779
    -6.6692  -6.5116  -6.4057  -6.3944  -6.1429  -6.0940  -5.8947  -5.6489
    -5.6377  -5.5745  -5.2712  -5.0992  -5.0088  -4.9166  -4.8597  -4.7845
    -4.6025  -4.4192  -4.2063  -4.1760  -3.6935  -3.6208  -3.3961  -3.1116
    -3.0619  -3.0280  -2.9248  -2.8698  -2.7938  -2.5148  -2.1188  -2.0596
    -1.2841   0.1484   0.8745   1.1418   1.4813   1.4846   1.8111   1.8810
     2.0831   2.2563   2.3417   2.8663   2.9208   3.0927   3.1861   3.3243
     3.6097   3.7826   3.8474   3.8738

          k =-0.5000-0.2165 0.0000 (102520 PWs)   bands (ev):

   -19.3086 -19.3001 -19.2190 -19.1226 -18.5342 -18.5131 -18.4885 -18.4271
   -17.1571 -17.0862 -17.0617 -16.9273 -15.6790 -15.4981 -15.4924 -15.3140
   -15.1443 -15.0279 -14.9987 -14.9417 -14.8570 -14.7732 -14.7594 -14.7137
   -13.2761 -13.1730 -13.0341 -12.8970 -12.2769 -12.1817 -12.1642 -12.0864
   -11.6003 -11.4372 -11.3419 -11.1710  -9.7602  -9.5892  -9.3321  -9.2764
    -8.9762  -8.7717  -8.7271  -8.5739  -8.5431  -8.5282  -8.4693  -8.3849
    -8.1216  -7.7098  -7.5871  -7.5429  -7.4391  -7.3916  -7.3433  -7.2962
    -7.2852  -7.1806  -7.0980  -7.0855  -6.9995  -6.9679  -6.8540  -6.7660
    -6.7008  -6.4070  -6.3256  -6.3028  -5.9089  -5.8209  -5.6841  -5.6646
    -5.6385  -5.5850  -5.4683  -5.3862  -4.9550  -4.9222  -4.7727  -4.7062
    -4.5806  -4.4512  -4.4193  -4.3294  -3.9383  -3.6561  -3.0711  -3.0543
    -2.9278  -2.8721  -2.8007  -2.7035  -2.6882  -2.5965  -2.4924  -2.3166
    -1.2456   0.1138   1.0764   1.4651   1.4870   1.6833   1.7213   1.7558
     1.9332   1.9553   2.2509   2.2870   3.0684   3.2687   3.4459   3.4836
     3.4895   3.8080   4.0879   4.3538

     the Fermi energy is    -0.4571 ev

!    total energy              =    -549.71686686 Ry
     Harris-Foulkes estimate   =    -549.71686690 Ry
     estimated scf accuracy    <          4.4E-09 Ry

     The total energy is the sum of the following terms:

     one-electron contribution =   -2181.00677214 Ry
     hartree contribution      =    1133.88818342 Ry
     xc contribution           =    -169.74359502 Ry
     ewald contribution        =     667.59947924 Ry
     Dispersion Correction     =      -0.20417505 Ry
     smearing contrib. (-TS)   =      -0.24998730 Ry

     total magnetization       =     0.00 Bohr mag/cell
     absolute magnetization    =     0.00 Bohr mag/cell

     convergence has been achieved in  10 iterations

     Forces acting on atoms (Ry/au):

     atom    1 type  1   force =     0.00040673   -0.00198042    0.00094481
     atom    2 type  1   force =     0.00163294    0.00277767   -0.01341148
     atom    3 type  1   force =     0.00034415    0.00002892   -0.00200246
     atom    4 type  1   force =     0.00521427    0.00638522   -0.01525642
     atom    5 type  1   force =     0.00171264   -0.00105745    0.00039888
     atom    6 type  1   force =     0.00251567   -0.00032101    0.00738907
     atom    7 type  1   force =     0.00010298    0.00174936    0.00391291
     atom    8 type  1   force =    -0.00408504    0.00368964   -0.01149934
     atom    9 type  1   force =    -0.00205401   -0.00065747   -0.00052239
     atom   10 type  1   force =    -0.00376059    0.00374985   -0.00793173
     atom   11 type  1   force =     0.00004116    0.00030916   -0.00021864
     atom   12 type  1   force =    -0.00148737   -0.00065132   -0.00046617
     atom   13 type  1   force =     0.00355183   -0.00342745   -0.00276732
     atom   14 type  1   force =     0.01365253    0.00864818    0.00011536
     atom   15 type  1   force =     0.04969864    0.02485560    0.13420188
     atom   16 type  1   force =     0.01127537   -0.01633054    0.09083603
     atom   17 type  1   force =     0.00231878   -0.14397089   -0.26173910
     atom   18 type  2   force =    -0.08443673    0.01482144   -0.05966320
     atom   19 type  1   force =    -0.10725961    0.02839320    0.02527009
     atom   20 type  1   force =    -0.04604815    0.02476130    0.12562325
     atom   21 type  1   force =     0.09571011    0.04064954   -0.16946530
     atom   22 type  2   force =     0.10546091    0.05539875    0.09221784
     atom   23 type  1   force =    -0.00836675    0.00873589   -0.00277945
     atom   24 type  1   force =    -0.01917745    0.00540884    0.06067727
     atom   25 type  1   force =     0.00133138    0.00148329   -0.02183587
     atom   26 type  1   force =    -0.01080554   -0.00342478   -0.01768621
     atom   27 type  1   force =    -0.00124504   -0.00207398   -0.01211496
     atom   28 type  1   force =    -0.00037423    0.00113020    0.00359252
     atom   29 type  1   force =    -0.00049813   -0.02059928   -0.00260044
     atom   30 type  1   force =    -0.00205852   -0.00060440   -0.00114843
     atom   31 type  1   force =     0.00522680   -0.00397654    0.00464137
     atom   32 type  1   force =     0.00086473   -0.00078069   -0.00573608
     atom   33 type  1   force =    -0.00586778   -0.02312141    0.06209074
     atom   34 type  1   force =     0.00000591   -0.00024335   -0.00266655
     atom   35 type  1   force =    -0.00801495   -0.00864221   -0.00248589
     atom   36 type  1   force =    -0.00066956   -0.00202906   -0.00768132
     atom   37 type  1   force =     0.00145684    0.00183898    0.00970055
     atom   38 type  1   force =     0.00217132   -0.00166990    0.00096820
     atom   39 type  1   force =    -0.00021262   -0.00142019    0.00420286
     atom   40 type  1   force =     0.00008728   -0.00021497   -0.00129580
     atom   41 type  1   force =    -0.00196201   -0.00005391   -0.00185000
     atom   42 type  1   force =     0.00084876   -0.00087431    0.00118599
     atom   43 type  1   force =    -0.00026209    0.00042328   -0.00149513
     atom   44 type  1   force =    -0.00099678    0.00085632    0.00088410
     atom   45 type  1   force =     0.00027411    0.00092142    0.00080751
     atom   46 type  1   force =     0.00022004    0.00055072   -0.00265448
     atom   47 type  1   force =     0.00078221    0.00008139   -0.00166471
     atom   48 type  1   force =     0.00130414    0.00096421    0.00096292
     atom   49 type  1   force =     0.00219754    0.00005057   -0.00121587
     atom   50 type  1   force =    -0.00076682   -0.00053738    0.00123062

     Total force =     0.485169     Total SCF correction =     0.000133

     number of scf cycles    =   2
     number of bfgs steps    =   1

     energy   old            =    -549.1086224499 Ry
     energy   new            =    -549.7168668613 Ry

     CASE: energy  _new < energy  _old

     new trust radius        =       0.3110101473 bohr
     new conv_thr            =       0.0000000100 Ry


ATOMIC_POSITIONS (angstrom)
C       -0.001969738   0.710552426   5.120521312
C       -0.000663982   2.132047261   5.097244429
C        1.227082641   0.003118802   5.122473730
C        1.230669161   2.842950596   5.069087872
C        2.457333769   0.712273618   5.107177334
C        2.458049172   2.130301203   5.086633300
C        3.686773056   0.003268624   5.103540584
C        3.684221466   2.846036585   5.055436137
C        4.915971112   0.711959699   5.098257328
C        4.916435264   2.133896379   5.071300235
C        6.146149448   0.003295605   5.118241635
C        6.148080536   2.838674250   5.079066791
C        0.000581667   4.964259540   5.028999567
C        0.011696918   6.395021837   4.994243465
C        1.262745981   4.280444885   5.136663237
C        1.238642368   7.086593202   5.108789616
C        2.456684484   4.867315943   5.566665106
H        2.379171952   6.397127893   7.010413713
C        2.368361374   6.391022700   5.822579291
C        3.653656635   4.283711652   5.151981402
C        3.758264757   7.128421098   5.630388007
H        3.781948243   7.125661474   6.812545201
C        4.918373828   4.978077756   5.039821850
C        4.916446561   6.384147798   5.125422799
C        6.152999381   4.258940918   5.024995172
C        6.138547191   7.095678661   5.022508159
C       -0.002942723   9.228546775   5.044775623
C       -0.001788780  10.655407932   5.048349794
C        1.230197677   8.506448269   5.055781854
C        1.226625684  11.365336945   5.066024120
C        2.468044488   9.236015161   5.078512173
C        2.458871214  10.658404320   5.068647591
C        3.680049832   8.526899402   5.168813320
C        3.686993630  11.366465191   5.093465471
C        4.908626246   9.231499037   5.074973573
C        4.915357610  10.657851005   5.065512193
C        6.149440798   8.524877105   5.064507813
C        6.147507926  11.364519007   5.062274646
C       -0.002750570  13.493989205   5.093377867
C       -0.002724755  14.914043821   5.113511629
C        1.226655152  12.785201070   5.092782338
C        1.227347546  15.622438483   5.120301049
C        2.456800446  13.494255637   5.115849613
C        2.456118870  14.913657801   5.121698927
C        3.686466642  12.786521928   5.113408829
C        3.686272398  15.622382824   5.120673260
C        4.915935700  13.494095073   5.113168064
C        4.916293185  14.913814543   5.119078553
C        6.146243794  12.785623937   5.089267065
C        6.145174415  15.622385382   5.117847363



     Writing output data file gc.save
     Check: negative starting charge=(component1):   -0.000168
     NEW-OLD atomic charge density approx. for the potential
     Check: negative starting charge=(component1):   -0.000167

     negative rho (up, down):  5.061E-05 5.061E-05

     total cpu time spent up to now is      225.2 secs

     Self-consistent Calculation

     iteration #  1     ecut=    80.00 Ry     beta=0.70
     Davidson diagonalization with overlap
     ethr =  1.00E-06,  avg # of iterations = 11.5

     negative rho (up, down):  2.117E-05 2.117E-05

     total cpu time spent up to now is      248.6 secs

     total energy              =    -549.84089744 Ry
     Harris-Foulkes estimate   =    -549.86926084 Ry
     estimated scf accuracy    <       0.08362834 Ry

     total magnetization       =     0.00 Bohr mag/cell
     absolute magnetization    =     0.00 Bohr mag/cell

     iteration #  2     ecut=    80.00 Ry     beta=0.70
     Davidson diagonalization with overlap
     ethr =  4.31E-05,  avg # of iterations =  2.0

     negative rho (up, down):  1.424E-05 1.424E-05

     total cpu time spent up to now is      255.9 secs

     total energy              =    -549.84030187 Ry
     Harris-Foulkes estimate   =    -549.84657431 Ry
     estimated scf accuracy    <       0.01295302 Ry

     total magnetization       =    -0.00 Bohr mag/cell
     absolute magnetization    =     0.00 Bohr mag/cell

     iteration #  3     ecut=    80.00 Ry     beta=0.70
     Davidson diagonalization with overlap
     ethr =  6.68E-06,  avg # of iterations =  3.5

     negative rho (up, down):  1.561E-05 1.561E-05

     total cpu time spent up to now is      264.7 secs

     total energy              =    -549.84250651 Ry
     Harris-Foulkes estimate   =    -549.84271071 Ry
     estimated scf accuracy    <       0.00053482 Ry

     total magnetization       =    -0.00 Bohr mag/cell
     absolute magnetization    =     0.00 Bohr mag/cell

     iteration #  4     ecut=    80.00 Ry     beta=0.70
     Davidson diagonalization with overlap
     ethr =  2.76E-07,  avg # of iterations =  3.2

     negative rho (up, down):  1.654E-05 1.654E-05

     total cpu time spent up to now is      274.0 secs

     total energy              =    -549.84258815 Ry
     Harris-Foulkes estimate   =    -549.84262277 Ry
     estimated scf accuracy    <       0.00009417 Ry

     total magnetization       =    -0.00 Bohr mag/cell
     absolute magnetization    =     0.00 Bohr mag/cell

     iteration #  5     ecut=    80.00 Ry     beta=0.70
     Davidson diagonalization with overlap
     ethr =  4.85E-08,  avg # of iterations =  2.5

     negative rho (up, down):  2.060E-05 2.060E-05

     total cpu time spent up to now is      282.4 secs

     total energy              =    -549.84260236 Ry
     Harris-Foulkes estimate   =    -549.84260288 Ry
     estimated scf accuracy    <       0.00001975 Ry

     total magnetization       =    -0.00 Bohr mag/cell
     absolute magnetization    =     0.00 Bohr mag/cell

     iteration #  6     ecut=    80.00 Ry     beta=0.70
     Davidson diagonalization with overlap
     ethr =  1.02E-08,  avg # of iterations =  2.8

     negative rho (up, down):  2.677E-05 2.677E-05

     total cpu time spent up to now is      290.4 secs

     total energy              =    -549.84260509 Ry
     Harris-Foulkes estimate   =    -549.84260364 Ry
     estimated scf accuracy    <       0.00000372 Ry

     total magnetization       =    -0.00 Bohr mag/cell
     absolute magnetization    =     0.00 Bohr mag/cell

     iteration #  7     ecut=    80.00 Ry     beta=0.70
     Davidson diagonalization with overlap
     ethr =  1.92E-09,  avg # of iterations =  3.8

     negative rho (up, down):  3.079E-05 3.079E-05

     total cpu time spent up to now is      298.0 secs

     total energy              =    -549.84260604 Ry
     Harris-Foulkes estimate   =    -549.84260544 Ry
     estimated scf accuracy    <       0.00000070 Ry

     total magnetization       =    -0.00 Bohr mag/cell
     absolute magnetization    =     0.00 Bohr mag/cell

     iteration #  8     ecut=    80.00 Ry     beta=0.70
     Davidson diagonalization with overlap
     ethr =  3.61E-10,  avg # of iterations =  3.0

     negative rho (up, down):  3.264E-05 3.264E-05

     total cpu time spent up to now is      306.6 secs

     total energy              =    -549.84260629 Ry
     Harris-Foulkes estimate   =    -549.84260609 Ry
     estimated scf accuracy    <       0.00000018 Ry

     total magnetization       =    -0.00 Bohr mag/cell
     absolute magnetization    =     0.00 Bohr mag/cell

     iteration #  9     ecut=    80.00 Ry     beta=0.70
     Davidson diagonalization with overlap
     ethr =  9.07E-11,  avg # of iterations =  3.5

     negative rho (up, down):  3.235E-05 3.235E-05

     total cpu time spent up to now is      315.3 secs

     total energy              =    -549.84260628 Ry
     Harris-Foulkes estimate   =    -549.84260631 Ry
     estimated scf accuracy    <       0.00000002 Ry

     total magnetization       =    -0.00 Bohr mag/cell
     absolute magnetization    =     0.00 Bohr mag/cell

     iteration # 10     ecut=    80.00 Ry     beta=0.70
     Davidson diagonalization with overlap
     ethr =  1.06E-11,  avg # of iterations =  3.5

     negative rho (up, down):  3.178E-05 3.178E-05
 
     Magnetic moment per site:
     atom:    1    charge:    0.2083    magn:    0.0000    constr:    0.0000
     atom:    2    charge:    0.2081    magn:   -0.0000    constr:    0.0000
     atom:    3    charge:    0.2048    magn:   -0.0000    constr:    0.0000
     atom:    4    charge:    0.2064    magn:    0.0000    constr:    0.0000
     atom:    5    charge:    0.2058    magn:    0.0000    constr:    0.0000
     atom:    6    charge:    0.2064    magn:   -0.0000    constr:    0.0000
     atom:    7    charge:    0.2081    magn:   -0.0000    constr:    0.0000
     atom:    8    charge:    0.2071    magn:    0.0000    constr:    0.0000
     atom:    9    charge:    0.2072    magn:    0.0000    constr:    0.0000
     atom:   10    charge:    0.2057    magn:   -0.0000    constr:    0.0000
     atom:   11    charge:    0.2046    magn:   -0.0000    constr:    0.0000
     atom:   12    charge:    0.2067    magn:    0.0000    constr:    0.0000
     atom:   13    charge:    0.2071    magn:    0.0000    constr:    0.0000
     atom:   14    charge:    0.2068    magn:   -0.0000    constr:    0.0000
     atom:   15    charge:    0.2040    magn:   -0.0000    constr:    0.0000
     atom:   16    charge:    0.2025    magn:    0.0000    constr:    0.0000
     atom:   17    charge:    0.2054    magn:    0.0000    constr:    0.0000
     atom:   18    charge:    0.1852    magn:    0.0000    constr:    0.0000
     atom:   19    charge:    0.2116    magn:   -0.0000    constr:    0.0000
     atom:   20    charge:    0.2072    magn:   -0.0000    constr:    0.0000
     atom:   21    charge:    0.2095    magn:    0.0000    constr:    0.0000
     atom:   22    charge:    0.1789    magn:   -0.0000    constr:    0.0000
     atom:   23    charge:    0.2033    magn:    0.0000    constr:    0.0000
     atom:   24    charge:    0.2046    magn:   -0.0000    constr:    0.0000
     atom:   25    charge:    0.2039    magn:   -0.0000    constr:    0.0000
     atom:   26    charge:    0.2035    magn:    0.0000    constr:    0.0000
     atom:   27    charge:    0.2070    magn:    0.0000    constr:    0.0000
     atom:   28    charge:    0.2068    magn:   -0.0000    constr:    0.0000
     atom:   29    charge:    0.2033    magn:   -0.0000    constr:    0.0000
     atom:   30    charge:    0.2049    magn:    0.0000    constr:    0.0000
     atom:   31    charge:    0.2054    magn:    0.0000    constr:    0.0000
     atom:   32    charge:    0.2050    magn:   -0.0000    constr:    0.0000
     atom:   33    charge:    0.2055    magn:   -0.0000    constr:    0.0000
     atom:   34    charge:    0.2077    magn:    0.0000    constr:    0.0000
     atom:   35    charge:    0.2056    magn:    0.0000    constr:    0.0000
     atom:   36    charge:    0.2051    magn:   -0.0000    constr:    0.0000
     atom:   37    charge:    0.2041    magn:   -0.0000    constr:    0.0000
     atom:   38    charge:    0.2044    magn:    0.0000    constr:    0.0000
     atom:   39    charge:    0.2077    magn:    0.0000    constr:    0.0000
     atom:   40    charge:    0.2084    magn:   -0.0000    constr:    0.0000
     atom:   41    charge:    0.2074    magn:   -0.0000    constr:    0.0000
     atom:   42    charge:    0.2051    magn:    0.0000    constr:    0.0000
     atom:   43    charge:    0.2047    magn:    0.0000    constr:    0.0000
     atom:   44    charge:    0.2046    magn:   -0.0000    constr:    0.0000
     atom:   45    charge:    0.2085    magn:   -0.0000    constr:    0.0000
     atom:   46    charge:    0.2080    magn:    0.0000    constr:    0.0000
     atom:   47    charge:    0.2055    magn:    0.0000    constr:    0.0000
     atom:   48    charge:    0.2053    magn:   -0.0000    constr:    0.0000
     atom:   49    charge:    0.2068    magn:   -0.0000    constr:    0.0000
     atom:   50    charge:    0.2047    magn:    0.0000    constr:    0.0000

     total cpu time spent up to now is      322.1 secs

     End of self-consistent calculation

 ------ SPIN UP ------------


          k = 0.0000 0.0000 0.0000 (102525 PWs)   bands (ev):

   -19.8326 -19.4726 -19.4226 -18.3641 -18.3317 -17.8836 -17.8693 -17.5542
   -17.5208 -17.4763 -17.4600 -16.5808 -16.5399 -16.4652 -16.4524 -16.4212
   -16.4025 -14.8455 -14.7532 -14.7342 -14.7267 -14.5697 -13.4971 -13.0151
   -12.8966 -12.8746 -12.8607 -12.0819 -12.0378 -12.0089 -11.9835 -11.1022
   -11.0771 -10.9918 -10.9525 -10.9406 -10.9219 -10.8421 -10.7693  -9.7306
    -9.4863  -9.4042  -9.3740  -9.2334  -9.1778  -9.1469  -9.0911  -8.4826
    -8.1965  -8.0067  -7.8326  -7.7799  -7.5851  -7.5223  -7.1500  -6.9900
    -6.9380  -6.9113  -6.8646  -6.7600  -6.7308  -6.6891  -6.5123  -6.3808
    -6.3303  -6.2112  -6.0964  -6.0873  -5.9920  -5.9355  -5.8028  -5.5816
    -5.5479  -5.5170  -5.2597  -5.2220  -5.0652  -4.9249  -4.7831  -4.6671
    -4.4788  -4.2435  -4.2197  -4.1804  -4.0689  -3.9277  -3.8761  -3.4450
    -3.4033  -3.2576  -2.9046  -2.4868  -2.3030  -2.2700  -1.7291  -0.8887
    -0.3663  -0.2993   0.1561   0.9054   1.4069   1.4350   1.5699   2.1679
     2.3285   2.7666   3.0030   3.1847   3.2604   3.3068   3.3451   3.4480
     3.8588   4.1496   4.3464   4.5628

          k = 0.0000-0.2165 0.0000 (102536 PWs)   bands (ev):

   -19.7759 -19.6890 -19.0017 -18.9727 -17.8283 -17.8162 -17.7553 -17.7329
   -17.5428 -17.5101 -17.1001 -17.0728 -17.0368 -17.0082 -15.7183 -15.6796
   -15.6449 -15.6379 -15.4681 -15.4131 -13.8832 -13.7585 -13.7526 -13.7433
   -12.5660 -12.4808 -12.4393 -12.4028 -12.3583 -12.3448 -11.6318 -11.5652
   -11.5433 -11.5281 -10.5111 -10.3710 -10.3214 -10.2888 -10.2724 -10.2384
   -10.1677 -10.1256  -9.4419  -9.3929  -8.9751  -8.6648  -8.5714  -8.5531
    -8.1574  -7.9832  -7.9779  -7.9530  -7.8718  -7.7856  -7.3996  -7.0361
    -6.8811  -6.7370  -6.6261  -6.5197  -6.4433  -6.4089  -6.3674  -6.3403
    -6.3021  -6.2322  -6.2169  -6.1617  -6.1376  -6.0309  -5.7851  -5.6333
    -5.5904  -5.5278  -5.3738  -5.2098  -5.1325  -5.0717  -4.9123  -4.7458
    -4.5932  -4.5153  -4.0603  -4.0247  -3.8469  -3.7168  -3.6183  -3.3339
    -3.2638  -3.2528  -3.1867  -2.9699  -2.5483  -1.8056  -1.3300  -1.2972
    -0.7972   0.0380   0.5612   0.6463   1.0870   1.6527   2.0159   2.1188
     2.3038   2.4529   2.6783   2.8339   3.1917   3.3007   3.7455   3.9011
     4.0810   4.1075   4.1424   4.4071

          k =-0.5000 0.0000 0.0000 (102516 PWs)   bands (ev):

   -19.3469 -19.3313 -18.9878 -18.9786 -18.9604 -18.8962 -17.8884 -17.8768
   -17.8676 -17.8156 -16.1508 -16.0993 -16.0879 -16.0383 -15.5435 -15.5255
   -15.2508 -15.2039 -15.1899 -15.1677 -14.6067 -14.5488 -14.2003 -14.1255
   -13.5637 -13.5229 -13.1342 -13.0602 -12.4301 -12.3262 -12.3021 -12.2415
   -11.0293 -10.8815 -10.7763 -10.7238 -10.7118 -10.6844  -9.3170  -9.2247
    -9.0019  -8.6770  -8.5084  -8.3993  -8.2063  -8.1973  -8.1322  -8.1056
    -8.0773  -8.0417  -7.8480  -7.8069  -7.7420  -7.6957  -7.5639  -7.3571
    -7.2689  -7.0095  -6.9664  -6.9613  -6.8371  -6.7891  -6.7735  -6.7489
    -6.6990  -6.6001  -6.4065  -6.3731  -6.2269  -6.1915  -5.8906  -5.7063
    -5.6489  -5.6261  -5.2565  -5.2103  -4.9821  -4.9174  -4.8441  -4.7981
    -4.6519  -4.4660  -4.3433  -4.0099  -3.6723  -3.6056  -3.5050  -3.1153
    -3.0348  -3.0046  -2.8971  -2.8537  -2.7648  -2.6266  -2.2089  -2.1177
    -1.3111   0.2652   1.1545   1.1801   1.4955   1.5265   1.8368   1.8962
     2.1516   2.2719   2.4690   2.8790   2.9690   3.1097   3.1682   3.3293
     3.6253   3.7990   3.8532   3.8677

          k =-0.5000-0.2165 0.0000 (102520 PWs)   bands (ev):

   -19.2828 -19.2812 -19.2191 -19.1751 -18.5259 -18.5152 -18.5036 -18.4453
   -17.0918 -17.0644 -17.0619 -17.0076 -15.4825 -15.4751 -15.4453 -15.4036
   -15.0883 -15.0067 -14.9902 -14.9515 -14.8825 -14.8299 -14.8227 -14.7977
   -13.2032 -13.1487 -13.1231 -13.0429 -12.2460 -12.1627 -12.1329 -12.0566
   -11.5544 -11.4114 -11.3935 -11.3628  -9.5910  -9.4743  -9.3064  -9.2736
    -8.9378  -8.7304  -8.6828  -8.6560  -8.5684  -8.5131  -8.5059  -8.4789
    -8.1363  -7.7426  -7.6523  -7.6184  -7.4463  -7.3869  -7.3238  -7.2943
    -7.2093  -7.1231  -7.1008  -7.0703  -7.0441  -6.9784  -6.9649  -6.9060
    -6.6687  -6.4107  -6.3767  -6.3512  -5.8972  -5.8315  -5.7673  -5.7300
    -5.6150  -5.6057  -5.4763  -5.4415  -5.0633  -5.0135  -4.7707  -4.7222
    -4.5482  -4.4637  -4.3800  -4.2546  -4.1241  -3.5562  -3.0430  -3.0309
    -2.9171  -2.8543  -2.7706  -2.6996  -2.6691  -2.6382  -2.5814  -2.5011
    -1.2843   0.2453   1.4336   1.4906   1.5048   1.6810   1.7658   1.7832
     1.9427   2.0343   2.2744   2.3033   3.0640   3.2509   3.4486   3.5002
     3.5032   3.9438   4.2181   4.4040

 ------ SPIN DOWN ----------


          k = 0.0000 0.0000 0.0000 (102525 PWs)   bands (ev):

   -19.8326 -19.4726 -19.4226 -18.3641 -18.3317 -17.8836 -17.8693 -17.5542
   -17.5208 -17.4763 -17.4600 -16.5808 -16.5399 -16.4652 -16.4524 -16.4212
   -16.4025 -14.8455 -14.7532 -14.7342 -14.7267 -14.5697 -13.4971 -13.0151
   -12.8966 -12.8746 -12.8607 -12.0819 -12.0378 -12.0089 -11.9835 -11.1022
   -11.0771 -10.9918 -10.9525 -10.9406 -10.9219 -10.8421 -10.7693  -9.7306
    -9.4863  -9.4042  -9.3740  -9.2334  -9.1778  -9.1469  -9.0911  -8.4826
    -8.1965  -8.0067  -7.8326  -7.7799  -7.5851  -7.5223  -7.1500  -6.9900
    -6.9380  -6.9113  -6.8646  -6.7600  -6.7308  -6.6891  -6.5123  -6.3808
    -6.3303  -6.2112  -6.0964  -6.0873  -5.9920  -5.9355  -5.8028  -5.5816
    -5.5479  -5.5170  -5.2597  -5.2220  -5.0652  -4.9249  -4.7831  -4.6671
    -4.4788  -4.2435  -4.2197  -4.1804  -4.0689  -3.9277  -3.8761  -3.4450
    -3.4033  -3.2576  -2.9046  -2.4868  -2.3030  -2.2700  -1.7291  -0.8887
    -0.3663  -0.2993   0.1561   0.9054   1.4069   1.4350   1.5699   2.1679
     2.3285   2.7666   3.0030   3.1847   3.2604   3.3068   3.3451   3.4480
     3.8588   4.1496   4.3464   4.5628

          k = 0.0000-0.2165 0.0000 (102536 PWs)   bands (ev):

   -19.7759 -19.6890 -19.0017 -18.9727 -17.8283 -17.8162 -17.7553 -17.7329
   -17.5428 -17.5101 -17.1001 -17.0728 -17.0368 -17.0082 -15.7183 -15.6796
   -15.6449 -15.6379 -15.4681 -15.4131 -13.8832 -13.7585 -13.7526 -13.7433
   -12.5660 -12.4808 -12.4393 -12.4028 -12.3583 -12.3448 -11.6318 -11.5652
   -11.5433 -11.5281 -10.5111 -10.3710 -10.3214 -10.2888 -10.2724 -10.2384
   -10.1677 -10.1256  -9.4419  -9.3929  -8.9751  -8.6648  -8.5714  -8.5531
    -8.1574  -7.9832  -7.9779  -7.9530  -7.8718  -7.7856  -7.3996  -7.0361
    -6.8811  -6.7370  -6.6261  -6.5197  -6.4433  -6.4089  -6.3674  -6.3403
    -6.3021  -6.2322  -6.2169  -6.1617  -6.1376  -6.0309  -5.7851  -5.6333
    -5.5904  -5.5278  -5.3738  -5.2098  -5.1325  -5.0717  -4.9123  -4.7458
    -4.5932  -4.5153  -4.0603  -4.0247  -3.8469  -3.7168  -3.6183  -3.3339
    -3.2638  -3.2528  -3.1867  -2.9699  -2.5483  -1.8056  -1.3300  -1.2972
    -0.7972   0.0380   0.5612   0.6463   1.0870   1.6527   2.0159   2.1188
     2.3038   2.4529   2.6783   2.8339   3.1917   3.3007   3.7455   3.9011
     4.0810   4.1075   4.1424   4.4071

          k =-0.5000 0.0000 0.0000 (102516 PWs)   bands (ev):

   -19.3469 -19.3313 -18.9878 -18.9786 -18.9604 -18.8962 -17.8884 -17.8768
   -17.8676 -17.8156 -16.1508 -16.0993 -16.0879 -16.0383 -15.5435 -15.5255
   -15.2508 -15.2039 -15.1899 -15.1677 -14.6067 -14.5488 -14.2003 -14.1255
   -13.5637 -13.5229 -13.1342 -13.0602 -12.4301 -12.3262 -12.3021 -12.2415
   -11.0293 -10.8815 -10.7763 -10.7238 -10.7118 -10.6844  -9.3170  -9.2247
    -9.0019  -8.6770  -8.5084  -8.3993  -8.2063  -8.1973  -8.1322  -8.1056
    -8.0773  -8.0417  -7.8480  -7.8069  -7.7420  -7.6957  -7.5639  -7.3571
[...]
    -9.5268  -9.3863  -9.3503  -9.2438  -9.2431  -9.1550  -9.0976  -8.5595
    -8.2106  -8.0592  -7.8376  -7.8092  -7.6470  -7.5333  -7.0174  -6.9984
    -6.9378  -6.9335  -6.8017  -6.7697  -6.7160  -6.7031  -6.4409  -6.3736
    -6.3684  -6.2614  -6.1579  -6.1375  -6.0691  -5.9424  -5.9033  -5.5338
    -5.5277  -5.4220  -5.3078  -5.2400  -5.2169  -4.9655  -4.8384  -4.5893
    -4.5746  -4.2417  -4.2055  -4.1206  -4.0895  -4.0130  -3.9613  -3.4343
    -3.3700  -3.3604  -2.9966  -2.5230  -2.3124  -2.2892  -1.7515  -0.8247
    -0.3097  -0.3027   0.1891   1.0943   1.4095   1.5861   1.6039   2.2579
     2.4108   2.8776   3.1487   3.2227   3.3408   3.3634   3.3956   3.4635
     3.9925   4.2870   4.4515   4.5773

          k = 0.0000-0.2165 0.0000 (102536 PWs)   bands (ev):

   -19.7389 -19.7248 -18.9963 -18.9914 -17.7965 -17.7866 -17.7695 -17.7558
   -17.5453 -17.5315 -17.0872 -17.0714 -17.0490 -17.0239 -15.7123 -15.6841
   -15.6523 -15.6454 -15.4897 -15.4307 -13.8583 -13.7969 -13.7629 -13.7402
   -12.5921 -12.5589 -12.3903 -12.3878 -12.3438 -12.3401 -11.6060 -11.5328
   -11.5205 -11.5103 -10.4497 -10.3943 -10.3265 -10.3140 -10.2504 -10.2151
   -10.1548 -10.1339  -9.5004  -9.4392  -8.8860  -8.6881  -8.5403  -8.5206
    -8.3157  -8.0395  -7.9771  -7.9656  -7.8831  -7.8289  -7.3765  -7.0764
    -6.6920  -6.6860  -6.6527  -6.5273  -6.4713  -6.3865  -6.3612  -6.3549
    -6.2824  -6.2581  -6.2359  -6.2043  -6.1538  -6.0078  -5.8875  -5.8684
    -5.5519  -5.5500  -5.4133  -5.2573  -5.1080  -5.0500  -4.7900  -4.7442
    -4.6773  -4.6650  -4.0948  -4.0239  -3.7440  -3.7204  -3.6127  -3.5903
    -3.2531  -3.2476  -3.1980  -3.0566  -2.5981  -1.7950  -1.3170  -1.3111
    -0.7822   0.1532   0.6658   0.6749   1.1110   1.8321   2.1160   2.1549
     2.4725   2.4988   2.6659   2.8348   3.2982   3.5010   3.7608   3.9633
     4.1588   4.2285   4.2832   4.4201

          k =-0.5000 0.0000 0.0000 (102516 PWs)   bands (ev):

   -19.3412 -19.3208 -18.9849 -18.9682 -18.9632 -18.9273 -17.8843 -17.8693
   -17.8661 -17.8579 -16.1435 -16.1047 -16.1026 -16.0722 -15.5226 -15.5203
   -15.2166 -15.2063 -15.1825 -15.1816 -14.5771 -14.5627 -14.2030 -14.1422
   -13.5532 -13.5337 -13.1444 -13.1160 -12.3866 -12.3518 -12.2811 -12.2631
   -10.9748 -10.9592 -10.8011 -10.7634 -10.7201 -10.6974  -9.3039  -9.2620
    -8.7312  -8.6836  -8.5102  -8.4369  -8.1648  -8.1407  -8.1210  -8.0899
    -8.0711  -8.0100  -7.9373  -7.8055  -7.7676  -7.7173  -7.6697  -7.3771
    -7.2330  -7.0505  -7.0183  -6.9458  -6.8182  -6.7720  -6.7625  -6.7191
    -6.7024  -6.6535  -6.4379  -6.2917  -6.1847  -6.1647  -6.0554  -5.8029
    -5.6599  -5.6410  -5.2334  -5.1333  -4.9335  -4.8916  -4.8833  -4.8044
    -4.7785  -4.4993  -4.4053  -4.3961  -3.6792  -3.6382  -3.5302  -3.1478
    -3.0063  -2.9910  -2.8840  -2.8813  -2.7411  -2.7338  -2.1931  -2.1224
    -1.3317   0.5231   1.1694   1.2792   1.5473   1.5644   1.9020   1.9146
     2.2376   2.3133   2.6583   2.9377   3.0832   3.1228   3.2193   3.2863
     3.7034   3.7761   3.8158   3.8524

          k =-0.5000-0.2165 0.0000 (102520 PWs)   bands (ev):

   -19.2597 -19.2428 -19.2424 -19.2068 -18.5243 -18.5107 -18.5028 -18.4758
   -17.0782 -17.0707 -17.0676 -17.0465 -15.4522 -15.4454 -15.4350 -15.4300
   -15.0950 -15.0201 -15.0011 -14.9751 -14.8553 -14.8433 -14.8091 -14.8044
   -13.1620 -13.1505 -13.1013 -13.0916 -12.2438 -12.2049 -12.1454 -12.1331
   -11.5093 -11.4529 -11.3766 -11.3502  -9.5758  -9.5420  -9.3212  -9.2865
    -8.8562  -8.7417  -8.6679  -8.6554  -8.4863  -8.4699  -8.4668  -8.4190
    -8.2310  -7.7226  -7.6273  -7.5476  -7.4951  -7.4904  -7.3291  -7.2681
    -7.1662  -7.0949  -7.0856  -7.0543  -7.0382  -7.0041  -6.9786  -6.9755
    -6.7864  -6.4787  -6.3885  -6.3802  -5.8129  -5.7857  -5.7550  -5.7370
    -5.6341  -5.5480  -5.4435  -5.4295  -5.2637  -5.1458  -4.7840  -4.7438
    -4.4819  -4.4647  -4.4207  -4.3899  -4.2809  -3.7541  -3.0101  -3.0079
    -2.9015  -2.8879  -2.7447  -2.7409  -2.6619  -2.6511  -2.6168  -2.5476
    -1.2886   0.5044   1.5233   1.5314   1.6058   1.7020   1.7864   1.8064
     2.0159   2.1261   2.3232   2.3288   3.1776   3.2945   3.4772   3.5164
     3.5492   4.1094   4.3980   4.4191

 ------ SPIN DOWN ----------


          k = 0.0000 0.0000 0.0000 (102525 PWs)   bands (ev):

   -19.8248 -19.4594 -19.4488 -18.3582 -18.3518 -17.8700 -17.8622 -17.5341
   -17.5171 -17.4954 -17.4712 -16.5843 -16.5520 -16.4661 -16.4618 -16.4279
   -16.4142 -14.8320 -14.7752 -14.7487 -14.7236 -14.5856 -13.5415 -12.9698
   -12.9217 -12.8758 -12.8709 -12.0757 -11.9981 -11.9908 -11.9703 -11.1407
   -11.0887 -10.9723 -10.9309 -10.9286 -10.9080 -10.8274 -10.7803  -9.6116
    -9.5268  -9.3863  -9.3503  -9.2438  -9.2431  -9.1550  -9.0976  -8.5595
    -8.2106  -8.0592  -7.8376  -7.8092  -7.6470  -7.5333  -7.0174  -6.9984
    -6.9378  -6.9335  -6.8017  -6.7697  -6.7160  -6.7031  -6.4409  -6.3736
    -6.3684  -6.2614  -6.1579  -6.1375  -6.0691  -5.9424  -5.9033  -5.5338
    -5.5277  -5.4220  -5.3078  -5.2400  -5.2169  -4.9655  -4.8384  -4.5893
    -4.5746  -4.2417  -4.2055  -4.1206  -4.0895  -4.0130  -3.9613  -3.4343
    -3.3700  -3.3604  -2.9966  -2.5230  -2.3124  -2.2892  -1.7515  -0.8247
    -0.3097  -0.3027   0.1891   1.0943   1.4095   1.5861   1.6039   2.2579
     2.4108   2.8776   3.1487   3.2227   3.3408   3.3634   3.3956   3.4635
     3.9925   4.2870   4.4515   4.5773

          k = 0.0000-0.2165 0.0000 (102536 PWs)   bands (ev):

   -19.7389 -19.7248 -18.9963 -18.9914 -17.7965 -17.7866 -17.7695 -17.7558
   -17.5453 -17.5315 -17.0872 -17.0714 -17.0490 -17.0239 -15.7123 -15.6841
   -15.6523 -15.6454 -15.4897 -15.4307 -13.8583 -13.7969 -13.7629 -13.7402
   -12.5921 -12.5589 -12.3903 -12.3878 -12.3438 -12.3401 -11.6060 -11.5328
   -11.5205 -11.5103 -10.4497 -10.3943 -10.3265 -10.3140 -10.2504 -10.2151
   -10.1548 -10.1339  -9.5004  -9.4392  -8.8860  -8.6881  -8.5403  -8.5206
    -8.3157  -8.0395  -7.9771  -7.9656  -7.8831  -7.8289  -7.3765  -7.0764
    -6.6920  -6.6860  -6.6527  -6.5273  -6.4713  -6.3865  -6.3612  -6.3549
    -6.2824  -6.2581  -6.2359  -6.2043  -6.1538  -6.0078  -5.8875  -5.8684
    -5.5519  -5.5500  -5.4133  -5.2573  -5.1080  -5.0500  -4.7900  -4.7442
    -4.6773  -4.6650  -4.0948  -4.0239  -3.7440  -3.7204  -3.6127  -3.5903
    -3.2531  -3.2476  -3.1980  -3.0566  -2.5981  -1.7950  -1.3170  -1.3111
    -0.7822   0.1532   0.6658   0.6749   1.1110   1.8321   2.1160   2.1549
     2.4725   2.4988   2.6659   2.8348   3.2982   3.5010   3.7608   3.9633
     4.1588   4.2285   4.2832   4.4201

          k =-0.5000 0.0000 0.0000 (102516 PWs)   bands (ev):

   -19.3412 -19.3208 -18.9849 -18.9682 -18.9632 -18.9273 -17.8843 -17.8693
   -17.8661 -17.8579 -16.1435 -16.1047 -16.1026 -16.0722 -15.5226 -15.5203
   -15.2166 -15.2063 -15.1825 -15.1816 -14.5771 -14.5627 -14.2030 -14.1422
   -13.5532 -13.5337 -13.1444 -13.1160 -12.3866 -12.3518 -12.2811 -12.2631
   -10.9748 -10.9592 -10.8011 -10.7634 -10.7201 -10.6974  -9.3039  -9.2620
    -8.7312  -8.6836  -8.5102  -8.4369  -8.1648  -8.1407  -8.1210  -8.0899
    -8.0711  -8.0100  -7.9373  -7.8055  -7.7676  -7.7173  -7.6697  -7.3771
    -7.2330  -7.0505  -7.0183  -6.9458  -6.8182  -6.7720  -6.7625  -6.7191
    -6.7024  -6.6535  -6.4379  -6.2917  -6.1847  -6.1647  -6.0554  -5.8029
    -5.6599  -5.6410  -5.2334  -5.1333  -4.9335  -4.8916  -4.8833  -4.8044
    -4.7785  -4.4993  -4.4053  -4.3961  -3.6792  -3.6382  -3.5302  -3.1478
    -3.0063  -2.9910  -2.8840  -2.8813  -2.7411  -2.7338  -2.1931  -2.1224
    -1.3317   0.5231   1.1694   1.2792   1.5473   1.5644   1.9020   1.9146
     2.2376   2.3133   2.6583   2.9377   3.0832   3.1228   3.2193   3.2863
     3.7034   3.7761   3.8158   3.8524

          k =-0.5000-0.2165 0.0000 (102520 PWs)   bands (ev):

   -19.2597 -19.2428 -19.2424 -19.2068 -18.5243 -18.5107 -18.5028 -18.4758
   -17.0782 -17.0707 -17.0676 -17.0465 -15.4522 -15.4454 -15.4350 -15.4300
   -15.0950 -15.0201 -15.0011 -14.9751 -14.8553 -14.8433 -14.8091 -14.8044
   -13.1620 -13.1505 -13.1013 -13.0916 -12.2438 -12.2049 -12.1454 -12.1331
   -11.5093 -11.4529 -11.3766 -11.3502  -9.5758  -9.5420  -9.3212  -9.2865
    -8.8562  -8.7417  -8.6679  -8.6554  -8.4863  -8.4699  -8.4668  -8.4190
    -8.2310  -7.7226  -7.6273  -7.5476  -7.4951  -7.4904  -7.3291  -7.2681
    -7.1662  -7.0949  -7.0856  -7.0543  -7.0382  -7.0041  -6.9786  -6.9755
    -6.7864  -6.4787  -6.3885  -6.3802  -5.8129  -5.7857  -5.7550  -5.7370
    -5.6341  -5.5480  -5.4435  -5.4295  -5.2637  -5.1458  -4.7840  -4.7438
    -4.4819  -4.4647  -4.4207  -4.3899  -4.2809  -3.7541  -3.0101  -3.0079
    -2.9015  -2.8879  -2.7447  -2.7409  -2.6619  -2.6511  -2.6168  -2.5476
    -1.2886   0.5044   1.5233   1.5314   1.6058   1.7020   1.7864   1.8064
     2.0159   2.1261   2.3232   2.3288   3.1776   3.2945   3.4772   3.5164
     3.5492   4.1094   4.3980   4.4191

     the Fermi energy is    -0.3677 ev

!    total energy              =    -549.95709480 Ry
     Harris-Foulkes estimate   =    -549.95709480 Ry
     estimated scf accuracy    <          1.6E-09 Ry

     The total energy is the sum of the following terms:

     one-electron contribution =   -2191.70355309 Ry
     hartree contribution      =    1139.26228273 Ry
     xc contribution           =    -170.00079184 Ry
     ewald contribution        =     672.91150402 Ry
     Dispersion Correction     =      -0.20473607 Ry
     smearing contrib. (-TS)   =      -0.22180054 Ry

     total magnetization       =    -0.00 Bohr mag/cell
     absolute magnetization    =     0.00 Bohr mag/cell

     convergence has been achieved in  10 iterations

     Forces acting on atoms (Ry/au):

     atom    1 type  1   force =     0.00174356    0.00120216   -0.00302426
     atom    2 type  1   force =     0.00048727    0.00127954    0.00141707
     atom    3 type  1   force =    -0.00042191    0.00028386   -0.00149947
     atom    4 type  1   force =     0.00078497    0.00002709    0.00118158
     atom    5 type  1   force =    -0.00036272    0.00088408   -0.00049080
     atom    6 type  1   force =     0.00053032    0.00055119    0.00035293
     atom    7 type  1   force =    -0.00040507   -0.00046622   -0.00036604
     atom    8 type  1   force =     0.00008308   -0.00062664    0.00174249
     atom    9 type  1   force =     0.00009629    0.00010783   -0.00430112
     atom   10 type  1   force =    -0.00005912   -0.00082957   -0.00004037
     atom   11 type  1   force =    -0.00065622    0.00042795   -0.00025067
     atom   12 type  1   force =     0.00069433   -0.00003769   -0.00146950
     atom   13 type  1   force =     0.00005415   -0.00064732    0.00083167
     atom   14 type  1   force =     0.00050620    0.00037707    0.00207607
     atom   15 type  1   force =    -0.00080664    0.00065362    0.00272518
     atom   16 type  1   force =     0.00060979    0.00020633    0.00058671
     atom   17 type  1   force =     0.00092677   -0.00079030    0.00120250
     atom   18 type  2   force =     0.00153415    0.00182057   -0.00054220
     atom   19 type  1   force =     0.00047929   -0.00053391   -0.00130192
     atom   20 type  1   force =     0.00007790   -0.00016564    0.00162603
     atom   21 type  1   force =     0.00072295   -0.00021800   -0.00050492
     atom   22 type  2   force =     0.00013113   -0.00336733    0.00034568
     atom   23 type  1   force =    -0.00089585   -0.00107039   -0.00025623
     atom   24 type  1   force =     0.00141734    0.00052414   -0.00034998
     atom   25 type  1   force =     0.00080680    0.00068746    0.00181548
     atom   26 type  1   force =    -0.00089029    0.00033763   -0.00086209
     atom   27 type  1   force =    -0.00025415    0.00001886   -0.00064686
     atom   28 type  1   force =    -0.00167610   -0.00008552   -0.00015090
     atom   29 type  1   force =    -0.00063596   -0.00099576    0.00219504
     atom   30 type  1   force =     0.00087279   -0.00118866   -0.00098421
     atom   31 type  1   force =    -0.00036647    0.00041789    0.00255332
     atom   32 type  1   force =     0.00048583   -0.00014286    0.00013475
     atom   33 type  1   force =     0.00095246   -0.00000007    0.00127426
     atom   34 type  1   force =    -0.00023977   -0.00084346   -0.00064109
     atom   35 type  1   force =    -0.00042386    0.00040130   -0.00021994
     atom   36 type  1   force =     0.00066655    0.00016615   -0.00130237
     atom   37 type  1   force =     0.00010072   -0.00157186   -0.00041948
     atom   38 type  1   force =     0.00092634   -0.00065151    0.00161516
     atom   39 type  1   force =     0.00062572   -0.00020410   -0.00011277
     atom   40 type  1   force =    -0.00107792    0.00031718   -0.00372496
     atom   41 type  1   force =    -0.00109623    0.00019019    0.00097390
     atom   42 type  1   force =    -0.00054510    0.00062719   -0.00236077
     atom   43 type  1   force =    -0.00052646   -0.00095536    0.00150391
     atom   44 type  1   force =    -0.00087226    0.00032763    0.00152005
     atom   45 type  1   force =     0.00015772    0.00061803   -0.00081165
     atom   46 type  1   force =    -0.00168017    0.00013639    0.00099607
     atom   47 type  1   force =    -0.00035690    0.00028249   -0.00299453
     atom   48 type  1   force =    -0.00057233    0.00127432   -0.00201430
     atom   49 type  1   force =    -0.00135724    0.00052500    0.00152112
     atom   50 type  1   force =    -0.00029570    0.00071904    0.00145243

     Total force =     0.013875     Total SCF correction =     0.000093

     number of scf cycles    =  29
     number of bfgs steps    =  28

     energy   old            =    -549.9568574837 Ry
     energy   new            =    -549.9570948001 Ry

     CASE: energy  _new < energy  _old

     new trust radius        =       0.0321436525 bohr
     new conv_thr            =       0.0000000100 Ry


ATOMIC_POSITIONS (angstrom)
C        0.002398571   0.710894635   5.045190417
C        0.000471593   2.133063183   5.034141067
C        1.232885404   0.001419728   5.049089827
C        1.232366392   2.840389777   5.037015350
C        2.462308910   0.710206024   5.041906183
C        2.461493251   2.132361236   5.035553205
C        3.692605953   0.002442621   5.047792517
C        3.688011449   2.845206635   5.068364465
C        4.921861423   0.713645448   5.056628036
C        4.920177919   2.135208207   5.056080090
C        6.150490168   0.001779088   5.059941489
C        6.149951468   2.845173117   5.067481970
C        0.000104405   4.971129073   5.180992274
C       -0.001442849   6.397187668   5.208702310
C        1.238891644   4.260227281   5.134942247
C        1.202180235   7.115486993   5.325414368
C        2.458595834   4.946590656   5.282490022
H        2.147045417   6.180860617   6.878968721
C        2.399845756   6.354800764   5.808081134
C        3.679333903   4.264884062   5.189586675
C        3.730852787   7.143247812   5.820610746
H        3.951564802   7.327430654   6.896554191
C        4.922051434   4.983917299   5.236467729
C        4.937022600   6.381742405   5.355116071
C        6.152382555   4.268918600   5.131858509
C        6.139280189   7.099608198   5.231155440
C       -0.009881501   9.226749122   5.129864519
C       -0.002755027  10.647853475   5.035450016
C        1.219978065   8.511589117   5.213837024
C        1.228554640  11.357325320   5.005599549
C        2.463690290   9.230011250   5.175087398
C        2.458909681  10.648415733   5.041145989
C        3.682342168   8.550379381   5.292328705
C        3.686569414  11.359922495   5.015932853
C        4.904288631   9.236358028   5.161593171
C        4.914616249  10.652708530   5.035940660
C        6.142069003   8.525583805   5.206664399
C        6.147599067  11.358186777   4.999901981
C        0.001856896  13.489956099   5.007786090
C        0.003565699  14.910554633   5.044320854
C        1.230796888  12.779492338   4.986465986
C        1.234046182  15.619796432   5.046970746
C        2.461070573  13.490417019   4.989980758
C        2.463306285  14.910962238   5.018543066
C        3.689695104  12.781730734   4.997649073
C        3.693385310  15.620329952   5.034127931
C        4.920577516  13.489270897   5.019767914
C        4.922440272  14.910127854   5.041823937
C        6.149875823  12.780112734   4.995379650
C        6.151741223  15.619824519   5.051312677



     Writing output data file gc.save
     Check: negative starting charge=(component1):   -0.000173
     NEW-OLD atomic charge density approx. for the potential
     Check: negative starting charge=(component1):   -0.000172

     negative rho (up, down):  3.762E-05 3.762E-05

     total cpu time spent up to now is     2414.3 secs

     Self-consistent Calculation

     iteration #  1     ecut=    80.00 Ry     beta=0.70
     Davidson diagonalization with overlap
     ethr =  1.00E-06,  avg # of iterations =  5.2

     negative rho (up, down):  4.385E-05 4.385E-05

     total cpu time spent up to now is     2429.0 secs

     total energy              =    -549.95763545 Ry
     Harris-Foulkes estimate   =    -549.96054998 Ry
     estimated scf accuracy    <       0.00966237 Ry

     total magnetization       =    -0.00 Bohr mag/cell
     absolute magnetization    =     0.00 Bohr mag/cell

     iteration #  2     ecut=    80.00 Ry     beta=0.70
     Davidson diagonalization with overlap
     ethr =  4.98E-06,  avg # of iterations =  1.8

     negative rho (up, down):  6.239E-05 6.239E-05

     total cpu time spent up to now is     2436.6 secs

     total energy              =    -549.95687762 Ry
     Harris-Foulkes estimate   =    -549.95811805 Ry
     estimated scf accuracy    <       0.00245768 Ry

     total magnetization       =    -0.00 Bohr mag/cell
     absolute magnetization    =     0.00 Bohr mag/cell

     iteration #  3     ecut=    80.00 Ry     beta=0.70
     Davidson diagonalization with overlap
     ethr =  1.27E-06,  avg # of iterations =  3.5

     negative rho (up, down):  4.421E-05 4.421E-05

     total cpu time spent up to now is     2446.7 secs

     total energy              =    -549.95737524 Ry
     Harris-Foulkes estimate   =    -549.95740582 Ry
     estimated scf accuracy    <       0.00011791 Ry

     total magnetization       =    -0.00 Bohr mag/cell
     absolute magnetization    =     0.00 Bohr mag/cell

     iteration #  4     ecut=    80.00 Ry     beta=0.70
     Davidson diagonalization with overlap
     ethr =  6.08E-08,  avg # of iterations =  2.2

     negative rho (up, down):  4.014E-05 4.014E-05

     total cpu time spent up to now is     2456.6 secs

     total energy              =    -549.95737675 Ry
     Harris-Foulkes estimate   =    -549.95739261 Ry
     estimated scf accuracy    <       0.00004388 Ry

     total magnetization       =     0.00 Bohr mag/cell
     absolute magnetization    =     0.00 Bohr mag/cell

     iteration #  5     ecut=    80.00 Ry     beta=0.70
     Davidson diagonalization with overlap
     ethr =  2.26E-08,  avg # of iterations =  2.0

     negative rho (up, down):  3.594E-05 3.594E-05

     total cpu time spent up to now is     2464.7 secs

     total energy              =    -549.95738101 Ry
     Harris-Foulkes estimate   =    -549.95738184 Ry
     estimated scf accuracy    <       0.00000484 Ry

     total magnetization       =     0.00 Bohr mag/cell
     absolute magnetization    =     0.00 Bohr mag/cell

     iteration #  6     ecut=    80.00 Ry     beta=0.70
     Davidson diagonalization with overlap
-------------------------------------------------------
Primary job  terminated normally, but 1 process returned
a non-zero exit code.. Per user-direction, the job has been aborted.
-------------------------------------------------------
--------------------------------------------------------------------------
mpirun detected that one or more processes exited with non-zero status, thus causing
the job to be terminated. The first process to do so was:

  Process name: [[27809,1],4]
  Exit code:    174
--------------------------------------------------------------------------
