
     Program PWSCF v.5.4.0 starts on  8Nov2016 at 17:35: 6 

     This program is part of the open-source Quantum ESPRESSO suite
     for quantum simulation of materials; please cite
         "P. Giannozzi et al., J. Phys.:Condens. Matter 21 395502 (2009);
          URL http://www.quantum-espresso.org", 
     in publications or presentations arising from this work. More details at
     http://www.quantum-espresso.org/quote

     Parallel version (MPI & OpenMP), running on     128 processor cores
     Number of MPI processes:               128
     Threads/MPI process:                     1
     R & G space division:  proc/nbgrp/npool/nimage =     128
     Waiting for input...
     Reading input from standard input

     Current dimensions of program PWSCF are:
     Max number of different atomic species (ntypx) = 10
     Max number of k-points (npk) =  40000
     Max angular momentum in pseudopotentials (lmaxx) =  3

     -------------------------------------
     Parameters for Dispersion Correction:
     -------------------------------------
       atom      VdW radius       C_6     

        C          2.744         60.710

     Subspace diagonalization in iterative solution of the eigenvalue problem:
     one sub-group per band group will be used
     scalapack distributed-memory algorithm (size of sub-group:  8*  8 procs)

     Message from routine setup:
     no reason to have ecutrho>4*ecutwfc
     Found symmetry operation: I + (  0.1667  0.0000  0.0000)
     This is a supercell, fractional translations are disabled
 
     Parallelization info
     --------------------
     sticks:   dense  smooth     PW     G-vecs:    dense   smooth      PW
     Min          63      56     14                 3431     2869     358
     Max          64      57     15                 3436     2889     361
     Sum        8161    7269   1815               439573   368489   46005
 


     bravais-lattice index     =            0
     lattice parameter (alat)  =      27.5793  a.u.
     unit-cell volume          =   10780.2123 (a.u.)^3
     number of atoms/cell      =           60
     number of atomic types    =            1
     number of electrons       =       239.00
     number of Kohn-Sham states=          144
     kinetic-energy cutoff     =      40.0000  Ry
     charge density cutoff     =     180.0000  Ry
     convergence threshold     =      1.0E-10
     mixing beta               =       0.7000
     number of iterations used =            8  plain     mixing
     Exchange-correlation      =  SLA  PW   PBX  PBC ( 1  4  3  4 0 0)
     nstep                     =           50


     celldm(1)=  27.579319  celldm(2)=   0.000000  celldm(3)=   0.000000
     celldm(4)=   0.000000  celldm(5)=   0.000000  celldm(6)=   0.000000

     crystal axes: (cart. coord. in units of alat)
               a(1) = (   1.000000   0.000000   0.000000 )  
               a(2) = (  -0.433013   0.750000   0.000000 )  
               a(3) = (   0.000000   0.000000   0.685197 )  

     reciprocal axes: (cart. coord. in units 2 pi/alat)
               b(1) = (  1.000000  0.577350  0.000000 )  
               b(2) = (  0.000000  1.333333  0.000000 )  
               b(3) = (  0.000000  0.000000  1.459435 )  


     PseudoPot. # 1 for C  read from file:
     /home/549/hxw549/Short/pseudopotentials/C.pbe-mt_gipaw.UPF
     MD5 check sum: 5ac2f21f2c440b14befe521540822c15
     Pseudo is Norm-conserving, Zval =  4.0
     Generated by new atomic code, or converted to UPF format
     Using radial grid of 1073 points,  1 beta functions with: 
                l(1) =   0

     atomic species   valence    mass     pseudopotential
        C              4.00    12.01070     C ( 1.00)

      4 Sym. Ops., with inversion, found



   Cartesian axes

     site n.     atom                  positions (alat units)
         1           C   tau(   1) = (   0.0822436   0.0500000   0.3425984  )
         2           C   tau(   2) = (  -0.0021795   0.1000000   0.3425984  )
         3           C   tau(   3) = (   0.2489103   0.0500000   0.3425984  )
         4           C   tau(   4) = (   0.1644872   0.1000000   0.3425984  )
         5           C   tau(   5) = (   0.4155769   0.0500000   0.3425984  )
         6           C   tau(   6) = (   0.3311538   0.1000000   0.3425984  )
         7           C   tau(   7) = (   0.5822436   0.0500000   0.3425984  )
         8           C   tau(   8) = (   0.4978205   0.1000000   0.3425984  )
         9           C   tau(   9) = (   0.7489103   0.0500000   0.3425984  )
        10           C   tau(  10) = (   0.6644872   0.1000000   0.3425984  )
        11           C   tau(  11) = (   0.9155769   0.0500000   0.3425984  )
        12           C   tau(  12) = (   0.8311538   0.1000000   0.3425984  )
        13           C   tau(  13) = (  -0.0043590   0.2000001   0.3425984  )
        14           C   tau(  14) = (  -0.0887820   0.2500001   0.3425984  )
        15           C   tau(  15) = (   0.1623077   0.2000001   0.3425984  )
        16           C   tau(  16) = (   0.0778846   0.2500001   0.3425984  )
        17           C   tau(  17) = (   0.3289744   0.2000001   0.3425984  )
        18           C   tau(  18) = (   0.2445513   0.2500001   0.3425984  )
        19           C   tau(  19) = (   0.4956410   0.2000001   0.3425984  )
        20           C   tau(  20) = (   0.4112180   0.2500001   0.3425984  )
        21           C   tau(  21) = (   0.6623077   0.2000001   0.3425984  )
        22           C   tau(  22) = (   0.5778846   0.2500001   0.3425984  )
        23           C   tau(  23) = (   0.8289744   0.2000001   0.3425984  )
        24           C   tau(  24) = (   0.7445513   0.2500001   0.3425984  )
        25           C   tau(  25) = (  -0.0909615   0.3500001   0.3425984  )
        26           C   tau(  26) = (  -0.1753846   0.4000001   0.3425984  )
        27           C   tau(  27) = (   0.0757051   0.3500001   0.3425984  )
        28           C   tau(  28) = (  -0.0087179   0.4000001   0.3425984  )
        29           C   tau(  29) = (   0.2423718   0.3500001   0.3425984  )
        30           C   tau(  30) = (   0.1579487   0.4000001   0.3425984  )
        31           C   tau(  31) = (   0.4090385   0.3500001   0.3425984  )
        32           C   tau(  32) = (   0.3246154   0.4000001   0.3425984  )
        33           C   tau(  33) = (   0.5757051   0.3500001   0.3425984  )
        34           C   tau(  34) = (   0.4912821   0.4000001   0.3425984  )
        35           C   tau(  35) = (   0.7423718   0.3500001   0.3425984  )
        36           C   tau(  36) = (   0.6579487   0.4000001   0.3425984  )
        37           C   tau(  37) = (  -0.1775641   0.5000001   0.3425984  )
        38           C   tau(  38) = (  -0.2619872   0.5500001   0.3425984  )
        39           C   tau(  39) = (  -0.0108974   0.5000001   0.3425984  )
        40           C   tau(  40) = (  -0.0953205   0.5500001   0.3425984  )
        41           C   tau(  41) = (   0.1557692   0.5000001   0.3425984  )
        42           C   tau(  42) = (   0.0713462   0.5500001   0.3425984  )
        43           C   tau(  43) = (   0.3224359   0.5000001   0.3425984  )
        44           C   tau(  44) = (   0.2380128   0.5500001   0.3425984  )
        45           C   tau(  45) = (   0.4891026   0.5000001   0.3425984  )
        46           C   tau(  46) = (   0.4046795   0.5500001   0.3425984  )
        47           C   tau(  47) = (   0.6557692   0.5000001   0.3425984  )
        48           C   tau(  48) = (   0.5713462   0.5500001   0.3425984  )
        49           C   tau(  49) = (  -0.2641667   0.6500002   0.3425984  )
        50           C   tau(  50) = (  -0.3485897   0.7000002   0.3425984  )
        51           C   tau(  51) = (  -0.0975000   0.6500002   0.3425984  )
        52           C   tau(  52) = (  -0.1819231   0.7000002   0.3425984  )
        53           C   tau(  53) = (   0.0691667   0.6500002   0.3425984  )
        54           C   tau(  54) = (  -0.0152564   0.7000002   0.3425984  )
        55           C   tau(  55) = (   0.2358333   0.6500002   0.3425984  )
        56           C   tau(  56) = (   0.1514103   0.7000002   0.3425984  )
        57           C   tau(  57) = (   0.4025000   0.6500002   0.3425984  )
        58           C   tau(  58) = (   0.3180769   0.7000002   0.3425984  )
        59           C   tau(  59) = (   0.5691667   0.6500002   0.3425984  )
        60           C   tau(  60) = (   0.4847436   0.7000002   0.3425984  )

     number of k points=     1  gaussian smearing, width (Ry)=  0.1000
                       cart. coord. in units 2pi/alat
        k(    1) = (   0.0000000   0.0000000   0.0000000), wk =   2.0000000

     Dense  grid:   439573 G-vectors     FFT dimensions: ( 120, 108,  81)

     Smooth grid:   368489 G-vectors     FFT dimensions: ( 120, 100,  80)

     Largest allocated arrays     est. size (Mb)     dimensions
        Kohn-Sham Wavefunctions         0.79 Mb     (     361,  144)
        NL pseudopotentials             0.33 Mb     (     361,   60)
        Each V/rho on FFT grid          0.20 Mb     (   12960)
        Each G-vector array             0.03 Mb     (    3436)
        G-vector shells                 0.01 Mb     (    1731)
     Largest temporary arrays     est. size (Mb)     dimensions
        Auxiliary wavefunctions         3.17 Mb     (     361,  576)
        Each subspace H/S matrix        0.08 Mb     (      72,   72)
        Each <psi_i|beta_j> matrix      0.13 Mb     (      60,  144)
        Arrays for rho mixing           1.58 Mb     (   12960,    8)

     Initial potential from superposition of free atoms
     Check: negative starting charge=   -0.002535

     starting charge  209.99992, renormalised to  239.00000

     negative rho (up, down):  2.885E-03 0.000E+00
     Starting wfc are  480 randomized atomic wfcs

     total cpu time spent up to now is        4.3 secs

     Self-consistent Calculation

     iteration #  1     ecut=    40.00 Ry     beta=0.70
     Davidson diagonalization with overlap
     ethr =  1.00E-04,  avg # of iterations =  6.0

     negative rho (up, down):  5.822E-04 0.000E+00

     total cpu time spent up to now is        6.3 secs

     total energy              =    -683.62017075 Ry
     Harris-Foulkes estimate   =    -684.05496681 Ry
     estimated scf accuracy    <       1.45759507 Ry

     iteration #  2     ecut=    40.00 Ry     beta=0.70
     Davidson diagonalization with overlap
     ethr =  6.10E-04,  avg # of iterations =  2.0

     negative rho (up, down):  6.090E-05 0.000E+00

     total cpu time spent up to now is        7.1 secs

     total energy              =    -683.75670938 Ry
     Harris-Foulkes estimate   =    -683.74808505 Ry
     estimated scf accuracy    <       0.06513262 Ry

     iteration #  3     ecut=    40.00 Ry     beta=0.70
     Davidson diagonalization with overlap
     ethr =  2.73E-05,  avg # of iterations =  1.0

     negative rho (up, down):  2.736E-06 0.000E+00

     total cpu time spent up to now is        7.7 secs

     total energy              =    -683.75979531 Ry
     Harris-Foulkes estimate   =    -683.75916961 Ry
     estimated scf accuracy    <       0.00248703 Ry

     iteration #  4     ecut=    40.00 Ry     beta=0.70
     Davidson diagonalization with overlap
     ethr =  1.04E-06,  avg # of iterations =  6.0

     total cpu time spent up to now is        9.1 secs

     total energy              =    -683.76013625 Ry
     Harris-Foulkes estimate   =    -683.76014989 Ry
     estimated scf accuracy    <       0.00003621 Ry

     iteration #  5     ecut=    40.00 Ry     beta=0.70
     Davidson diagonalization with overlap
     ethr =  1.52E-08,  avg # of iterations =  4.0

     total cpu time spent up to now is       10.4 secs

     total energy              =    -683.76014628 Ry
     Harris-Foulkes estimate   =    -683.76016907 Ry
     estimated scf accuracy    <       0.00006209 Ry

     iteration #  6     ecut=    40.00 Ry     beta=0.70
     Davidson diagonalization with overlap
     ethr =  1.52E-08,  avg # of iterations =  3.0

     total cpu time spent up to now is       11.4 secs

     total energy              =    -683.76015593 Ry
     Harris-Foulkes estimate   =    -683.76015871 Ry
     estimated scf accuracy    <       0.00000594 Ry

     iteration #  7     ecut=    40.00 Ry     beta=0.70
     Davidson diagonalization with overlap
     ethr =  2.49E-09,  avg # of iterations =  3.0

     total cpu time spent up to now is       12.3 secs

     total energy              =    -683.76015685 Ry
     Harris-Foulkes estimate   =    -683.76015753 Ry
     estimated scf accuracy    <       0.00000167 Ry

     iteration #  8     ecut=    40.00 Ry     beta=0.70
     Davidson diagonalization with overlap
     ethr =  6.98E-10,  avg # of iterations =  3.0

     total cpu time spent up to now is       13.2 secs

     total energy              =    -683.76015714 Ry
     Harris-Foulkes estimate   =    -683.76015720 Ry
     estimated scf accuracy    <       0.00000018 Ry

     iteration #  9     ecut=    40.00 Ry     beta=0.70
     Davidson diagonalization with overlap
     ethr =  7.43E-11,  avg # of iterations =  4.0

     total cpu time spent up to now is       14.2 secs

     total energy              =    -683.76015717 Ry
     Harris-Foulkes estimate   =    -683.76015719 Ry
     estimated scf accuracy    <       0.00000004 Ry

     iteration # 10     ecut=    40.00 Ry     beta=0.70
     Davidson diagonalization with overlap
     ethr =  1.52E-11,  avg # of iterations =  2.0

     total cpu time spent up to now is       15.1 secs

     total energy              =    -683.76015718 Ry
     Harris-Foulkes estimate   =    -683.76015718 Ry
     estimated scf accuracy    <          5.3E-09 Ry

     iteration # 11     ecut=    40.00 Ry     beta=0.70
     Davidson diagonalization with overlap
     ethr =  2.23E-12,  avg # of iterations =  3.0

     total cpu time spent up to now is       16.1 secs

     total energy              =    -683.76015718 Ry
     Harris-Foulkes estimate   =    -683.76015718 Ry
     estimated scf accuracy    <          7.3E-10 Ry

     iteration # 12     ecut=    40.00 Ry     beta=0.70
     Davidson diagonalization with overlap
     ethr =  3.05E-13,  avg # of iterations =  4.0

     total cpu time spent up to now is       17.1 secs

     total energy              =    -683.76015718 Ry
     Harris-Foulkes estimate   =    -683.76015718 Ry
     estimated scf accuracy    <          3.7E-10 Ry

     iteration # 13     ecut=    40.00 Ry     beta=0.70
     Davidson diagonalization with overlap
     ethr =  1.54E-13,  avg # of iterations =  4.0

     total cpu time spent up to now is       18.1 secs

     End of self-consistent calculation

          k = 0.0000 0.0000 0.0000 ( 46005 PWs)   bands (ev):

   -20.3558 -19.6805 -19.6805 -19.5613 -19.5613 -19.4594 -19.4593 -18.3299
   -18.3299 -18.0350 -18.0350 -17.6939 -17.6939 -17.6888 -17.6888 -17.2375
   -17.2375 -16.8740 -16.8740 -15.8493 -15.8491 -15.5720 -15.5720 -15.4088
   -15.4088 -15.1745 -15.1745 -14.7791 -14.6796 -14.6796 -14.1640 -13.5495
   -13.5495 -13.3360 -13.3360 -12.6609 -12.6609 -12.3715 -12.3715 -12.3581
   -12.3581 -11.9257 -11.9256 -11.2620 -11.2620 -10.8587 -10.8587 -10.3380
   -10.3380 -10.0312 -10.0312  -9.8799  -9.8799  -9.5515  -9.5513  -9.5050
    -9.5050  -9.0448  -9.0448  -8.8235  -8.8235  -8.4419  -8.1390  -8.1390
    -7.9949  -7.9949  -7.7696  -7.6514  -7.6514  -7.6400  -7.6400  -7.5042
    -7.5042  -7.3898  -7.3898  -7.3691  -7.3691  -7.3203  -7.3201  -7.0919
    -7.0919  -7.0760  -7.0760  -6.7540  -6.7540  -6.6435  -6.6435  -6.1226
    -6.1226  -6.0745  -6.0745  -5.7453  -5.7453  -5.4913  -5.4913  -5.3732
    -5.3732  -5.3651  -5.3651  -5.3523  -5.3523  -5.2614  -5.2611  -4.8926
    -4.8926  -4.5878  -4.5878  -4.1538  -3.9622  -3.3674  -3.3672  -3.3549
    -3.3549  -3.0216  -3.0216  -2.9378  -2.9340  -2.9340  -2.1855  -2.1855
     0.2474   0.2474   0.6518   0.6518   0.6894   1.0516   1.0516   1.0610
     1.0610   1.5960   1.5962   2.1275   2.1275   2.7019   3.0355   3.0355
     3.6162   3.6162   3.7760   3.7760   3.8412   3.8412   3.9961   3.9961

     the Fermi energy is    -1.3398 ev

!    total energy              =    -683.76015718 Ry
     Harris-Foulkes estimate   =    -683.76015718 Ry
     estimated scf accuracy    <          5.0E-11 Ry

     The total energy is the sum of the following terms:

     one-electron contribution =   -2681.92734750 Ry
     hartree contribution      =    1388.47680486 Ry
     xc contribution           =    -208.92968390 Ry
     ewald contribution        =     819.09431327 Ry
     Dispersion Correction     =      -0.24302870 Ry
     smearing contrib. (-TS)   =      -0.23121522 Ry

     convergence has been achieved in  13 iterations

     Forces acting on atoms (Ry/au):

     atom    1 type  1   force =    -0.00741872   -0.00980884    0.00000000
     atom    2 type  1   force =     0.00753093    0.00984059    0.00000000
     atom    3 type  1   force =    -0.00741895   -0.00980863    0.00000000
     atom    4 type  1   force =     0.00753109    0.00984095    0.00000000
     atom    5 type  1   force =    -0.00741804   -0.00980883   -0.00000000
     atom    6 type  1   force =     0.00753154    0.00984094    0.00000000
     atom    7 type  1   force =    -0.00741930   -0.00980879   -0.00000000
     atom    8 type  1   force =     0.00753115    0.00984015    0.00000000
     atom    9 type  1   force =    -0.00741895   -0.00980866   -0.00000000
     atom   10 type  1   force =     0.00753099    0.00984055    0.00000000
     atom   11 type  1   force =    -0.00741847   -0.00980882   -0.00000000
     atom   12 type  1   force =     0.00753131    0.00984060   -0.00000000
     atom   13 type  1   force =    -0.00749445   -0.00990076    0.00000000
     atom   14 type  1   force =     0.00741855    0.00990175    0.00000000
     atom   15 type  1   force =    -0.00749484   -0.00990111    0.00000000
     atom   16 type  1   force =     0.00741868    0.00990143   -0.00000000
     atom   17 type  1   force =    -0.00749418   -0.00990109    0.00000000
     atom   18 type  1   force =     0.00741858    0.00990139   -0.00000000
     atom   19 type  1   force =    -0.00749433   -0.00990127    0.00000000
     atom   20 type  1   force =     0.00741826    0.00990121   -0.00000000
     atom   21 type  1   force =    -0.00749482   -0.00990047    0.00000000
     atom   22 type  1   force =     0.00741887    0.00990160    0.00000000
     atom   23 type  1   force =    -0.00749449   -0.00990044    0.00000000
     atom   24 type  1   force =     0.00741859    0.00990183    0.00000000
     atom   25 type  1   force =    -0.00749863   -0.00977510    0.00000000
     atom   26 type  1   force =     0.00749861    0.00977515    0.00000000
     atom   27 type  1   force =    -0.00749886   -0.00977518    0.00000000
     atom   28 type  1   force =     0.00749871    0.00977502    0.00000000
     atom   29 type  1   force =    -0.00749842   -0.00977495    0.00000000
     atom   30 type  1   force =     0.00749862    0.00977497    0.00000000
     atom   31 type  1   force =    -0.00749862   -0.00977497    0.00000000
     atom   32 type  1   force =     0.00749842    0.00977495    0.00000000
     atom   33 type  1   force =    -0.00749871   -0.00977502    0.00000000
     atom   34 type  1   force =     0.00749886    0.00977518    0.00000000
     atom   35 type  1   force =    -0.00749861   -0.00977515    0.00000000
     atom   36 type  1   force =     0.00749863    0.00977510    0.00000000
     atom   37 type  1   force =    -0.00741859   -0.00990183    0.00000000
     atom   38 type  1   force =     0.00749449    0.00990044    0.00000000
     atom   39 type  1   force =    -0.00741887   -0.00990160    0.00000000
     atom   40 type  1   force =     0.00749482    0.00990047    0.00000000
     atom   41 type  1   force =    -0.00741826   -0.00990121   -0.00000000
     atom   42 type  1   force =     0.00749433    0.00990127    0.00000000
     atom   43 type  1   force =    -0.00741858   -0.00990139   -0.00000000
     atom   44 type  1   force =     0.00749418    0.00990109    0.00000000
     atom   45 type  1   force =    -0.00741868   -0.00990143   -0.00000000
     atom   46 type  1   force =     0.00749484    0.00990111    0.00000000
     atom   47 type  1   force =    -0.00741855   -0.00990175    0.00000000
     atom   48 type  1   force =     0.00749445    0.00990076    0.00000000
     atom   49 type  1   force =    -0.00753131   -0.00984060   -0.00000000
     atom   50 type  1   force =     0.00741847    0.00980882    0.00000000
     atom   51 type  1   force =    -0.00753099   -0.00984055    0.00000000
     atom   52 type  1   force =     0.00741895    0.00980866   -0.00000000
     atom   53 type  1   force =    -0.00753115   -0.00984015    0.00000000
     atom   54 type  1   force =     0.00741930    0.00980879   -0.00000000
     atom   55 type  1   force =    -0.00753154   -0.00984094    0.00000000
     atom   56 type  1   force =     0.00741804    0.00980883    0.00000000
     atom   57 type  1   force =    -0.00753109   -0.00984095    0.00000000
     atom   58 type  1   force =     0.00741895    0.00980863    0.00000000
     atom   59 type  1   force =    -0.00753093   -0.00984059    0.00000000
     atom   60 type  1   force =     0.00741872    0.00980884    0.00000000

     Total force =     0.095741     Total SCF correction =     0.000015

     BFGS Geometry Optimization

     number of scf cycles    =   1
     number of bfgs steps    =   0

     energy   new            =    -683.7601571784 Ry

     new trust radius        =       0.0124179125 bohr
     new conv_thr            =            1.0E-10 Ry


ATOMIC_POSITIONS (crystal)
C        0.110636774   0.066192458   0.500000000
C        0.056034629   0.133809077   0.500000000
C        0.277303440   0.066192468   0.500000000
C        0.222701302   0.133809095   0.500000000
C        0.443970129   0.066192458   0.500000000
C        0.389367989   0.133809094   0.500000000
C        0.610636754   0.066192460   0.500000000
C        0.556034628   0.133809056   0.500000000
C        0.777303440   0.066192466   0.500000000
C        0.722701291   0.133809075   0.500000000
C        0.943970114   0.066192459   0.500000000
C        0.889367973   0.133809078   0.500000000
C        0.110632104   0.266188014   0.500000000
C        0.056031835   0.333812034   0.500000000
C        0.277298753   0.266187997   0.500000000
C        0.222698493   0.333812019   0.500000000
C        0.443965437   0.266187998   0.500000000
C        0.389365158   0.333812017   0.500000000
C        0.610632098   0.266187989   0.500000000
C        0.556031813   0.333812008   0.500000000
C        0.777298767   0.266188028   0.500000000
C        0.722698503   0.333812027   0.500000000
C        0.943965439   0.266188029   0.500000000
C        0.889365168   0.333812038   0.500000000
C        0.110634583   0.466194089   0.500000000
C        0.056032087   0.533805914   0.500000000
C        0.277301243   0.466194085   0.500000000
C        0.222698748   0.533805907   0.500000000
C        0.443967924   0.466194096   0.500000000
C        0.389365414   0.533805905   0.500000000
C        0.610634586   0.466194095   0.500000000
C        0.556032076   0.533805904   0.500000000
C        0.777301252   0.466194093   0.500000000
C        0.722698757   0.533805915   0.500000000
C        0.943967913   0.466194086   0.500000000
C        0.889365417   0.533805911   0.500000000
C        0.110634832   0.666187962   0.500000000
C        0.056034561   0.733811971   0.500000000
C        0.277301497   0.666187973   0.500000000
C        0.222701233   0.733811972   0.500000000
C        0.443968187   0.666187992   0.500000000
C        0.389367902   0.733812011   0.500000000
C        0.610634842   0.666187983   0.500000000
C        0.556034563   0.733812002   0.500000000
C        0.777301507   0.666187981   0.500000000
C        0.722701247   0.733812003   0.500000000
C        0.943968165   0.666187966   0.500000000
C        0.889367896   0.733811986   0.500000000
C        0.110632027   0.866190922   0.500000000
C        0.056029886   0.933807541   0.500000000
C        0.277298709   0.866190925   0.500000000
C        0.222696560   0.933807534   0.500000000
C        0.443965372   0.866190944   0.500000000
C        0.389363246   0.933807540   0.500000000
C        0.610632011   0.866190906   0.500000000
C        0.556029871   0.933807542   0.500000000
C        0.777298698   0.866190905   0.500000000
C        0.722696560   0.933807532   0.500000000
C        0.943965371   0.866190923   0.500000000
C        0.889363226   0.933807542   0.500000000



     Writing output data file graphene.save
     Check: negative starting charge=   -0.002535
     NEW-OLD atomic charge density approx. for the potential
     Check: negative starting charge=   -0.002527

     negative rho (up, down):  3.006E-05 0.000E+00

     total cpu time spent up to now is       18.8 secs

     Self-consistent Calculation

     iteration #  1     ecut=    40.00 Ry     beta=0.70
     Davidson diagonalization with overlap
     ethr =  1.00E-06,  avg # of iterations =  5.0

     negative rho (up, down):  1.611E-07 0.000E+00

     total cpu time spent up to now is       20.5 secs

     total energy              =    -683.75942654 Ry
     Harris-Foulkes estimate   =    -683.76069766 Ry
     estimated scf accuracy    <       0.00238788 Ry

     iteration #  2     ecut=    40.00 Ry     beta=0.70
     Davidson diagonalization with overlap
     ethr =  9.99E-07,  avg # of iterations =  2.0

     total cpu time spent up to now is       21.4 secs

     total energy              =    -683.75977739 Ry
     Harris-Foulkes estimate   =    -683.75975468 Ry
     estimated scf accuracy    <       0.00002050 Ry

     iteration #  3     ecut=    40.00 Ry     beta=0.70
     Davidson diagonalization with overlap
     ethr =  8.58E-09,  avg # of iterations =  3.0

     total cpu time spent up to now is       22.5 secs

     total energy              =    -683.75978770 Ry
     Harris-Foulkes estimate   =    -683.75978554 Ry
     estimated scf accuracy    <       0.00000243 Ry

     iteration #  4     ecut=    40.00 Ry     beta=0.70
     Davidson diagonalization with overlap
     ethr =  1.02E-09,  avg # of iterations =  4.0

     total cpu time spent up to now is       23.7 secs

     total energy              =    -683.75978754 Ry
     Harris-Foulkes estimate   =    -683.75978835 Ry
     estimated scf accuracy    <       0.00000178 Ry

     iteration #  5     ecut=    40.00 Ry     beta=0.70
     Davidson diagonalization with overlap
     ethr =  7.43E-10,  avg # of iterations =  4.0

     total cpu time spent up to now is       24.7 secs

     total energy              =    -683.75978789 Ry
     Harris-Foulkes estimate   =    -683.75978796 Ry
     estimated scf accuracy    <       0.00000018 Ry

     iteration #  6     ecut=    40.00 Ry     beta=0.70
     Davidson diagonalization with overlap
     ethr =  7.59E-11,  avg # of iterations =  4.0

     total cpu time spent up to now is       25.7 secs

     total energy              =    -683.75978793 Ry
     Harris-Foulkes estimate   =    -683.75978794 Ry
     estimated scf accuracy    <       0.00000002 Ry

     iteration #  7     ecut=    40.00 Ry     beta=0.70
     Davidson diagonalization with overlap
     ethr =  9.66E-12,  avg # of iterations =  3.0

     total cpu time spent up to now is       26.7 secs

     total energy              =    -683.75978794 Ry
     Harris-Foulkes estimate   =    -683.75978794 Ry
     estimated scf accuracy    <          1.9E-09 Ry

     iteration #  8     ecut=    40.00 Ry     beta=0.70
     Davidson diagonalization with overlap
     ethr =  7.98E-13,  avg # of iterations =  3.0

     total cpu time spent up to now is       27.6 secs

     total energy              =    -683.75978794 Ry
     Harris-Foulkes estimate   =    -683.75978794 Ry
     estimated scf accuracy    <          7.3E-10 Ry

     iteration #  9     ecut=    40.00 Ry     beta=0.70
     Davidson diagonalization with overlap
     ethr =  3.05E-13,  avg # of iterations =  2.0

     total cpu time spent up to now is       28.4 secs

     End of self-consistent calculation

          k = 0.0000 0.0000 0.0000 ( 46005 PWs)   bands (ev):

   -20.3548 -19.6780 -19.6780 -19.5603 -19.5603 -19.4587 -19.4587 -18.3256
   -18.3256 -18.0309 -18.0309 -17.6933 -17.6933 -17.6819 -17.6819 -17.2354
   -17.2354 -16.8678 -16.8678 -15.8422 -15.8421 -15.5634 -15.5634 -15.4001
   -15.4001 -15.1313 -15.1313 -14.8224 -14.6599 -14.6599 -14.0620 -13.6358
   -13.6358 -13.3389 -13.3389 -12.7016 -12.7016 -12.4248 -12.4248 -12.3141
   -12.3141 -11.8514 -11.8511 -11.2702 -11.2702 -10.8310 -10.8310 -10.2696
   -10.2696 -10.1156 -10.1156  -9.9346  -9.9346  -9.6376  -9.6371  -9.5426
    -9.5426  -8.9973  -8.9973  -8.7625  -8.7625  -8.4402  -8.0391  -8.0391
    -7.9923  -7.9923  -7.8457  -7.6415  -7.6415  -7.6052  -7.6052  -7.5005
    -7.5005  -7.4079  -7.4070  -7.3832  -7.3830  -7.3536  -7.3536  -7.1799
    -7.1799  -7.1260  -7.1260  -6.6951  -6.6951  -6.6767  -6.6767  -6.0799
    -6.0799  -6.0054  -6.0054  -5.7414  -5.7414  -5.4856  -5.4856  -5.4326
    -5.4326  -5.3708  -5.3708  -5.3508  -5.3508  -5.1513  -5.1505  -4.8810
    -4.8810  -4.5491  -4.5490  -4.3389  -3.7741  -3.4055  -3.4053  -3.3492
    -3.3491  -3.0235  -2.9655  -2.9655  -2.9541  -2.9541  -2.1386  -2.1386
     0.1828   0.1828   0.5465   0.5465   0.8275   1.0522   1.0523   1.1079
     1.1079   1.6742   1.6744   2.0441   2.0441   2.7017   3.0037   3.0037
     3.6161   3.6161   3.7675   3.7675   3.7765   3.7765   4.0580   4.0580

     the Fermi energy is    -1.3366 ev

!    total energy              =    -683.75978794 Ry
     Harris-Foulkes estimate   =    -683.75978794 Ry
     estimated scf accuracy    <          4.1E-11 Ry

     The total energy is the sum of the following terms:

     one-electron contribution =   -2681.51313314 Ry
     hartree contribution      =    1388.27214878 Ry
     xc contribution           =    -208.89082703 Ry
     ewald contribution        =     818.85244215 Ry
     Dispersion Correction     =      -0.24273712 Ry
     smearing contrib. (-TS)   =      -0.23768157 Ry

     convergence has been achieved in   9 iterations

     Forces acting on atoms (Ry/au):

     atom    1 type  1   force =     0.00899862    0.00981179    0.00000000
     atom    2 type  1   force =    -0.00890230   -0.00986791    0.00000000
     atom    3 type  1   force =     0.00899891    0.00981159   -0.00000000
     atom    4 type  1   force =    -0.00890254   -0.00986863    0.00000000
     atom    5 type  1   force =     0.00899794    0.00981155    0.00000000
     atom    6 type  1   force =    -0.00890289   -0.00986870    0.00000000
     atom    7 type  1   force =     0.00899986    0.00981162    0.00000000
     atom    8 type  1   force =    -0.00890218   -0.00986728    0.00000000
     atom    9 type  1   force =     0.00899935    0.00981172    0.00000000
     atom   10 type  1   force =    -0.00890201   -0.00986767   -0.00000000
     atom   11 type  1   force =     0.00899867    0.00981182    0.00000000
     atom   12 type  1   force =    -0.00890262   -0.00986771    0.00000000
     atom   13 type  1   force =     0.00891671    0.00990059    0.00000000
     atom   14 type  1   force =    -0.00898378   -0.00984999   -0.00000000
     atom   15 type  1   force =     0.00891709    0.00990102    0.00000000
     atom   16 type  1   force =    -0.00898388   -0.00984990   -0.00000000
     atom   17 type  1   force =     0.00891636    0.00990091    0.00000000
     atom   18 type  1   force =    -0.00898365   -0.00984985    0.00000000
     atom   19 type  1   force =     0.00891688    0.00990110    0.00000000
     atom   20 type  1   force =    -0.00898300   -0.00984954    0.00000000
     atom   21 type  1   force =     0.00891762    0.00990047    0.00000000
     atom   22 type  1   force =    -0.00898375   -0.00984976    0.00000000
     atom   23 type  1   force =     0.00891700    0.00990037    0.00000000
     atom   24 type  1   force =    -0.00898362   -0.00985003    0.00000000
     atom   25 type  1   force =     0.00895564    0.00983095    0.00000000
     atom   26 type  1   force =    -0.00895598   -0.00983112    0.00000000
     atom   27 type  1   force =     0.00895576    0.00983076   -0.00000000
     atom   28 type  1   force =    -0.00895600   -0.00983096    0.00000000
     atom   29 type  1   force =     0.00895551    0.00983046    0.00000000
     atom   30 type  1   force =    -0.00895580   -0.00983062    0.00000000
     atom   31 type  1   force =     0.00895580    0.00983062   -0.00000000
     atom   32 type  1   force =    -0.00895551   -0.00983046    0.00000000
     atom   33 type  1   force =     0.00895600    0.00983096    0.00000000
     atom   34 type  1   force =    -0.00895576   -0.00983076   -0.00000000
     atom   35 type  1   force =     0.00895598    0.00983112    0.00000000
     atom   36 type  1   force =    -0.00895564   -0.00983095    0.00000000
     atom   37 type  1   force =     0.00898362    0.00985003    0.00000000
     atom   38 type  1   force =    -0.00891700   -0.00990037    0.00000000
     atom   39 type  1   force =     0.00898375    0.00984976    0.00000000
     atom   40 type  1   force =    -0.00891762   -0.00990047    0.00000000
     atom   41 type  1   force =     0.00898300    0.00984954    0.00000000
     atom   42 type  1   force =    -0.00891688   -0.00990110    0.00000000
     atom   43 type  1   force =     0.00898365    0.00984985    0.00000000
     atom   44 type  1   force =    -0.00891636   -0.00990091    0.00000000
     atom   45 type  1   force =     0.00898388    0.00984990    0.00000000
     atom   46 type  1   force =    -0.00891709   -0.00990102    0.00000000
     atom   47 type  1   force =     0.00898378    0.00984999    0.00000000
     atom   48 type  1   force =    -0.00891671   -0.00990059    0.00000000
     atom   49 type  1   force =     0.00890262    0.00986771    0.00000000
     atom   50 type  1   force =    -0.00899867   -0.00981182    0.00000000
     atom   51 type  1   force =     0.00890201    0.00986767    0.00000000
     atom   52 type  1   force =    -0.00899935   -0.00981172    0.00000000
     atom   53 type  1   force =     0.00890218    0.00986728    0.00000000
     atom   54 type  1   force =    -0.00899986   -0.00981162    0.00000000
     atom   55 type  1   force =     0.00890289    0.00986870    0.00000000
     atom   56 type  1   force =    -0.00899794   -0.00981155    0.00000000
     atom   57 type  1   force =     0.00890254    0.00986863    0.00000000
     atom   58 type  1   force =    -0.00899891   -0.00981159    0.00000000
     atom   59 type  1   force =     0.00890230    0.00986791    0.00000000
     atom   60 type  1   force =    -0.00899862   -0.00981179    0.00000000

     Total force =     0.103111     Total SCF correction =     0.000013

     number of scf cycles    =   2
     number of bfgs steps    =   1

     energy   old            =    -683.7601571784 Ry
     energy   new            =    -683.7597879364 Ry

     CASE: energy  _new > energy  _old

     new trust radius        =       0.0059685286 bohr
     new conv_thr            =            1.0E-10 Ry


ATOMIC_POSITIONS (crystal)
C        0.110883126   0.066438745   0.500000000
C        0.055785819   0.133561992   0.500000000
C        0.277549794   0.066438750   0.500000000
C        0.222452486   0.133562001   0.500000000
C        0.444216468   0.066438746   0.500000000
C        0.389119163   0.133562001   0.500000000
C        0.610883116   0.066438747   0.500000000
C        0.555785818   0.133561982   0.500000000
C        0.777549794   0.066438749   0.500000000
C        0.722452480   0.133561992   0.500000000
C        0.944216461   0.066438746   0.500000000
C        0.889119156   0.133561993   0.500000000
C        0.110880881   0.266436609   0.500000000
C        0.055784476   0.333563414   0.500000000
C        0.277547541   0.266436601   0.500000000
C        0.222451135   0.333563406   0.500000000
C        0.444214213   0.266436602   0.500000000
C        0.389117803   0.333563405   0.500000000
C        0.610880878   0.266436597   0.500000000
C        0.555784465   0.333563401   0.500000000
C        0.777547548   0.266436616   0.500000000
C        0.722451140   0.333563410   0.500000000
C        0.944214214   0.266436617   0.500000000
C        0.889117808   0.333563415   0.500000000
C        0.110882073   0.466439529   0.500000000
C        0.055784597   0.533560472   0.500000000
C        0.277548738   0.466439528   0.500000000
C        0.222451258   0.533560469   0.500000000
C        0.444215408   0.466439533   0.500000000
C        0.389117926   0.533560468   0.500000000
C        0.610882074   0.466439532   0.500000000
C        0.555784592   0.533560467   0.500000000
C        0.777548742   0.466439531   0.500000000
C        0.722451262   0.533560472   0.500000000
C        0.944215403   0.466439528   0.500000000
C        0.889117927   0.533560471   0.500000000
C        0.110882192   0.666436585   0.500000000
C        0.055785786   0.733563383   0.500000000
C        0.277548860   0.666436590   0.500000000
C        0.222452452   0.733563384   0.500000000
C        0.444215535   0.666436599   0.500000000
C        0.389119122   0.733563403   0.500000000
C        0.610882197   0.666436595   0.500000000
C        0.555785787   0.733563398   0.500000000
C        0.777548865   0.666436594   0.500000000
C        0.722452459   0.733563399   0.500000000
C        0.944215524   0.666436586   0.500000000
C        0.889119119   0.733563391   0.500000000
C        0.110880844   0.866438007   0.500000000
C        0.055783539   0.933561254   0.500000000
C        0.277547520   0.866438008   0.500000000
C        0.222450206   0.933561251   0.500000000
C        0.444214182   0.866438018   0.500000000
C        0.389116884   0.933561253   0.500000000
C        0.610880837   0.866437999   0.500000000
C        0.555783532   0.933561254   0.500000000
C        0.777547514   0.866437999   0.500000000
C        0.722450206   0.933561250   0.500000000
C        0.944214181   0.866438008   0.500000000
C        0.889116874   0.933561255   0.500000000



     Writing output data file graphene.save
     Check: negative starting charge=   -0.002527
     NEW-OLD atomic charge density approx. for the potential
     Check: negative starting charge=   -0.002532

     negative rho (up, down):  3.607E-06 0.000E+00

     total cpu time spent up to now is       29.0 secs

     Self-consistent Calculation

     iteration #  1     ecut=    40.00 Ry     beta=0.70
     Davidson diagonalization with overlap
     ethr =  1.00E-06,  avg # of iterations =  4.0

     total cpu time spent up to now is       30.6 secs

     total energy              =    -683.76224088 Ry
     Harris-Foulkes estimate   =    -683.76259138 Ry
     estimated scf accuracy    <       0.00065469 Ry

     iteration #  2     ecut=    40.00 Ry     beta=0.70
     Davidson diagonalization with overlap
     ethr =  2.74E-07,  avg # of iterations =  2.0

     total cpu time spent up to now is       31.6 secs

     total energy              =    -683.76234869 Ry
     Harris-Foulkes estimate   =    -683.76234212 Ry
     estimated scf accuracy    <       0.00000509 Ry

     iteration #  3     ecut=    40.00 Ry     beta=0.70
     Davidson diagonalization with overlap
     ethr =  2.13E-09,  avg # of iterations =  3.0

     total cpu time spent up to now is       32.7 secs

     total energy              =    -683.76235128 Ry
     Harris-Foulkes estimate   =    -683.76235071 Ry
     estimated scf accuracy    <       0.00000069 Ry

     iteration #  4     ecut=    40.00 Ry     beta=0.70
     Davidson diagonalization with overlap
     ethr =  2.90E-10,  avg # of iterations =  4.0

     total cpu time spent up to now is       33.8 secs

     total energy              =    -683.76235111 Ry
     Harris-Foulkes estimate   =    -683.76235175 Ry
     estimated scf accuracy    <       0.00000196 Ry

     iteration #  5     ecut=    40.00 Ry     beta=0.70
     Davidson diagonalization with overlap
     ethr =  2.90E-10,  avg # of iterations =  4.0

     total cpu time spent up to now is       34.9 secs

     total energy              =    -683.76235143 Ry
     Harris-Foulkes estimate   =    -683.76235145 Ry
     estimated scf accuracy    <       0.00000007 Ry

     iteration #  6     ecut=    40.00 Ry     beta=0.70
     Davidson diagonalization with overlap
     ethr =  2.99E-11,  avg # of iterations =  4.0

     total cpu time spent up to now is       35.9 secs

     total energy              =    -683.76235144 Ry
     Harris-Foulkes estimate   =    -683.76235145 Ry
     estimated scf accuracy    <          6.8E-09 Ry

     iteration #  7     ecut=    40.00 Ry     beta=0.70
     Davidson diagonalization with overlap
     ethr =  2.86E-12,  avg # of iterations =  4.0

     total cpu time spent up to now is       37.0 secs

     total energy              =    -683.76235145 Ry
     Harris-Foulkes estimate   =    -683.76235145 Ry
     estimated scf accuracy    <          3.1E-09 Ry

     iteration #  8     ecut=    40.00 Ry     beta=0.70
     Davidson diagonalization with overlap
     ethr =  1.28E-12,  avg # of iterations =  4.0

     total cpu time spent up to now is       38.0 secs

     End of self-consistent calculation

          k = 0.0000 0.0000 0.0000 ( 46005 PWs)   bands (ev):

   -20.3553 -19.6792 -19.6792 -19.5608 -19.5608 -19.4590 -19.4589 -18.3277
   -18.3277 -18.0329 -18.0329 -17.6935 -17.6935 -17.6853 -17.6853 -17.2363
   -17.2363 -16.8708 -16.8708 -15.8455 -15.8454 -15.5675 -15.5675 -15.4041
   -15.4041 -15.1535 -15.1535 -14.8000 -14.6695 -14.6695 -14.1148 -13.5910
   -13.5910 -13.3372 -13.3372 -12.6802 -12.6802 -12.3972 -12.3971 -12.3372
   -12.3372 -11.8903 -11.8901 -11.2653 -11.2653 -10.8464 -10.8464 -10.3051
   -10.3051 -10.0716 -10.0716  -9.9063  -9.9063  -9.5929  -9.5925  -9.5224
    -9.5224  -9.0205  -9.0205  -8.7943  -8.7943  -8.4410  -8.0914  -8.0914
    -7.9945  -7.9945  -7.8061  -7.6406  -7.6406  -7.6298  -7.6298  -7.5023
    -7.5023  -7.3865  -7.3864  -7.3627  -7.3627  -7.3615  -7.3610  -7.1341
    -7.1341  -7.1017  -7.1017  -6.7170  -6.7170  -6.6641  -6.6641  -6.0770
    -6.0770  -6.0641  -6.0641  -5.7432  -5.7432  -5.4677  -5.4677  -5.4251
    -5.4251  -5.3623  -5.3623  -5.3610  -5.3610  -5.2092  -5.2090  -4.8868
    -4.8868  -4.5690  -4.5690  -4.2413  -3.8737  -3.3855  -3.3853  -3.3519
    -3.3519  -2.9891  -2.9891  -2.9792  -2.9487  -2.9487  -2.1626  -2.1626
     0.2160   0.2160   0.6010   0.6010   0.7558   1.0565   1.0565   1.0781
     1.0781   1.6332   1.6334   2.0871   2.0871   2.7018   3.0201   3.0201
     3.6161   3.6161   3.7762   3.7762   3.8055   3.8055   4.0255   4.0256

     the Fermi energy is    -1.3381 ev

!    total energy              =    -683.76235145 Ry
     Harris-Foulkes estimate   =    -683.76235145 Ry
     estimated scf accuracy    <          9.3E-11 Ry

     The total energy is the sum of the following terms:

     one-electron contribution =   -2681.71822378 Ry
     hartree contribution      =    1388.37303391 Ry
     xc contribution           =    -208.90996993 Ry
     ewald contribution        =     818.96978852 Ry
     Dispersion Correction     =      -0.24289106 Ry
     smearing contrib. (-TS)   =      -0.23408911 Ry

     convergence has been achieved in   8 iterations

     Forces acting on atoms (Ry/au):

     atom    1 type  1   force =     0.00057936   -0.00036869    0.00000000
     atom    2 type  1   force =    -0.00047433    0.00035890    0.00000000
     atom    3 type  1   force =     0.00057936   -0.00036880    0.00000000
     atom    4 type  1   force =    -0.00047429    0.00035852    0.00000000
     atom    5 type  1   force =     0.00057912   -0.00036881    0.00000000
     atom    6 type  1   force =    -0.00047463    0.00035863    0.00000000
     atom    7 type  1   force =     0.00057991   -0.00036881    0.00000000
     atom    8 type  1   force =    -0.00047454    0.00035915   -0.00000000
     atom    9 type  1   force =     0.00057951   -0.00036871    0.00000000
     atom   10 type  1   force =    -0.00047426    0.00035901    0.00000000
     atom   11 type  1   force =     0.00057938   -0.00036862   -0.00000000
     atom   12 type  1   force =    -0.00047459    0.00035905    0.00000000
     atom   13 type  1   force =     0.00050109   -0.00037521    0.00000000
     atom   14 type  1   force =    -0.00057299    0.00039835    0.00000000
     atom   15 type  1   force =     0.00050125   -0.00037501   -0.00000000
     atom   16 type  1   force =    -0.00057264    0.00039841    0.00000000
     atom   17 type  1   force =     0.00050113   -0.00037493    0.00000000
     atom   18 type  1   force =    -0.00057275    0.00039851   -0.00000000
     atom   19 type  1   force =     0.00050095   -0.00037482   -0.00000000
     atom   20 type  1   force =    -0.00057272    0.00039852   -0.00000000
     atom   21 type  1   force =     0.00050107   -0.00037532   -0.00000000
     atom   22 type  1   force =    -0.00057302    0.00039837    0.00000000
     atom   23 type  1   force =     0.00050118   -0.00037524    0.00000000
     atom   24 type  1   force =    -0.00057301    0.00039839    0.00000000
     atom   25 type  1   force =     0.00051675   -0.00034262    0.00000000
     atom   26 type  1   force =    -0.00051686    0.00034273    0.00000000
     atom   27 type  1   force =     0.00051703   -0.00034262    0.00000000
     atom   28 type  1   force =    -0.00051663    0.00034299    0.00000000
     atom   29 type  1   force =     0.00051691   -0.00034282   -0.00000000
     atom   30 type  1   force =    -0.00051667    0.00034297    0.00000000
     atom   31 type  1   force =     0.00051667   -0.00034297   -0.00000000
     atom   32 type  1   force =    -0.00051691    0.00034282    0.00000000
     atom   33 type  1   force =     0.00051663   -0.00034299   -0.00000000
     atom   34 type  1   force =    -0.00051703    0.00034262    0.00000000
     atom   35 type  1   force =     0.00051686   -0.00034273    0.00000000
     atom   36 type  1   force =    -0.00051675    0.00034262    0.00000000
     atom   37 type  1   force =     0.00057301   -0.00039839    0.00000000
     atom   38 type  1   force =    -0.00050118    0.00037524   -0.00000000
     atom   39 type  1   force =     0.00057302   -0.00039837    0.00000000
     atom   40 type  1   force =    -0.00050107    0.00037532    0.00000000
     atom   41 type  1   force =     0.00057272   -0.00039852    0.00000000
     atom   42 type  1   force =    -0.00050095    0.00037482   -0.00000000
     atom   43 type  1   force =     0.00057275   -0.00039851   -0.00000000
     atom   44 type  1   force =    -0.00050113    0.00037493    0.00000000
     atom   45 type  1   force =     0.00057264   -0.00039841    0.00000000
     atom   46 type  1   force =    -0.00050125    0.00037501   -0.00000000
     atom   47 type  1   force =     0.00057299   -0.00039835    0.00000000
     atom   48 type  1   force =    -0.00050109    0.00037521    0.00000000
     atom   49 type  1   force =     0.00047459   -0.00035905    0.00000000
     atom   50 type  1   force =    -0.00057938    0.00036862    0.00000000
     atom   51 type  1   force =     0.00047426   -0.00035901    0.00000000
     atom   52 type  1   force =    -0.00057951    0.00036871    0.00000000
     atom   53 type  1   force =     0.00047454   -0.00035915    0.00000000
     atom   54 type  1   force =    -0.00057991    0.00036881    0.00000000
     atom   55 type  1   force =     0.00047463   -0.00035863   -0.00000000
     atom   56 type  1   force =    -0.00057912    0.00036881    0.00000000
     atom   57 type  1   force =     0.00047429   -0.00035852   -0.00000000
     atom   58 type  1   force =    -0.00057936    0.00036880    0.00000000
     atom   59 type  1   force =     0.00047433   -0.00035890    0.00000000
     atom   60 type  1   force =    -0.00057936    0.00036869    0.00000000

     Total force =     0.005007     Total SCF correction =     0.000021

     number of scf cycles    =   3
     number of bfgs steps    =   1

     energy   old            =    -683.7601571784 Ry
     energy   new            =    -683.7623514464 Ry

     CASE: energy  _new < energy  _old

     new trust radius        =       0.0006963617 bohr
     new conv_thr            =            5.8E-11 Ry


ATOMIC_POSITIONS (crystal)
C        0.110894584   0.066419156   0.500000000
C        0.055777974   0.133581115   0.500000000
C        0.277561250   0.066419155   0.500000000
C        0.222444635   0.133581106   0.500000000
C        0.444227915   0.066419150   0.500000000
C        0.389111302   0.133581111   0.500000000
C        0.610894592   0.066419151   0.500000000
C        0.555777972   0.133581117   0.500000000
C        0.777561257   0.066419159   0.500000000
C        0.722444640   0.133581120   0.500000000
C        0.944227921   0.066419159   0.500000000
C        0.889111305   0.133581123   0.500000000
C        0.110889354   0.266416688   0.500000000
C        0.055773875   0.333584451   0.500000000
C        0.277556023   0.266416690   0.500000000
C        0.222440548   0.333584447   0.500000000
C        0.444222692   0.266416694   0.500000000
C        0.389107214   0.333584451   0.500000000
C        0.610889354   0.266416695   0.500000000
C        0.555773878   0.333584447   0.500000000
C        0.777556017   0.266416690   0.500000000
C        0.722440538   0.333584449   0.500000000
C        0.944222689   0.266416694   0.500000000
C        0.889107207   0.333584455   0.500000000
C        0.110891802   0.466421204   0.500000000
C        0.055774867   0.533578803   0.500000000
C        0.277558477   0.466421202   0.500000000
C        0.222441541   0.533578812   0.500000000
C        0.444225139   0.466421197   0.500000000
C        0.389108207   0.533578810   0.500000000
C        0.610891793   0.466421190   0.500000000
C        0.555774861   0.533578803   0.500000000
C        0.777558459   0.466421188   0.500000000
C        0.722441523   0.533578798   0.500000000
C        0.944225133   0.466421197   0.500000000
C        0.889108198   0.533578796   0.500000000
C        0.110892793   0.666415545   0.500000000
C        0.055777311   0.733583306   0.500000000
C        0.277559462   0.666415551   0.500000000
C        0.222443983   0.733583310   0.500000000
C        0.444226122   0.666415553   0.500000000
C        0.389110646   0.733583305   0.500000000
C        0.610892786   0.666415549   0.500000000
C        0.555777308   0.733583306   0.500000000
C        0.777559452   0.666415553   0.500000000
C        0.722443977   0.733583310   0.500000000
C        0.944226125   0.666415549   0.500000000
C        0.889110646   0.733583312   0.500000000
C        0.110888695   0.866418877   0.500000000
C        0.055772079   0.933580841   0.500000000
C        0.277555360   0.866418880   0.500000000
C        0.222438743   0.933580841   0.500000000
C        0.444222028   0.866418883   0.500000000
C        0.389105408   0.933580849   0.500000000
C        0.610888698   0.866418889   0.500000000
C        0.555772085   0.933580850   0.500000000
C        0.777555365   0.866418894   0.500000000
C        0.722438750   0.933580845   0.500000000
C        0.944222026   0.866418885   0.500000000
C        0.889105416   0.933580844   0.500000000



     Writing output data file graphene.save
     Check: negative starting charge=   -0.002532
     NEW-OLD atomic charge density approx. for the potential
     Check: negative starting charge=   -0.002532

     total cpu time spent up to now is       38.6 secs

     Self-consistent Calculation

     iteration #  1     ecut=    40.00 Ry     beta=0.70
     Davidson diagonalization with overlap
     ethr =  1.00E-06,  avg # of iterations =  2.0

     Threshold (ethr) on eigenvalues was too large:
     Diagonalizing with lowered threshold

     Davidson diagonalization with overlap
     ethr =  1.81E-09,  avg # of iterations =  4.0

     total cpu time spent up to now is       40.8 secs

     total energy              =    -683.76235045 Ry
     Harris-Foulkes estimate   =    -683.76235380 Ry
     estimated scf accuracy    <       0.00000638 Ry

     iteration #  2     ecut=    40.00 Ry     beta=0.70
     Davidson diagonalization with overlap
     ethr =  2.67E-09,  avg # of iterations =  2.0

     total cpu time spent up to now is       41.7 secs

     total energy              =    -683.76235135 Ry
     Harris-Foulkes estimate   =    -683.76235135 Ry
     estimated scf accuracy    <       0.00000010 Ry

     iteration #  3     ecut=    40.00 Ry     beta=0.70
     Davidson diagonalization with overlap
     ethr =  4.01E-11,  avg # of iterations =  4.0

     total cpu time spent up to now is       43.0 secs

     total energy              =    -683.76235135 Ry
     Harris-Foulkes estimate   =    -683.76235144 Ry
     estimated scf accuracy    <       0.00000026 Ry

     iteration #  4     ecut=    40.00 Ry     beta=0.70
     Davidson diagonalization with overlap
     ethr =  4.01E-11,  avg # of iterations =  4.0

     total cpu time spent up to now is       44.1 secs

     total energy              =    -683.76235140 Ry
     Harris-Foulkes estimate   =    -683.76235140 Ry
     estimated scf accuracy    <       0.00000002 Ry

     iteration #  5     ecut=    40.00 Ry     beta=0.70
     Davidson diagonalization with overlap
     ethr =  8.20E-12,  avg # of iterations =  4.0

     total cpu time spent up to now is       45.2 secs

     total energy              =    -683.76235140 Ry
     Harris-Foulkes estimate   =    -683.76235140 Ry
     estimated scf accuracy    <       0.00000001 Ry

     iteration #  6     ecut=    40.00 Ry     beta=0.70
     Davidson diagonalization with overlap
     ethr =  4.33E-12,  avg # of iterations =  3.0

     total cpu time spent up to now is       46.1 secs

     total energy              =    -683.76235140 Ry
     Harris-Foulkes estimate   =    -683.76235140 Ry
     estimated scf accuracy    <          1.2E-10 Ry

     iteration #  7     ecut=    40.00 Ry     beta=0.70
     Davidson diagonalization with overlap
     ethr =  1.00E-13,  avg # of iterations =  3.0

     total cpu time spent up to now is       47.1 secs

     total energy              =    -683.76235140 Ry
     Harris-Foulkes estimate   =    -683.76235140 Ry
     estimated scf accuracy    <          9.2E-11 Ry

     iteration #  8     ecut=    40.00 Ry     beta=0.70
     Davidson diagonalization with overlap
     ethr =  1.00E-13,  avg # of iterations =  1.0

     total cpu time spent up to now is       47.7 secs

     End of self-consistent calculation

          k = 0.0000 0.0000 0.0000 ( 46005 PWs)   bands (ev):

   -20.3552 -19.6792 -19.6792 -19.5607 -19.5607 -19.4590 -19.4590 -18.3276
   -18.3276 -18.0330 -18.0330 -17.6933 -17.6933 -17.6853 -17.6853 -17.2362
   -17.2362 -16.8707 -16.8707 -15.8455 -15.8454 -15.5682 -15.5682 -15.4040
   -15.4040 -15.1520 -15.1520 -14.7989 -14.6698 -14.6698 -14.1167 -13.5948
   -13.5948 -13.3333 -13.3332 -12.6771 -12.6771 -12.3996 -12.3995 -12.3396
   -12.3396 -11.8891 -11.8888 -11.2618 -11.2618 -10.8492 -10.8492 -10.3061
   -10.3061 -10.0729 -10.0729  -9.9037  -9.9037  -9.5942  -9.5937  -9.5273
    -9.5273  -9.0155  -9.0155  -8.7914  -8.7914  -8.4409  -8.0898  -8.0898
    -7.9988  -7.9988  -7.8047  -7.6405  -7.6405  -7.6241  -7.6241  -7.5025
    -7.5025  -7.3864  -7.3861  -7.3674  -7.3674  -7.3653  -7.3647  -7.1326
    -7.1326  -7.1076  -7.1076  -6.7137  -6.7136  -6.6583  -6.6583  -6.0776
    -6.0776  -6.0673  -6.0673  -5.7423  -5.7423  -5.4741  -5.4741  -5.4218
    -5.4218  -5.3623  -5.3623  -5.3606  -5.3606  -5.2047  -5.2042  -4.8883
    -4.8883  -4.5674  -4.5674  -4.2444  -3.8706  -3.3861  -3.3858  -3.3557
    -3.3556  -2.9861  -2.9861  -2.9774  -2.9466  -2.9466  -2.1650  -2.1650
     0.2194   0.2194   0.5963   0.5963   0.7530   1.0631   1.0631   1.0745
     1.0745   1.6344   1.6346   2.0838   2.0838   2.7018   3.0241   3.0241
     3.6161   3.6161   3.7762   3.7762   3.8057   3.8057   4.0242   4.0242

     the Fermi energy is    -1.3383 ev

!    total energy              =    -683.76235140 Ry
     Harris-Foulkes estimate   =    -683.76235140 Ry
     estimated scf accuracy    <          2.5E-12 Ry

     The total energy is the sum of the following terms:

     one-electron contribution =   -2681.71423186 Ry
     hartree contribution      =    1388.37109584 Ry
     xc contribution           =    -208.90962136 Ry
     ewald contribution        =     818.96737904 Ry
     Dispersion Correction     =      -0.24288647 Ry
     smearing contrib. (-TS)   =      -0.23408659 Ry

     convergence has been achieved in   8 iterations

     Forces acting on atoms (Ry/au):

     atom    1 type  1   force =    -0.00047670    0.00039332    0.00000000
     atom    2 type  1   force =     0.00054914   -0.00039787    0.00000000
     atom    3 type  1   force =    -0.00047673    0.00039337   -0.00000000
     atom    4 type  1   force =     0.00054924   -0.00039766   -0.00000000
     atom    5 type  1   force =    -0.00047678    0.00039360    0.00000000
     atom    6 type  1   force =     0.00054925   -0.00039774    0.00000000
     atom    7 type  1   force =    -0.00047706    0.00039363    0.00000000
     atom    8 type  1   force =     0.00054927   -0.00039802   -0.00000000
     atom    9 type  1   force =    -0.00047690    0.00039343    0.00000000
     atom   10 type  1   force =     0.00054929   -0.00039801    0.00000000
     atom   11 type  1   force =    -0.00047684    0.00039339    0.00000000
     atom   12 type  1   force =     0.00054938   -0.00039802    0.00000000
     atom   13 type  1   force =    -0.00053809    0.00041665    0.00000000
     atom   14 type  1   force =     0.00048741   -0.00040031    0.00000000
     atom   15 type  1   force =    -0.00053807    0.00041647    0.00000000
     atom   16 type  1   force =     0.00048722   -0.00040029    0.00000000
     atom   17 type  1   force =    -0.00053815    0.00041640    0.00000000
     atom   18 type  1   force =     0.00048725   -0.00040042    0.00000000
     atom   19 type  1   force =    -0.00053812    0.00041633    0.00000000
     atom   20 type  1   force =     0.00048713   -0.00040033    0.00000000
     atom   21 type  1   force =    -0.00053819    0.00041656    0.00000000
     atom   22 type  1   force =     0.00048735   -0.00040045   -0.00000000
     atom   23 type  1   force =    -0.00053829    0.00041658    0.00000000
     atom   24 type  1   force =     0.00048737   -0.00040053    0.00000000
     atom   25 type  1   force =    -0.00051151    0.00038900    0.00000000
     atom   26 type  1   force =     0.00051170   -0.00038905    0.00000000
     atom   27 type  1   force =    -0.00051175    0.00038904    0.00000000
     atom   28 type  1   force =     0.00051167   -0.00038926    0.00000000
     atom   29 type  1   force =    -0.00051175    0.00038908    0.00000000
     atom   30 type  1   force =     0.00051164   -0.00038916    0.00000000
     atom   31 type  1   force =    -0.00051164    0.00038916    0.00000000
     atom   32 type  1   force =     0.00051175   -0.00038908    0.00000000
     atom   33 type  1   force =    -0.00051167    0.00038926    0.00000000
     atom   34 type  1   force =     0.00051175   -0.00038904    0.00000000
     atom   35 type  1   force =    -0.00051170    0.00038905    0.00000000
     atom   36 type  1   force =     0.00051151   -0.00038900    0.00000000
     atom   37 type  1   force =    -0.00048737    0.00040053    0.00000000
     atom   38 type  1   force =     0.00053829   -0.00041658    0.00000000
     atom   39 type  1   force =    -0.00048735    0.00040045   -0.00000000
     atom   40 type  1   force =     0.00053819   -0.00041656    0.00000000
     atom   41 type  1   force =    -0.00048713    0.00040033    0.00000000
     atom   42 type  1   force =     0.00053812   -0.00041633    0.00000000
     atom   43 type  1   force =    -0.00048725    0.00040042    0.00000000
     atom   44 type  1   force =     0.00053815   -0.00041640    0.00000000
     atom   45 type  1   force =    -0.00048722    0.00040029    0.00000000
     atom   46 type  1   force =     0.00053807   -0.00041647    0.00000000
     atom   47 type  1   force =    -0.00048741    0.00040031    0.00000000
     atom   48 type  1   force =     0.00053809   -0.00041665    0.00000000
     atom   49 type  1   force =    -0.00054938    0.00039802    0.00000000
     atom   50 type  1   force =     0.00047684   -0.00039339   -0.00000000
     atom   51 type  1   force =    -0.00054929    0.00039801    0.00000000
     atom   52 type  1   force =     0.00047690   -0.00039343    0.00000000
     atom   53 type  1   force =    -0.00054927    0.00039802    0.00000000
     atom   54 type  1   force =     0.00047706   -0.00039363    0.00000000
     atom   55 type  1   force =    -0.00054925    0.00039774    0.00000000
     atom   56 type  1   force =     0.00047678   -0.00039360    0.00000000
     atom   57 type  1   force =    -0.00054924    0.00039766    0.00000000
     atom   58 type  1   force =     0.00047673   -0.00039337   -0.00000000
     atom   59 type  1   force =    -0.00054914    0.00039787    0.00000000
     atom   60 type  1   force =     0.00047670   -0.00039332    0.00000000

     Total force =     0.005039     Total SCF correction =     0.000002

     number of scf cycles    =   4
     number of bfgs steps    =   2

     energy   old            =    -683.7623514464 Ry
     energy   new            =    -683.7623514029 Ry

     CASE: energy  _new > energy  _old

     new trust radius        =       0.0003475747 bohr
     new conv_thr            =            5.8E-11 Ry


ATOMIC_POSITIONS (crystal)
C        0.110888845   0.066428968   0.500000000
C        0.055781904   0.133571537   0.500000000
C        0.277555512   0.066428970   0.500000000
C        0.222448567   0.133571537   0.500000000
C        0.444222182   0.066428965   0.500000000
C        0.389115240   0.133571539   0.500000000
C        0.610888844   0.066428966   0.500000000
C        0.555781902   0.133571533   0.500000000
C        0.777555515   0.066428971   0.500000000
C        0.722448567   0.133571539   0.500000000
C        0.944222181   0.066428970   0.500000000
C        0.889115237   0.133571541   0.500000000
C        0.110885110   0.266426666   0.500000000
C        0.055779185   0.333573914   0.500000000
C        0.277551775   0.266426663   0.500000000
C        0.222445851   0.333573908   0.500000000
C        0.444218445   0.266426665   0.500000000
C        0.389112518   0.333573910   0.500000000
C        0.610885108   0.266426664   0.500000000
C        0.555779181   0.333573906   0.500000000
C        0.777551775   0.266426670   0.500000000
C        0.722445848   0.333573911   0.500000000
C        0.944218444   0.266426673   0.500000000
C        0.889112516   0.333573917   0.500000000
C        0.110886929   0.466430382   0.500000000
C        0.055779740   0.533569621   0.500000000
C        0.277553599   0.466430381   0.500000000
C        0.222446408   0.533569625   0.500000000
C        0.444220265   0.466430381   0.500000000
C        0.389113075   0.533569623   0.500000000
C        0.610886925   0.466430377   0.500000000
C        0.555779735   0.533569619   0.500000000
C        0.777553592   0.466430375   0.500000000
C        0.722446401   0.533569619   0.500000000
C        0.944220260   0.466430379   0.500000000
C        0.889113071   0.533569618   0.500000000
C        0.110887484   0.666426083   0.500000000
C        0.055781556   0.733573327   0.500000000
C        0.277554152   0.666426089   0.500000000
C        0.222448225   0.733573330   0.500000000
C        0.444220819   0.666426094   0.500000000
C        0.389114892   0.733573336   0.500000000
C        0.610887482   0.666426090   0.500000000
C        0.555781555   0.733573335   0.500000000
C        0.777554149   0.666426092   0.500000000
C        0.722448225   0.733573337   0.500000000
C        0.944220815   0.666426086   0.500000000
C        0.889114890   0.733573334   0.500000000
C        0.110884763   0.866428459   0.500000000
C        0.055777819   0.933571030   0.500000000
C        0.277551433   0.866428461   0.500000000
C        0.222444485   0.933571029   0.500000000
C        0.444218098   0.866428467   0.500000000
C        0.389111156   0.933571034   0.500000000
C        0.610884760   0.866428461   0.500000000
C        0.555777818   0.933571035   0.500000000
C        0.777551433   0.866428463   0.500000000
C        0.722444488   0.933571030   0.500000000
C        0.944218096   0.866428463   0.500000000
C        0.889111155   0.933571032   0.500000000



     Writing output data file graphene.save
     Check: negative starting charge=   -0.002532
     NEW-OLD atomic charge density approx. for the potential
     Check: negative starting charge=   -0.002532

     total cpu time spent up to now is       48.3 secs

     Self-consistent Calculation

     iteration #  1     ecut=    40.00 Ry     beta=0.70
     Davidson diagonalization with overlap
     ethr =  1.00E-06,  avg # of iterations =  2.0

     Threshold (ethr) on eigenvalues was too large:
     Diagonalizing with lowered threshold

     Davidson diagonalization with overlap
     ethr =  2.07E-10,  avg # of iterations =  4.0

     total cpu time spent up to now is       50.6 secs

     total energy              =    -683.76235741 Ry
     Harris-Foulkes estimate   =    -683.76235827 Ry
     estimated scf accuracy    <       0.00000160 Ry

     iteration #  2     ecut=    40.00 Ry     beta=0.70
     Davidson diagonalization with overlap
     ethr =  6.71E-10,  avg # of iterations =  2.0

     total cpu time spent up to now is       51.5 secs

     total energy              =    -683.76235766 Ry
     Harris-Foulkes estimate   =    -683.76235764 Ry
     estimated scf accuracy    <       0.00000002 Ry

     iteration #  3     ecut=    40.00 Ry     beta=0.70
     Davidson diagonalization with overlap
     ethr =  8.90E-12,  avg # of iterations =  4.0

     total cpu time spent up to now is       52.8 secs

     total energy              =    -683.76235766 Ry
     Harris-Foulkes estimate   =    -683.76235768 Ry
     estimated scf accuracy    <       0.00000004 Ry

     iteration #  4     ecut=    40.00 Ry     beta=0.70
     Davidson diagonalization with overlap
     ethr =  8.90E-12,  avg # of iterations =  4.0

     total cpu time spent up to now is       53.9 secs

     total energy              =    -683.76235767 Ry
     Harris-Foulkes estimate   =    -683.76235767 Ry
     estimated scf accuracy    <          5.7E-09 Ry

     iteration #  5     ecut=    40.00 Ry     beta=0.70
     Davidson diagonalization with overlap
     ethr =  2.37E-12,  avg # of iterations =  4.0

     total cpu time spent up to now is       55.0 secs

     total energy              =    -683.76235767 Ry
     Harris-Foulkes estimate   =    -683.76235767 Ry
     estimated scf accuracy    <          3.4E-09 Ry

     iteration #  6     ecut=    40.00 Ry     beta=0.70
     Davidson diagonalization with overlap
     ethr =  1.42E-12,  avg # of iterations =  3.0

     total cpu time spent up to now is       55.9 secs

     total energy              =    -683.76235767 Ry
     Harris-Foulkes estimate   =    -683.76235767 Ry
     estimated scf accuracy    <          7.4E-11 Ry

     iteration #  7     ecut=    40.00 Ry     beta=0.70
     Davidson diagonalization with overlap
     ethr =  1.00E-13,  avg # of iterations =  4.0

     total cpu time spent up to now is       56.9 secs

     End of self-consistent calculation

          k = 0.0000 0.0000 0.0000 ( 46005 PWs)   bands (ev):

   -20.3552 -19.6792 -19.6792 -19.5607 -19.5607 -19.4590 -19.4590 -18.3277
   -18.3277 -18.0329 -18.0329 -17.6934 -17.6934 -17.6853 -17.6853 -17.2362
   -17.2362 -16.8708 -16.8707 -15.8455 -15.8454 -15.5678 -15.5678 -15.4040
   -15.4040 -15.1527 -15.1527 -14.7994 -14.6697 -14.6697 -14.1158 -13.5929
   -13.5929 -13.3353 -13.3352 -12.6786 -12.6786 -12.3984 -12.3983 -12.3384
   -12.3384 -11.8897 -11.8895 -11.2636 -11.2636 -10.8478 -10.8478 -10.3056
   -10.3056 -10.0723 -10.0723  -9.9050  -9.9050  -9.5935  -9.5931  -9.5248
    -9.5248  -9.0180  -9.0180  -8.7928  -8.7928  -8.4409  -8.0906  -8.0906
    -7.9966  -7.9966  -7.8054  -7.6406  -7.6406  -7.6270  -7.6270  -7.5024
    -7.5024  -7.3864  -7.3863  -7.3651  -7.3651  -7.3634  -7.3628  -7.1334
    -7.1334  -7.1046  -7.1046  -6.7153  -6.7153  -6.6612  -6.6612  -6.0773
    -6.0773  -6.0657  -6.0657  -5.7428  -5.7428  -5.4709  -5.4709  -5.4235
    -5.4235  -5.3623  -5.3623  -5.3608  -5.3608  -5.2070  -5.2066  -4.8876
    -4.8876  -4.5682  -4.5682  -4.2428  -3.8722  -3.3858  -3.3855  -3.3538
    -3.3538  -2.9876  -2.9876  -2.9783  -2.9477  -2.9477  -2.1638  -2.1638
     0.2177   0.2177   0.5986   0.5986   0.7544   1.0598   1.0598   1.0763
     1.0763   1.6338   1.6340   2.0855   2.0855   2.7018   3.0221   3.0221
     3.6161   3.6161   3.7762   3.7762   3.8056   3.8056   4.0249   4.0249

     the Fermi energy is    -1.3382 ev

!    total energy              =    -683.76235767 Ry
     Harris-Foulkes estimate   =    -683.76235767 Ry
     estimated scf accuracy    <          1.5E-11 Ry

     The total energy is the sum of the following terms:

     one-electron contribution =   -2681.71621305 Ry
     hartree contribution      =    1388.37206221 Ry
     xc contribution           =    -208.90979445 Ry
     ewald contribution        =     818.96856367 Ry
     Dispersion Correction     =      -0.24288878 Ry
     smearing contrib. (-TS)   =      -0.23408727 Ry

     convergence has been achieved in   7 iterations

     Forces acting on atoms (Ry/au):

     atom    1 type  1   force =     0.00005214    0.00001246   -0.00000000
     atom    2 type  1   force =     0.00003679   -0.00001856    0.00000000
     atom    3 type  1   force =     0.00005232    0.00001249    0.00000000
     atom    4 type  1   force =     0.00003701   -0.00001853    0.00000000
     atom    5 type  1   force =     0.00005198    0.00001252    0.00000000
     atom    6 type  1   force =     0.00003681   -0.00001867    0.00000000
     atom    7 type  1   force =     0.00005203    0.00001245    0.00000000
     atom    8 type  1   force =     0.00003668   -0.00001857    0.00000000
     atom    9 type  1   force =     0.00005180    0.00001232    0.00000000
     atom   10 type  1   force =     0.00003667   -0.00001867    0.00000000
     atom   11 type  1   force =     0.00005193    0.00001238    0.00000000
     atom   12 type  1   force =     0.00003670   -0.00001862   -0.00000000
     atom   13 type  1   force =    -0.00001778    0.00002008    0.00000000
     atom   14 type  1   force =    -0.00004343   -0.00000047   -0.00000000
     atom   15 type  1   force =    -0.00001760    0.00002019   -0.00000000
     atom   16 type  1   force =    -0.00004341   -0.00000036   -0.00000000
     atom   17 type  1   force =    -0.00001779    0.00002008   -0.00000000
     atom   18 type  1   force =    -0.00004346   -0.00000044    0.00000000
     atom   19 type  1   force =    -0.00001793    0.00001999   -0.00000000
     atom   20 type  1   force =    -0.00004348   -0.00000045    0.00000000
     atom   21 type  1   force =    -0.00001794    0.00001992    0.00000000
     atom   22 type  1   force =    -0.00004366   -0.00000058    0.00000000
     atom   23 type  1   force =    -0.00001788    0.00001995    0.00000000
     atom   24 type  1   force =    -0.00004353   -0.00000058   -0.00000000
     atom   25 type  1   force =     0.00000338    0.00002290    0.00000000
     atom   26 type  1   force =    -0.00000326   -0.00002289    0.00000000
     atom   27 type  1   force =     0.00000329    0.00002294    0.00000000
     atom   28 type  1   force =    -0.00000307   -0.00002285    0.00000000
     atom   29 type  1   force =     0.00000321    0.00002285    0.00000000
     atom   30 type  1   force =    -0.00000320   -0.00002283   -0.00000000
     atom   31 type  1   force =     0.00000320    0.00002283   -0.00000000
     atom   32 type  1   force =    -0.00000321   -0.00002285    0.00000000
     atom   33 type  1   force =     0.00000307    0.00002285    0.00000000
     atom   34 type  1   force =    -0.00000329   -0.00002294    0.00000000
     atom   35 type  1   force =     0.00000326    0.00002289    0.00000000
     atom   36 type  1   force =    -0.00000338   -0.00002290    0.00000000
     atom   37 type  1   force =     0.00004353    0.00000058   -0.00000000
     atom   38 type  1   force =     0.00001788   -0.00001995    0.00000000
     atom   39 type  1   force =     0.00004366    0.00000058    0.00000000
     atom   40 type  1   force =     0.00001794   -0.00001992    0.00000000
     atom   41 type  1   force =     0.00004348    0.00000045    0.00000000
     atom   42 type  1   force =     0.00001793   -0.00001999   -0.00000000
     atom   43 type  1   force =     0.00004346    0.00000044    0.00000000
     atom   44 type  1   force =     0.00001779   -0.00002008    0.00000000
     atom   45 type  1   force =     0.00004341    0.00000036   -0.00000000
     atom   46 type  1   force =     0.00001760   -0.00002019   -0.00000000
     atom   47 type  1   force =     0.00004343    0.00000047    0.00000000
     atom   48 type  1   force =     0.00001778   -0.00002008    0.00000000
     atom   49 type  1   force =    -0.00003670    0.00001862   -0.00000000
     atom   50 type  1   force =    -0.00005193   -0.00001238    0.00000000
     atom   51 type  1   force =    -0.00003667    0.00001867    0.00000000
     atom   52 type  1   force =    -0.00005180   -0.00001232    0.00000000
     atom   53 type  1   force =    -0.00003668    0.00001857    0.00000000
     atom   54 type  1   force =    -0.00005203   -0.00001245    0.00000000
     atom   55 type  1   force =    -0.00003681    0.00001867    0.00000000
     atom   56 type  1   force =    -0.00005198   -0.00001252    0.00000000
     atom   57 type  1   force =    -0.00003701    0.00001853    0.00000000
     atom   58 type  1   force =    -0.00005232   -0.00001249    0.00000000
     atom   59 type  1   force =    -0.00003679    0.00001856    0.00000000
     atom   60 type  1   force =    -0.00005214   -0.00001246   -0.00000000

     Total force =     0.000304     Total SCF correction =     0.000009

     number of scf cycles    =   5
     number of bfgs steps    =   2

     energy   old            =    -683.7623514464 Ry
     energy   new            =    -683.7623576696 Ry

     CASE: energy  _new < energy  _old

     small trust_radius: resetting bfgs history

     new trust radius        =       0.0000537873 bohr
     new conv_thr            =            5.2E-12 Ry


ATOMIC_POSITIONS (crystal)
C        0.110890996   0.066429570   0.500000000
C        0.055782849   0.133570640   0.500000000
C        0.277557670   0.066429573   0.500000000
C        0.222449521   0.133570641   0.500000000
C        0.444224328   0.066429570   0.500000000
C        0.389116184   0.133570637   0.500000000
C        0.610890991   0.066429568   0.500000000
C        0.555782843   0.133570636   0.500000000
C        0.777557651   0.066429567   0.500000000
C        0.722449506   0.133570637   0.500000000
C        0.944224323   0.066429568   0.500000000
C        0.889116178   0.133570641   0.500000000
C        0.110884886   0.266427637   0.500000000
C        0.055777600   0.333573892   0.500000000
C        0.277551559   0.266427639   0.500000000
C        0.222444269   0.333573891   0.500000000
C        0.444218220   0.266427636   0.500000000
C        0.389110933   0.333573889   0.500000000
C        0.610884877   0.266427630   0.500000000
C        0.555777595   0.333573884   0.500000000
C        0.777551541   0.266427633   0.500000000
C        0.722444253   0.333573883   0.500000000
C        0.944218213   0.266427637   0.500000000
C        0.889110926   0.333573889   0.500000000
C        0.110887531   0.466431490   0.500000000
C        0.055779143   0.533568515   0.500000000
C        0.277554199   0.466431490   0.500000000
C        0.222445818   0.533568520   0.500000000
C        0.444220859   0.466431486   0.500000000
C        0.389112481   0.533568519   0.500000000
C        0.610887519   0.466431481   0.500000000
C        0.555779141   0.533568514   0.500000000
C        0.777554182   0.466431480   0.500000000
C        0.722445801   0.533568510   0.500000000
C        0.944220857   0.466431485   0.500000000
C        0.889112469   0.533568510   0.500000000
C        0.110889074   0.666426111   0.500000000
C        0.055781787   0.733572363   0.500000000
C        0.277555747   0.666426117   0.500000000
C        0.222448459   0.733572367   0.500000000
C        0.444222405   0.666426116   0.500000000
C        0.389115123   0.733572370   0.500000000
C        0.610889067   0.666426111   0.500000000
C        0.555781780   0.733572364   0.500000000
C        0.777555731   0.666426109   0.500000000
C        0.722448441   0.733572361   0.500000000
C        0.944222400   0.666426108   0.500000000
C        0.889115114   0.733572363   0.500000000
C        0.110883822   0.866429359   0.500000000
C        0.055775677   0.933570432   0.500000000
C        0.277550494   0.866429363   0.500000000
C        0.222442349   0.933570433   0.500000000
C        0.444217157   0.866429364   0.500000000
C        0.389109009   0.933570432   0.500000000
C        0.610883816   0.866429363   0.500000000
C        0.555775672   0.933570430   0.500000000
C        0.777550479   0.866429359   0.500000000
C        0.722442330   0.933570427   0.500000000
C        0.944217151   0.866429360   0.500000000
C        0.889109004   0.933570430   0.500000000



     Writing output data file graphene.save
     Check: negative starting charge=   -0.002532
     NEW-OLD atomic charge density approx. for the potential
     Check: negative starting charge=   -0.002532

     total cpu time spent up to now is       57.4 secs

     Self-consistent Calculation

     iteration #  1     ecut=    40.00 Ry     beta=0.70
     Davidson diagonalization with overlap
     ethr =  1.00E-06,  avg # of iterations =  2.0

     Threshold (ethr) on eigenvalues was too large:
     Diagonalizing with lowered threshold

     Davidson diagonalization with overlap
     ethr =  1.31E-12,  avg # of iterations =  5.0

     total cpu time spent up to now is       59.8 secs

     total energy              =    -683.76235773 Ry
     Harris-Foulkes estimate   =    -683.76235773 Ry
     estimated scf accuracy    <       0.00000001 Ry

     iteration #  2     ecut=    40.00 Ry     beta=0.70
     Davidson diagonalization with overlap
     ethr =  5.67E-12,  avg # of iterations =  4.0

     total cpu time spent up to now is       61.0 secs

     total energy              =    -683.76235773 Ry
     Harris-Foulkes estimate   =    -683.76235773 Ry
     estimated scf accuracy    <       0.00000002 Ry

     iteration #  3     ecut=    40.00 Ry     beta=0.70
     Davidson diagonalization with overlap
     ethr =  5.67E-12,  avg # of iterations =  4.0

     total cpu time spent up to now is       62.1 secs

     total energy              =    -683.76235773 Ry
     Harris-Foulkes estimate   =    -683.76235773 Ry
     estimated scf accuracy    <          5.7E-09 Ry

     iteration #  4     ecut=    40.00 Ry     beta=0.70
     Davidson diagonalization with overlap
     ethr =  2.39E-12,  avg # of iterations =  4.0

     total cpu time spent up to now is       63.1 secs

     total energy              =    -683.76235773 Ry
     Harris-Foulkes estimate   =    -683.76235773 Ry
     estimated scf accuracy    <          1.7E-09 Ry

     iteration #  5     ecut=    40.00 Ry     beta=0.70
     Davidson diagonalization with overlap
     ethr =  7.13E-13,  avg # of iterations =  3.0

     total cpu time spent up to now is       64.0 secs

[...]
     atom   41 type  1   force =     0.00001231   -0.00001774    0.00000000
     atom   42 type  1   force =     0.00003041    0.00000938    0.00000000
     atom   43 type  1   force =     0.00001223   -0.00001770   -0.00000000
     atom   44 type  1   force =     0.00003053    0.00000942    0.00000000
     atom   45 type  1   force =     0.00001230   -0.00001762    0.00000000
     atom   46 type  1   force =     0.00003062    0.00000948    0.00000000
     atom   47 type  1   force =     0.00001235   -0.00001763    0.00000000
     atom   48 type  1   force =     0.00003045    0.00000939    0.00000000
     atom   49 type  1   force =    -0.00004110   -0.00001801    0.00000000
     atom   50 type  1   force =    -0.00001873    0.00001401   -0.00000000
     atom   51 type  1   force =    -0.00004124   -0.00001810    0.00000000
     atom   52 type  1   force =    -0.00001876    0.00001402    0.00000000
     atom   53 type  1   force =    -0.00004123   -0.00001814    0.00000000
     atom   54 type  1   force =    -0.00001864    0.00001407    0.00000000
     atom   55 type  1   force =    -0.00004124   -0.00001823   -0.00000000
     atom   56 type  1   force =    -0.00001872    0.00001412    0.00000000
     atom   57 type  1   force =    -0.00004116   -0.00001803    0.00000000
     atom   58 type  1   force =    -0.00001864    0.00001414    0.00000000
     atom   59 type  1   force =    -0.00004115   -0.00001803    0.00000000
     atom   60 type  1   force =    -0.00001882    0.00001398   -0.00000000

     Total force =     0.000231     Total SCF correction =     0.000003

     number of scf cycles    =   6
     number of bfgs steps    =   3

     energy   old            =    -683.7623576696 Ry
     energy   new            =    -683.7623577306 Ry

     CASE: energy  _new < energy  _old

     Message from routine bfgs:
     history already reset at previous step: stopping
     small trust_radius: resetting bfgs history

     new trust radius        =       0.0000450890 bohr
     new conv_thr            =            1.0E-12 Ry


ATOMIC_POSITIONS (crystal)
C        0.110891386   0.066428894   0.500000000
C        0.055784719   0.133571512   0.500000000
C        0.277558050   0.066428890   0.500000000
C        0.222451391   0.133571513   0.500000000
C        0.444224712   0.066428888   0.500000000
C        0.389118060   0.133571518   0.500000000
C        0.610891373   0.066428888   0.500000000
C        0.555784718   0.133571513   0.500000000
C        0.777558038   0.066428889   0.500000000
C        0.722451380   0.133571512   0.500000000
C        0.944224709   0.066428891   0.500000000
C        0.889118045   0.133571512   0.500000000
C        0.110883585   0.266427183   0.500000000
C        0.055777521   0.333574744   0.500000000
C        0.277550250   0.266427181   0.500000000
C        0.222444192   0.333574743   0.500000000
C        0.444216916   0.266427180   0.500000000
C        0.389110860   0.333574744   0.500000000
C        0.610883578   0.266427177   0.500000000
C        0.555777520   0.333574742   0.500000000
C        0.777550245   0.266427182   0.500000000
C        0.722444183   0.333574740   0.500000000
C        0.944216916   0.266427185   0.500000000
C        0.889110851   0.333574742   0.500000000
C        0.110886737   0.466430754   0.500000000
C        0.055779938   0.533569249   0.500000000
C        0.277553405   0.466430752   0.500000000
C        0.222446608   0.533569254   0.500000000
C        0.444220067   0.466430751   0.500000000
C        0.389113274   0.533569253   0.500000000
C        0.610886726   0.466430747   0.500000000
C        0.555779933   0.533569249   0.500000000
C        0.777553392   0.466430746   0.500000000
C        0.722446595   0.533569248   0.500000000
C        0.944220062   0.466430751   0.500000000
C        0.889113263   0.533569246   0.500000000
C        0.110889149   0.666425258   0.500000000
C        0.055783084   0.733572815   0.500000000
C        0.277555817   0.666425260   0.500000000
C        0.222449755   0.733572818   0.500000000
C        0.444222480   0.666425258   0.500000000
C        0.389116422   0.733572823   0.500000000
C        0.610889140   0.666425256   0.500000000
C        0.555783084   0.733572820   0.500000000
C        0.777555808   0.666425257   0.500000000
C        0.722449750   0.733572819   0.500000000
C        0.944222479   0.666425256   0.500000000
C        0.889116415   0.733572817   0.500000000
C        0.110881955   0.866428488   0.500000000
C        0.055775291   0.933571109   0.500000000
C        0.277548620   0.866428488   0.500000000
C        0.222441962   0.933571111   0.500000000
C        0.444215282   0.866428487   0.500000000
C        0.389108627   0.933571112   0.500000000
C        0.610881940   0.866428482   0.500000000
C        0.555775288   0.933571112   0.500000000
C        0.777548609   0.866428487   0.500000000
C        0.722441950   0.933571110   0.500000000
C        0.944215281   0.866428488   0.500000000
C        0.889108614   0.933571106   0.500000000



     Writing output data file graphene.save
     Check: negative starting charge=   -0.002532
     NEW-OLD atomic charge density approx. for the potential
     Check: negative starting charge=   -0.002532

     total cpu time spent up to now is       66.2 secs

     Self-consistent Calculation

     iteration #  1     ecut=    40.00 Ry     beta=0.70
     Davidson diagonalization with overlap
     ethr =  1.00E-06,  avg # of iterations =  2.0

     Threshold (ethr) on eigenvalues was too large:
     Diagonalizing with lowered threshold

     Davidson diagonalization with overlap
     ethr =  7.95E-13,  avg # of iterations =  5.0

     total cpu time spent up to now is       68.5 secs

     total energy              =    -683.76235776 Ry
     Harris-Foulkes estimate   =    -683.76235776 Ry
     estimated scf accuracy    <          7.9E-09 Ry

     iteration #  2     ecut=    40.00 Ry     beta=0.70
     Davidson diagonalization with overlap
     ethr =  3.31E-12,  avg # of iterations =  4.0

     total cpu time spent up to now is       69.6 secs

     total energy              =    -683.76235776 Ry
     Harris-Foulkes estimate   =    -683.76235776 Ry
     estimated scf accuracy    <          5.6E-09 Ry

     iteration #  3     ecut=    40.00 Ry     beta=0.70
     Davidson diagonalization with overlap
     ethr =  2.33E-12,  avg # of iterations =  4.0

     total cpu time spent up to now is       70.7 secs

     total energy              =    -683.76235776 Ry
     Harris-Foulkes estimate   =    -683.76235776 Ry
     estimated scf accuracy    <          6.4E-09 Ry

     iteration #  4     ecut=    40.00 Ry     beta=0.70
     Davidson diagonalization with overlap
     ethr =  2.33E-12,  avg # of iterations =  3.0

     total cpu time spent up to now is       71.5 secs

     total energy              =    -683.76235776 Ry
     Harris-Foulkes estimate   =    -683.76235776 Ry
     estimated scf accuracy    <          2.5E-11 Ry

     iteration #  5     ecut=    40.00 Ry     beta=0.70
     Davidson diagonalization with overlap
     ethr =  1.00E-13,  avg # of iterations =  3.0

     total cpu time spent up to now is       72.4 secs

     total energy              =    -683.76235776 Ry
     Harris-Foulkes estimate   =    -683.76235776 Ry
     estimated scf accuracy    <          4.2E-11 Ry

     iteration #  6     ecut=    40.00 Ry     beta=0.70
     Davidson diagonalization with overlap
     ethr =  1.00E-13,  avg # of iterations =  1.0

     total cpu time spent up to now is       73.1 secs

     total energy              =    -683.76235776 Ry
     Harris-Foulkes estimate   =    -683.76235776 Ry
     estimated scf accuracy    <          1.3E-11 Ry

     iteration #  7     ecut=    40.00 Ry     beta=0.70
     Davidson diagonalization with overlap
     ethr =  1.00E-13,  avg # of iterations =  1.0

     total cpu time spent up to now is       73.7 secs

     End of self-consistent calculation

          k = 0.0000 0.0000 0.0000 ( 46005 PWs)   bands (ev):

   -20.3552 -19.6792 -19.6792 -19.5607 -19.5607 -19.4590 -19.4590 -18.3277
   -18.3277 -18.0329 -18.0329 -17.6934 -17.6934 -17.6853 -17.6853 -17.2362
   -17.2362 -16.8708 -16.8707 -15.8455 -15.8455 -15.5678 -15.5678 -15.4040
   -15.4040 -15.1527 -15.1527 -14.7994 -14.6697 -14.6697 -14.1158 -13.5929
   -13.5929 -13.3353 -13.3352 -12.6787 -12.6787 -12.3984 -12.3983 -12.3384
   -12.3384 -11.8898 -11.8894 -11.2636 -11.2636 -10.8478 -10.8478 -10.3056
   -10.3056 -10.0723 -10.0723  -9.9050  -9.9050  -9.5936  -9.5930  -9.5248
    -9.5248  -9.0180  -9.0180  -8.7928  -8.7928  -8.4409  -8.0906  -8.0906
    -7.9966  -7.9966  -7.8054  -7.6406  -7.6406  -7.6270  -7.6270  -7.5024
    -7.5024  -7.3865  -7.3863  -7.3651  -7.3651  -7.3634  -7.3628  -7.1334
    -7.1334  -7.1046  -7.1046  -6.7154  -6.7153  -6.6612  -6.6612  -6.0773
    -6.0773  -6.0656  -6.0656  -5.7428  -5.7428  -5.4709  -5.4709  -5.4235
    -5.4235  -5.3623  -5.3623  -5.3608  -5.3608  -5.2070  -5.2066  -4.8876
    -4.8876  -4.5682  -4.5682  -4.2428  -3.8722  -3.3858  -3.3855  -3.3538
    -3.3537  -2.9876  -2.9876  -2.9783  -2.9477  -2.9477  -2.1638  -2.1638
     0.2177   0.2177   0.5986   0.5986   0.7544   1.0598   1.0598   1.0763
     1.0763   1.6338   1.6340   2.0855   2.0855   2.7018   3.0220   3.0220
     3.6161   3.6161   3.7762   3.7762   3.8056   3.8056   4.0248   4.0249

     the Fermi energy is    -1.3382 ev

!    total energy              =    -683.76235776 Ry
     Harris-Foulkes estimate   =    -683.76235776 Ry
     estimated scf accuracy    <          3.4E-13 Ry

     The total energy is the sum of the following terms:

     one-electron contribution =   -2681.71617283 Ry
     hartree contribution      =    1388.37203648 Ry
     xc contribution           =    -208.90979023 Ry
     ewald contribution        =     818.96854548 Ry
     Dispersion Correction     =      -0.24288876 Ry
     smearing contrib. (-TS)   =      -0.23408790 Ry

     convergence has been achieved in   7 iterations

     Forces acting on atoms (Ry/au):

     atom    1 type  1   force =     0.00003247    0.00001638    0.00000000
     atom    2 type  1   force =     0.00000740   -0.00001276    0.00000000
     atom    3 type  1   force =     0.00003261    0.00001650    0.00000000
     atom    4 type  1   force =     0.00000732   -0.00001276    0.00000000
     atom    5 type  1   force =     0.00003265    0.00001654    0.00000000
     atom    6 type  1   force =     0.00000723   -0.00001292    0.00000000
     atom    7 type  1   force =     0.00003273    0.00001654    0.00000000
     atom    8 type  1   force =     0.00000737   -0.00001283    0.00000000
     atom    9 type  1   force =     0.00003268    0.00001651    0.00000000
     atom   10 type  1   force =     0.00000741   -0.00001275    0.00000000
     atom   11 type  1   force =     0.00003263    0.00001645    0.00000000
     atom   12 type  1   force =     0.00000749   -0.00001272   -0.00000000
     atom   13 type  1   force =    -0.00000049    0.00001638    0.00000000
     atom   14 type  1   force =    -0.00002908   -0.00001169   -0.00000000
     atom   15 type  1   force =    -0.00000037    0.00001642    0.00000000
     atom   16 type  1   force =    -0.00002922   -0.00001172    0.00000000
     atom   17 type  1   force =    -0.00000041    0.00001646    0.00000000
     atom   18 type  1   force =    -0.00002930   -0.00001175    0.00000000
     atom   19 type  1   force =    -0.00000044    0.00001648    0.00000000
     atom   20 type  1   force =    -0.00002911   -0.00001172    0.00000000
     atom   21 type  1   force =    -0.00000039    0.00001638    0.00000000
     atom   22 type  1   force =    -0.00002913   -0.00001168    0.00000000
     atom   23 type  1   force =    -0.00000048    0.00001635    0.00000000
     atom   24 type  1   force =    -0.00002913   -0.00001169   -0.00000000
     atom   25 type  1   force =     0.00001067    0.00001692    0.00000000
     atom   26 type  1   force =    -0.00001079   -0.00001698    0.00000000
     atom   27 type  1   force =     0.00001059    0.00001696    0.00000000
     atom   28 type  1   force =    -0.00001073   -0.00001705    0.00000000
     atom   29 type  1   force =     0.00001069    0.00001697    0.00000000
     atom   30 type  1   force =    -0.00001076   -0.00001705   -0.00000000
     atom   31 type  1   force =     0.00001076    0.00001705   -0.00000000
     atom   32 type  1   force =    -0.00001069   -0.00001697    0.00000000
     atom   33 type  1   force =     0.00001073    0.00001705    0.00000000
     atom   34 type  1   force =    -0.00001059   -0.00001696    0.00000000
     atom   35 type  1   force =     0.00001079    0.00001698    0.00000000
     atom   36 type  1   force =    -0.00001067   -0.00001692    0.00000000
     atom   37 type  1   force =     0.00002913    0.00001169   -0.00000000
     atom   38 type  1   force =     0.00000048   -0.00001635    0.00000000
     atom   39 type  1   force =     0.00002913    0.00001168   -0.00000000
     atom   40 type  1   force =     0.00000039   -0.00001638    0.00000000
     atom   41 type  1   force =     0.00002911    0.00001172    0.00000000
     atom   42 type  1   force =     0.00000044   -0.00001648    0.00000000
     atom   43 type  1   force =     0.00002930    0.00001175   -0.00000000
     atom   44 type  1   force =     0.00000041   -0.00001646   -0.00000000
     atom   45 type  1   force =     0.00002922    0.00001172    0.00000000
     atom   46 type  1   force =     0.00000037   -0.00001642    0.00000000
     atom   47 type  1   force =     0.00002908    0.00001169   -0.00000000
     atom   48 type  1   force =     0.00000049   -0.00001638    0.00000000
     atom   49 type  1   force =    -0.00000749    0.00001272   -0.00000000
     atom   50 type  1   force =    -0.00003263   -0.00001645   -0.00000000
     atom   51 type  1   force =    -0.00000741    0.00001275    0.00000000
     atom   52 type  1   force =    -0.00003268   -0.00001651    0.00000000
     atom   53 type  1   force =    -0.00000737    0.00001283    0.00000000
     atom   54 type  1   force =    -0.00003273   -0.00001654    0.00000000
     atom   55 type  1   force =    -0.00000723    0.00001292    0.00000000
     atom   56 type  1   force =    -0.00003265   -0.00001654    0.00000000
     atom   57 type  1   force =    -0.00000732    0.00001276    0.00000000
     atom   58 type  1   force =    -0.00003261   -0.00001650    0.00000000
     atom   59 type  1   force =    -0.00000740    0.00001276    0.00000000
     atom   60 type  1   force =    -0.00003247   -0.00001638    0.00000000

     Total force =     0.000196     Total SCF correction =     0.000001

     bfgs converged in   7 scf cycles and   4 bfgs steps
     (criteria: energy <  1.0E-06, force <  1.0E-05)

     End of BFGS Geometry Optimization

     Final energy   =    -683.7623577577 Ry
Begin final coordinates

ATOMIC_POSITIONS (crystal)
C        0.110891386   0.066428894   0.500000000
C        0.055784719   0.133571512   0.500000000
C        0.277558050   0.066428890   0.500000000
C        0.222451391   0.133571513   0.500000000
C        0.444224712   0.066428888   0.500000000
C        0.389118060   0.133571518   0.500000000
C        0.610891373   0.066428888   0.500000000
C        0.555784718   0.133571513   0.500000000
C        0.777558038   0.066428889   0.500000000
C        0.722451380   0.133571512   0.500000000
C        0.944224709   0.066428891   0.500000000
C        0.889118045   0.133571512   0.500000000
C        0.110883585   0.266427183   0.500000000
C        0.055777521   0.333574744   0.500000000
C        0.277550250   0.266427181   0.500000000
C        0.222444192   0.333574743   0.500000000
C        0.444216916   0.266427180   0.500000000
C        0.389110860   0.333574744   0.500000000
C        0.610883578   0.266427177   0.500000000
C        0.555777520   0.333574742   0.500000000
C        0.777550245   0.266427182   0.500000000
C        0.722444183   0.333574740   0.500000000
C        0.944216916   0.266427185   0.500000000
C        0.889110851   0.333574742   0.500000000
C        0.110886737   0.466430754   0.500000000
C        0.055779938   0.533569249   0.500000000
C        0.277553405   0.466430752   0.500000000
C        0.222446608   0.533569254   0.500000000
C        0.444220067   0.466430751   0.500000000
C        0.389113274   0.533569253   0.500000000
C        0.610886726   0.466430747   0.500000000
C        0.555779933   0.533569249   0.500000000
C        0.777553392   0.466430746   0.500000000
C        0.722446595   0.533569248   0.500000000
C        0.944220062   0.466430751   0.500000000
C        0.889113263   0.533569246   0.500000000
C        0.110889149   0.666425258   0.500000000
C        0.055783084   0.733572815   0.500000000
C        0.277555817   0.666425260   0.500000000
C        0.222449755   0.733572818   0.500000000
C        0.444222480   0.666425258   0.500000000
C        0.389116422   0.733572823   0.500000000
C        0.610889140   0.666425256   0.500000000
C        0.555783084   0.733572820   0.500000000
C        0.777555808   0.666425257   0.500000000
C        0.722449750   0.733572819   0.500000000
C        0.944222479   0.666425256   0.500000000
C        0.889116415   0.733572817   0.500000000
C        0.110881955   0.866428488   0.500000000
C        0.055775291   0.933571109   0.500000000
C        0.277548620   0.866428488   0.500000000
C        0.222441962   0.933571111   0.500000000
C        0.444215282   0.866428487   0.500000000
C        0.389108627   0.933571112   0.500000000
C        0.610881940   0.866428482   0.500000000
C        0.555775288   0.933571112   0.500000000
C        0.777548609   0.866428487   0.500000000
C        0.722441950   0.933571110   0.500000000
C        0.944215281   0.866428488   0.500000000
C        0.889108614   0.933571106   0.500000000
End final coordinates



     Writing output data file graphene.save
 
     init_run     :      2.61s CPU      4.13s WALL (       1 calls)
     electrons    :     62.13s CPU     66.30s WALL (       7 calls)
     update_pot   :      0.77s CPU      0.98s WALL (       6 calls)
     forces       :      0.60s CPU      0.62s WALL (       7 calls)

     Called by init_run:
     wfcinit      :      0.98s CPU      1.47s WALL (       1 calls)
     potinit      :      0.08s CPU      0.09s WALL (       1 calls)

     Called by electrons:
     c_bands      :     53.47s CPU     57.33s WALL (      63 calls)
     sum_band     :      5.94s CPU      6.02s WALL (      63 calls)
     v_of_rho     :      1.73s CPU      1.76s WALL (      66 calls)
     mix_rho      :      0.34s CPU      0.35s WALL (      63 calls)

     Called by c_bands:
     init_us_2    :      0.02s CPU      0.03s WALL (     127 calls)
     cegterg      :     53.42s CPU     57.27s WALL (      63 calls)

     Called by sum_band:

     Called by *egterg:
     h_psi        :     26.76s CPU     27.05s WALL (     271 calls)
     g_psi        :      0.07s CPU      0.06s WALL (     207 calls)
     cdiaghg      :     19.77s CPU     22.98s WALL (     260 calls)

     Called by h_psi:
     add_vuspsi   :      0.24s CPU      0.26s WALL (     271 calls)

     General routines
     calbec       :      0.52s CPU      0.63s WALL (     299 calls)
     fft          :      2.70s CPU      2.86s WALL (     928 calls)
     ffts         :      0.16s CPU      0.17s WALL (     129 calls)
     fftw         :     30.16s CPU     30.34s WALL (   56588 calls)
     interpolate  :      0.51s CPU      0.54s WALL (     129 calls)
     davcio       :      0.00s CPU      0.04s WALL (       7 calls)
 
     Parallel routines
     fft_scatter  :     26.10s CPU     26.22s WALL (   57645 calls)
 
     PWSCF        :  1m 6.81s CPU     1m14.06s WALL

 
   This run was terminated on:  17:36:20   8Nov2016            

=------------------------------------------------------------------------------=
   JOB DONE.
=------------------------------------------------------------------------------=
