mpirun: INFO: switching to OpenMPI runtime version 1.10.2

     Program PWSCF v.5.4.0 starts on 12Sep2017 at 11:19: 6 

     This program is part of the open-source Quantum ESPRESSO suite
     for quantum simulation of materials; please cite
         "P. Giannozzi et al., J. Phys.:Condens. Matter 21 395502 (2009);
          URL http://www.quantum-espresso.org", 
     in publications or presentations arising from this work. More details at
     http://www.quantum-espresso.org/quote

     Parallel version (MPI & OpenMP), running on      28 processor cores
     Number of MPI processes:                28
     Threads/MPI process:                     1
     R & G space division:  proc/nbgrp/npool/nimage =      28
     Waiting for input...
     Reading input from standard input

     Current dimensions of program PWSCF are:
     Max number of different atomic species (ntypx) = 10
     Max number of k-points (npk) =  40000
     Max angular momentum in pseudopotentials (lmaxx) =  3
     WARNING: atomic wfc #  2 for atom type 4 has zero norm
     WARNING: atomic wfc #  4 for atom type 4 has zero norm
     WARNING: atomic wfc #  5 for atom type 4 has zero norm

     -------------------------------------
     Parameters for Dispersion Correction:
     -------------------------------------
       atom      VdW radius       C_6     

        Cu         2.952        374.666
        C_h        2.744         60.710
        C          2.744         60.710
        O          2.536         24.284

     Subspace diagonalization in iterative solution of the eigenvalue problem:
     one sub-group per band group will be used
     scalapack distributed-memory algorithm (size of sub-group:  3*  3 procs)

 
     Parallelization info
     --------------------
     sticks:   dense  smooth     PW     G-vecs:    dense   smooth      PW
     Min         408     408    108                73226    73226    9928
     Max         410     410    109                73231    73231    9931
     Sum       11433   11433   3039              2050409  2050409  278033
 


     bravais-lattice index     =            0
     lattice parameter (alat)  =      13.9425  a.u.
     unit-cell volume          =   21209.0878 (a.u.)^3
     number of atoms/cell      =          151
     number of atomic types    =            4
     number of electrons       =      1308.00
     number of Kohn-Sham states=          785
     kinetic-energy cutoff     =      80.0000  Ry
     charge density cutoff     =     320.0000  Ry
     convergence threshold     =      1.0E-08
     mixing beta               =       0.7000
     number of iterations used =            8  local-TF  mixing
     Exchange-correlation      =  SLA  PW   PBX  PBC ( 1  4  3  4 0 0)
     nstep                     =           50


     celldm(1)=  13.942539  celldm(2)=   0.000000  celldm(3)=   0.000000
     celldm(4)=   0.000000  celldm(5)=   0.000000  celldm(6)=   0.000000

     crystal axes: (cart. coord. in units of alat)
               a(1) = (   1.000000   0.000000   0.000000 )  
               a(2) = (   0.000000   2.309401   0.000000 )  
               a(3) = (   0.000000   0.000000   3.388418 )  

     reciprocal axes: (cart. coord. in units 2 pi/alat)
               b(1) = (  1.000000  0.000000  0.000000 )  
               b(2) = (  0.000000  0.433013  0.000000 )  
               b(3) = (  0.000000  0.000000  0.295123 )  


     PseudoPot. # 1 for Cu read from file:
     /home/549/hxw549/Short/pseudopotentials/Cu.pbe-n-van_ak.UPF
     MD5 check sum: 601f7c30f7467666bec936e0661ce3e1
     Pseudo is Ultrasoft + core correction, Zval = 11.0
     Generated by new atomic code, or converted to UPF format
     Using radial grid of  867 points,  6 beta functions with: 
                l(1) =   0
                l(2) =   0
                l(3) =   1
                l(4) =   1
                l(5) =   2
                l(6) =   2
     Q(r) pseudized with  8 coefficients,  rinner =    1.400   1.400   1.400
                                                       1.400   1.400

     PseudoPot. # 2 for C  read from file:
     /home/549/hxw549/Short/pseudopotentials/C.star1s-pbe-mt_gipaw.UPF
     MD5 check sum: ef0cb3dee31bd9e4ba2a832a2c716264
     Pseudo is Norm-conserving, Zval =  5.0
     Generated by new atomic code, or converted to UPF format
     Using radial grid of 1073 points,  1 beta functions with: 
                l(1) =   0

     PseudoPot. # 3 for C  read from file:
     /home/549/hxw549/Short/pseudopotentials/C.pbe-mt_gipaw.UPF
     MD5 check sum: 5ac2f21f2c440b14befe521540822c15
     Pseudo is Norm-conserving, Zval =  4.0
     Generated by new atomic code, or converted to UPF format
     Using radial grid of 1073 points,  1 beta functions with: 
                l(1) =   0

     PseudoPot. # 4 for O  read from file:
     /home/549/hxw549/Short/pseudopotentials/O.pbe-van_gipaw.UPF
     MD5 check sum: 5ce2a047509d4f331db576c963e74b29
     Pseudo is Ultrasoft, Zval =  6.0
     Generated by new atomic code, or converted to UPF format
     Using radial grid of 1095 points,  4 beta functions with: 
                l(1) =   0
                l(2) =   0
                l(3) =   1
                l(4) =   1
     Q(r) pseudized with 0 coefficients 


     atomic species   valence    mass     pseudopotential
        Cu            11.00    63.54600     Cu( 1.00)
        C_h            5.00    12.01070     C ( 1.00)
        C              4.00    12.01070     C ( 1.00)
        O              6.00    15.99940     O ( 1.00)

     No symmetry found



   Cartesian axes

     site n.     atom                  positions (alat units)
         1           Cu  tau(   1) = (   0.0005942  -0.0038463   0.9930871  )
         2           Cu  tau(   2) = (   0.2511630   0.2244508   0.9942371  )
         3           Cu  tau(   3) = (   0.5007811  -0.0044706   0.9933156  )
         4           Cu  tau(   4) = (   0.7505207   0.2245418   0.9940835  )
         5           Cu  tau(   5) = (   0.0008481   0.4562049   0.9956409  )
         6           Cu  tau(   6) = (   0.2506786   0.6900795   0.9976618  )
         7           Cu  tau(   7) = (   0.5008632   0.4564016   0.9956302  )
         8           Cu  tau(   8) = (   0.7509606   0.6899328   0.9972468  )
         9           Cu  tau(   9) = (   0.0010626   0.9239011   0.9978053  )
        10           Cu  tau(  10) = (   0.2506086   1.1579934   0.9970288  )
        11           Cu  tau(  11) = (   0.5007037   0.9239065   0.9982690  )
        12           Cu  tau(  12) = (   0.7509822   1.1580641   0.9967192  )
        13           Cu  tau(  13) = (   0.0007618   1.3923352   0.9946266  )
        14           Cu  tau(  14) = (   0.2511320   1.6244682   0.9931181  )
        15           Cu  tau(  15) = (   0.5008944   1.3922557   0.9946286  )
        16           Cu  tau(  16) = (   0.7504689   1.6245618   0.9928784  )
        17           Cu  tau(  17) = (   0.0006403   1.8529676   0.9923519  )
        18           Cu  tau(  18) = (   0.2502663   2.0793525   0.9921530  )
        19           Cu  tau(  19) = (   0.5006837   1.8534625   0.9923857  )
        20           Cu  tau(  20) = (   0.7509333   2.0791621   0.9926036  )
        21           Cu  tau(  21) = (   0.0008436   0.2226903   1.2439799  )
        22           Cu  tau(  22) = (   0.2508004  -0.0053476   1.2453895  )
        23           Cu  tau(  23) = (   0.5008992   0.2231066   1.2437588  )
        24           Cu  tau(  24) = (   0.7506478  -0.0047299   1.2459640  )
        25           Cu  tau(  25) = (   0.0008489   0.6881471   1.2427947  )
        26           Cu  tau(  26) = (   0.2509174   0.4537933   1.2424126  )
        27           Cu  tau(  27) = (   0.5014493   0.6879078   1.2426873  )
        28           Cu  tau(  28) = (   0.7510800   0.4540268   1.2428095  )
        29           Cu  tau(  29) = (   0.0008866   1.1607300   1.2418123  )
        30           Cu  tau(  30) = (   0.2504606   0.9243917   1.2433168  )
        31           Cu  tau(  31) = (   0.5012960   1.1608479   1.2417939  )
        32           Cu  tau(  32) = (   0.7514211   0.9242728   1.2422531  )
        33           Cu  tau(  33) = (   0.0008238   1.6260289   1.2427661  )
        34           Cu  tau(  34) = (   0.2508668   1.3949963   1.2411065  )
        35           Cu  tau(  35) = (   0.5008273   1.6259522   1.2425316  )
        36           Cu  tau(  36) = (   0.7510233   1.3949321   1.2413170  )
        37           Cu  tau(  37) = (   0.0002797   2.0789654   1.2472520  )
        38           Cu  tau(  38) = (   0.2506780   1.8539880   1.2445803  )
        39           Cu  tau(  39) = (   0.5009511   2.0786742   1.2465668  )
        40           Cu  tau(  40) = (   0.7506849   1.8531565   1.2454973  )
        41           Cu  tau(  41) = (   0.0004902  -0.0048640   1.5012899  )
        42           Cu  tau(  42) = (   0.2509479   0.2213919   1.4948764  )
        43           Cu  tau(  43) = (   0.5008633  -0.0055096   1.4998236  )
        44           Cu  tau(  44) = (   0.7507049   0.2224039   1.4962002  )
        45           Cu  tau(  45) = (   0.0008858   0.4521035   1.4909719  )
        46           Cu  tau(  46) = (   0.2508978   0.6868072   1.4865842  )
        47           Cu  tau(  47) = (   0.5015522   0.4518694   1.4903810  )
        48           Cu  tau(  48) = (   0.7514726   0.6871259   1.4876615  )
        49           Cu  tau(  49) = (   0.0002500   0.9250368   1.4863019  )
        50           Cu  tau(  50) = (   0.2505897   1.1628075   1.4859838  )
        51           Cu  tau(  51) = (   0.5009744   0.9248361   1.4856989  )
        52           Cu  tau(  52) = (   0.7515423   1.1627813   1.4863707  )
        53           Cu  tau(  53) = (   0.0008363   1.3971227   1.4898823  )
        54           Cu  tau(  54) = (   0.2508389   1.6273910   1.4937434  )
        55           Cu  tau(  55) = (   0.5014752   1.3979066   1.4886943  )
        56           Cu  tau(  56) = (   0.7508714   1.6259248   1.4956944  )
        57           Cu  tau(  57) = (   0.0004376   1.8527965   1.5010687  )
        58           Cu  tau(  58) = (   0.2504027   2.0785939   1.5029371  )
        59           Cu  tau(  59) = (   0.5009858   1.8533152   1.5000881  )
        60           Cu  tau(  60) = (   0.7509970   2.0786638   1.5031194  )
        61           Cu  tau(  61) = (   0.0005135   0.2248349   1.7497996  )
        62           Cu  tau(  62) = (   0.2501688  -0.0032339   1.7566496  )
        63           Cu  tau(  63) = (   0.5014742   0.2227743   1.7482991  )
        64           Cu  tau(  64) = (   0.7513585  -0.0030754   1.7572858  )
        65           Cu  tau(  65) = (   0.0000215   0.6870712   1.7299070  )
        66           Cu  tau(  66) = (   0.2511009   0.4509547   1.7369529  )
        67           Cu  tau(  67) = (   0.5011158   0.6873251   1.7301161  )
        68           Cu  tau(  68) = (   0.7509595   0.4537932   1.7402830  )
        69           Cu  tau(  69) = (  -0.0003510   1.1635795   1.7301589  )
        70           Cu  tau(  70) = (   0.2492962   0.9254838   1.7262694  )
        71           Cu  tau(  71) = (   0.5010931   1.1645368   1.7281440  )
        72           Cu  tau(  72) = (   0.7500918   0.9261363   1.7284522  )
        73           Cu  tau(  73) = (   0.0004784   1.6236149   1.7503063  )
        74           Cu  tau(  74) = (   0.2505399   1.3989206   1.7362958  )
        75           Cu  tau(  75) = (   0.5017544   1.6243122   1.7491481  )
        76           Cu  tau(  76) = (   0.7514313   1.3951350   1.7410358  )
        77           Cu  tau(  77) = (   0.0004742   2.0783503   1.7607120  )
        78           Cu  tau(  78) = (   0.2504192   1.8508274   1.7564756  )
        79           Cu  tau(  79) = (   0.5010106   2.0787662   1.7584609  )
        80           Cu  tau(  80) = (   0.7513912   1.8507985   1.7573143  )
        81           Cu  tau(  81) = (   0.0008813   0.0026029   2.0105797  )
        82           Cu  tau(  82) = (   0.2519774   0.2322381   2.0016112  )
        83           Cu  tau(  83) = (   0.5009841  -0.0002499   2.0097966  )
        84           Cu  tau(  84) = (   0.7498649   0.2319461   2.0026418  )
        85           Cu  tau(  85) = (  -0.0012443   0.4602900   1.9907264  )
        86           Cu  tau(  86) = (   0.2447511   0.6860828   1.9647703  )
        87           Cu  tau(  87) = (   0.5020074   0.4610094   1.9864182  )
        88           Cu  tau(  88) = (   0.7551572   0.6927395   1.9742647  )
        89           Cu  tau(  89) = (   0.0001840   0.9258909   1.9694068  )
        90           Cu  tau(  90) = (   0.2448855   1.1650488   1.9657380  )
        91           Cu  tau(  91) = (   0.5029455   0.9323233   1.9496787  )
        92           Cu  tau(  92) = (   0.7546301   1.1577145   1.9787635  )
        93           Cu  tau(  93) = (  -0.0008328   1.3888834   1.9925616  )
        94           Cu  tau(  94) = (   0.2520653   1.6166694   2.0024762  )
        95           Cu  tau(  95) = (   0.5010134   1.3858075   1.9896408  )
        96           Cu  tau(  96) = (   0.7496504   1.6159218   2.0035855  )
        97           Cu  tau(  97) = (   0.0005533   1.8454381   2.0118807  )
        98           Cu  tau(  98) = (   0.2497981   2.0783156   2.0123703  )
        99           Cu  tau(  99) = (   0.5015435   1.8482404   2.0091037  )
       100           Cu  tau( 100) = (   0.7518512   2.0787787   2.0132458  )
       101           C   tau( 101) = (  -0.0003126   0.1006325   2.4740383  )
       102           C   tau( 102) = (  -0.0003775   0.2920325   2.5081418  )
       103           C   tau( 103) = (   0.1663980   0.0036286   2.4620667  )
       104           C   tau( 104) = (   0.1663498   0.3875619   2.5287554  )
       105           C   tau( 105) = (   0.3329568   0.1006649   2.4741495  )
       106           C   tau( 106) = (   0.3329888   0.2921582   2.5077789  )
       107           C   tau( 107) = (   0.4997204   0.0036301   2.4626464  )
       108           C   tau( 108) = (   0.4994819   0.3878807   2.5283181  )
       109           C   tau( 109) = (   0.6664286   0.1006943   2.4742667  )
       110           C   tau( 110) = (   0.6662607   0.2923989   2.5068094  )
       111           C   tau( 111) = (   0.8330134   0.0037573   2.4607979  )
       112           C   tau( 112) = (   0.8329291   0.3878381   2.5270081  )
       113           C   tau( 113) = (  -0.0004818   0.6734409   2.5851986  )
       114           C   tau( 114) = (  -0.0002469   0.8665147   2.6029464  )
       115           C   tau( 115) = (   0.1665021   0.5772827   2.5711435  )
       116           C   tau( 116) = (   0.1664542   0.9638089   2.6091331  )
       117           C   tau( 117) = (   0.3326642   0.6726237   2.5966217  )
       118           C   tau( 118) = (   0.3324550   0.8658708   2.6237839  )
       119           C   tau( 119) = (   0.4993534   0.5773360   2.5728227  )
       120           C   tau( 120) = (   0.4998971   0.9649202   2.6219659  )
       121           C   tau( 121) = (   0.6661760   0.6737708   2.5875107  )
       122           C   tau( 122) = (   0.6665804   0.8667296   2.6107608  )
       123           C   tau( 123) = (   0.8328401   0.5779267   2.5667895  )
       124           C   tau( 124) = (   0.8330747   0.9640677   2.6024886  )
       125           C   tau( 125) = (  -0.0000737   1.2522501   2.5628112  )
       126           C   tau( 126) = (  -0.0001253   1.4422912   2.5224834  )
       127           C   tau( 127) = (   0.1666321   1.1566227   2.5840568  )
       128           C   tau( 128) = (   0.1665763   1.5380253   2.5039308  )
       129           C   tau( 129) = (   0.3332648   1.2530529   2.5690923  )
       130           C   tau( 130) = (   0.3332880   1.4426743   2.5261218  )
       131           C   tau( 131) = (   0.4999030   1.1576825   2.5919202  )
       132           C   tau( 132) = (   0.4998036   1.5383355   2.5061839  )
       133           C   tau( 133) = (   0.6663241   1.2529384   2.5671493  )
       134           C   tau( 134) = (   0.6664542   1.4427271   2.5254651  )
       135           C   tau( 135) = (   0.8332378   1.1569421   2.5820745  )
       136           C   tau( 136) = (   0.8331711   1.5381531   2.5038020  )
       137           C   tau( 137) = (  -0.0001042   1.8267606   2.4581975  )
       138           C   tau( 138) = (  -0.0001516   2.0211056   2.4468364  )
       139           C   tau( 139) = (   0.1666301   1.7298093   2.4723584  )
       140           C   tau( 140) = (   0.1664718   2.1188427   2.4491755  )
       141           C   tau( 141) = (   0.3331974   1.8269638   2.4626428  )
       142           C   tau( 142) = (   0.3331985   2.0211166   2.4504279  )
       143           C   tau( 143) = (   0.4998554   1.7299413   2.4736692  )
       144           C   tau( 144) = (   0.4997837   2.1189131   2.4508552  )
       145           C   tau( 145) = (   0.6664794   1.8269319   2.4609715  )
       146           C   tau( 146) = (   0.6664253   2.0211530   2.4491533  )
       147           C   tau( 147) = (   0.8330798   1.7297223   2.4708304  )
       148           C   tau( 148) = (   0.8330937   2.1189094   2.4468884  )
       149           C   tau( 149) = (   0.3968788   0.8859315   2.3372669  )
       150           O   tau( 150) = (   0.5039678   0.9921025   2.3373430  )
       151           O   tau( 151) = (   0.2871091   0.7752437   2.3373430  )

     number of k points=     6  gaussian smearing, width (Ry)=  0.1000
                       cart. coord. in units 2pi/alat
        k(    1) = (   0.0000000   0.0000000   0.0000000), wk =   0.2500000
        k(    2) = (   0.0000000  -0.2165064   0.0000000), wk =   0.2500000
        k(    3) = (   0.2500000   0.0000000   0.0000000), wk =   0.5000000
        k(    4) = (   0.2500000  -0.2165064   0.0000000), wk =   0.5000000
        k(    5) = (  -0.5000000   0.0000000   0.0000000), wk =   0.2500000
        k(    6) = (  -0.5000000  -0.2165064   0.0000000), wk =   0.2500000

     Dense  grid:  2050409 G-vectors     FFT dimensions: (  80, 192, 270)

     Largest allocated arrays     est. size (Mb)     dimensions
        Kohn-Sham Wavefunctions       109.85 Mb     (    9171,  785)
        NL pseudopotentials           260.99 Mb     (    9171, 1865)
        Each V/rho on FFT grid          2.34 Mb     (  153600)
        Each G-vector array             0.56 Mb     (   73230)
        G-vector shells                 0.27 Mb     (   35784)
     Largest temporary arrays     est. size (Mb)     dimensions
        Auxiliary wavefunctions       439.41 Mb     (    9171, 3140)
        Each subspace H/S matrix       16.69 Mb     (    1046, 1046)
        Each <psi_i|beta_j> matrix     22.34 Mb     (    1865,  785)
        Arrays for rho mixing          18.75 Mb     (  153600,    8)

     Initial potential from superposition of free atoms
     Check: negative starting charge=   -0.001463

     starting charge 1282.31751, renormalised to 1308.00000

     negative rho (up, down):  1.492E-03 0.000E+00
     Starting wfc are 1300 randomized atomic wfcs

     total cpu time spent up to now is      205.6 secs

     Self-consistent Calculation

     iteration #  1     ecut=    80.00 Ry     beta=0.70
     Davidson diagonalization with overlap
     c_bands:  5 eigenvalues not converged
     c_bands:  3 eigenvalues not converged
     c_bands:  4 eigenvalues not converged
     c_bands:  1 eigenvalues not converged
     ethr =  1.00E-04,  avg # of iterations = 42.8

     negative rho (up, down):  2.629E+01 0.000E+00

     total cpu time spent up to now is     4745.3 secs

     total energy              =   -9850.12050354 Ry
     Harris-Foulkes estimate   =  -18117.34153569 Ry
     estimated scf accuracy    <  211682.00417411 Ry

     iteration #  2     ecut=    80.00 Ry     beta=0.70
     Davidson diagonalization with overlap
     ethr =  1.00E-02,  avg # of iterations = 15.8

     negative rho (up, down):  3.273E+01 0.000E+00

     total cpu time spent up to now is     6826.1 secs

     total energy              =  -12136.89277384 Ry
     Harris-Foulkes estimate   =  -13794.96865666 Ry
     estimated scf accuracy    <   26965.11716820 Ry

     iteration #  3     ecut=    80.00 Ry     beta=0.70
     Davidson diagonalization with overlap
     ethr =  1.00E-02,  avg # of iterations =  8.0

     negative rho (up, down):  3.473E+01 0.000E+00

     total cpu time spent up to now is     7919.1 secs

     total energy              =  -12453.81202831 Ry
     Harris-Foulkes estimate   =  -13537.37964446 Ry
     estimated scf accuracy    <    8151.73661275 Ry

     iteration #  4     ecut=    80.00 Ry     beta=0.70
     Davidson diagonalization with overlap
     ethr =  1.00E-02,  avg # of iterations =  5.2

     negative rho (up, down):  2.567E+01 0.000E+00

     total cpu time spent up to now is     8924.3 secs

     total energy              =  -12898.36711639 Ry
     Harris-Foulkes estimate   =  -13185.35414891 Ry
     estimated scf accuracy    <    1978.42125913 Ry

     iteration #  5     ecut=    80.00 Ry     beta=0.70
     Davidson diagonalization with overlap
     ethr =  1.00E-02,  avg # of iterations =  4.0

     negative rho (up, down):  1.599E+01 0.000E+00

     total cpu time spent up to now is     9538.5 secs

     total energy              =  -12909.14708508 Ry
     Harris-Foulkes estimate   =  -13028.29109511 Ry
     estimated scf accuracy    <     997.91666814 Ry

     iteration #  6     ecut=    80.00 Ry     beta=0.70
     Davidson diagonalization with overlap
     ethr =  1.00E-02,  avg # of iterations =  2.0

     negative rho (up, down):  1.095E+01 0.000E+00

     total cpu time spent up to now is     9904.3 secs

     total energy              =  -12886.50061772 Ry
     Harris-Foulkes estimate   =  -12928.32228173 Ry
     estimated scf accuracy    <     401.85702385 Ry

     iteration #  7     ecut=    80.00 Ry     beta=0.70
     Davidson diagonalization with overlap
     ethr =  1.00E-02,  avg # of iterations =  2.2

     negative rho (up, down):  8.032E+00 0.000E+00

     total cpu time spent up to now is    10254.2 secs

     total energy              =  -12869.32982385 Ry
     Harris-Foulkes estimate   =  -12897.92178161 Ry
     estimated scf accuracy    <     332.28151849 Ry

     iteration #  8     ecut=    80.00 Ry     beta=0.70
     Davidson diagonalization with overlap
     ethr =  1.00E-02,  avg # of iterations =  1.0

     negative rho (up, down):  6.673E+00 0.000E+00

     total cpu time spent up to now is    10580.8 secs

     total energy              =  -12859.69786031 Ry
     Harris-Foulkes estimate   =  -12874.90854950 Ry
     estimated scf accuracy    <     216.47622168 Ry

     iteration #  9     ecut=    80.00 Ry     beta=0.70
     Davidson diagonalization with overlap
     ethr =  1.00E-02,  avg # of iterations =  1.0

     negative rho (up, down):  4.114E+00 0.000E+00

     total cpu time spent up to now is    10905.3 secs

     total energy              =  -12837.49030042 Ry
     Harris-Foulkes estimate   =  -12863.31161861 Ry
     estimated scf accuracy    <     238.22744763 Ry

     iteration # 10     ecut=    80.00 Ry     beta=0.70
     Davidson diagonalization with overlap
     ethr =  1.00E-02,  avg # of iterations =  1.0

     negative rho (up, down):  1.239E+00 0.000E+00

     total cpu time spent up to now is    11232.7 secs

     total energy              =  -12796.36284433 Ry
     Harris-Foulkes estimate   =  -12841.41472371 Ry
     estimated scf accuracy    <     156.68401266 Ry

     iteration # 11     ecut=    80.00 Ry     beta=0.70
     Davidson diagonalization with overlap
     ethr =  1.00E-02,  avg # of iterations =  2.8

     negative rho (up, down):  1.577E+00 0.000E+00

     total cpu time spent up to now is    11599.2 secs

     total energy              =  -12786.42333256 Ry
     Harris-Foulkes estimate   =  -12805.07718918 Ry
     estimated scf accuracy    <     139.79672219 Ry

     iteration # 12     ecut=    80.00 Ry     beta=0.70
     Davidson diagonalization with overlap
     ethr =  1.00E-02,  avg # of iterations =  2.0

     negative rho (up, down):  1.798E+00 0.000E+00

     total cpu time spent up to now is    11944.7 secs

     total energy              =  -12780.38706126 Ry
     Harris-Foulkes estimate   =  -12801.53275386 Ry
     estimated scf accuracy    <     169.70869680 Ry

     iteration # 13     ecut=    80.00 Ry     beta=0.70
     Davidson diagonalization with overlap
     ethr =  1.00E-02,  avg # of iterations =  2.0

     negative rho (up, down):  4.279E+00 0.000E+00

     total cpu time spent up to now is    12292.9 secs

     total energy              =  -12782.77764179 Ry
     Harris-Foulkes estimate   =  -12794.57338169 Ry
     estimated scf accuracy    <      68.99312988 Ry

     iteration # 14     ecut=    80.00 Ry     beta=0.70
     Davidson diagonalization with overlap
     ethr =  5.27E-03,  avg # of iterations =  2.0

     negative rho (up, down):  4.788E+00 0.000E+00

     total cpu time spent up to now is    12642.8 secs

     total energy              =  -12781.81001791 Ry
     Harris-Foulkes estimate   =  -12786.66225218 Ry
     estimated scf accuracy    <      33.68282547 Ry

     iteration # 15     ecut=    80.00 Ry     beta=0.70
     Davidson diagonalization with overlap
     ethr =  2.58E-03,  avg # of iterations =  3.7

     negative rho (up, down):  6.087E+00 0.000E+00

     total cpu time spent up to now is    13023.4 secs

     total energy              =  -12780.47355814 Ry
     Harris-Foulkes estimate   =  -12782.89304154 Ry
     estimated scf accuracy    <      19.18988015 Ry

     iteration # 16     ecut=    80.00 Ry     beta=0.70
     Davidson diagonalization with overlap
     ethr =  1.47E-03,  avg # of iterations =  5.5

     negative rho (up, down):  4.807E+00 0.000E+00

     total cpu time spent up to now is    13461.0 secs

     total energy              =  -12779.87565355 Ry
     Harris-Foulkes estimate   =  -12781.13814504 Ry
     estimated scf accuracy    <      13.20627976 Ry

     iteration # 17     ecut=    80.00 Ry     beta=0.70
     Davidson diagonalization with overlap
     ethr =  1.01E-03,  avg # of iterations =  1.8

     negative rho (up, down):  3.639E+00 0.000E+00

     total cpu time spent up to now is    13803.1 secs

     total energy              =  -12778.80414986 Ry
     Harris-Foulkes estimate   =  -12780.20716994 Ry
     estimated scf accuracy    <      11.28213026 Ry

     iteration # 18     ecut=    80.00 Ry     beta=0.70
     Davidson diagonalization with overlap
     ethr =  8.63E-04,  avg # of iterations =  2.0

     negative rho (up, down):  1.678E+00 0.000E+00

     total cpu time spent up to now is    14150.3 secs

     total energy              =  -12777.01806243 Ry
     Harris-Foulkes estimate   =  -12778.97561268 Ry
     estimated scf accuracy    <       9.25519753 Ry

     iteration # 19     ecut=    80.00 Ry     beta=0.70
     Davidson diagonalization with overlap
     ethr =  7.08E-04,  avg # of iterations =  4.0

     negative rho (up, down):  1.279E+00 0.000E+00

     total cpu time spent up to now is    14541.6 secs

     total energy              =  -12776.17950816 Ry
     Harris-Foulkes estimate   =  -12777.33052780 Ry
     estimated scf accuracy    <       7.93152223 Ry

     iteration # 20     ecut=    80.00 Ry     beta=0.70
     Davidson diagonalization with overlap
     ethr =  6.06E-04,  avg # of iterations =  2.7

     negative rho (up, down):  3.515E-01 0.000E+00

     total cpu time spent up to now is    14907.5 secs

     total energy              =  -12775.53333414 Ry
     Harris-Foulkes estimate   =  -12776.38199098 Ry
     estimated scf accuracy    <       4.99449211 Ry

     iteration # 21     ecut=    80.00 Ry     beta=0.70
     Davidson diagonalization with overlap
     c_bands:  1 eigenvalues not converged
     ethr =  3.82E-04,  avg # of iterations = 10.5

     negative rho (up, down):  4.170E-01 0.000E+00

     total cpu time spent up to now is    15444.6 secs

     total energy              =  -12774.48068782 Ry
     Harris-Foulkes estimate   =  -12775.77164813 Ry
     estimated scf accuracy    <       4.96718826 Ry

     iteration # 22     ecut=    80.00 Ry     beta=0.70
     Davidson diagonalization with overlap
     ethr =  3.80E-04,  avg # of iterations =  2.5

     negative rho (up, down):  4.863E-01 0.000E+00

     total cpu time spent up to now is    15804.6 secs

     total energy              =  -12774.34746710 Ry
     Harris-Foulkes estimate   =  -12774.63006531 Ry
     estimated scf accuracy    <       5.39109472 Ry

     iteration # 23     ecut=    80.00 Ry     beta=0.70
     Davidson diagonalization with overlap
     ethr =  3.80E-04,  avg # of iterations =  1.0

     negative rho (up, down):  9.002E-01 0.000E+00

     total cpu time spent up to now is    16130.1 secs

     total energy              =  -12773.79242119 Ry
     Harris-Foulkes estimate   =  -12774.44050710 Ry
     estimated scf accuracy    <       2.42030101 Ry

     iteration # 24     ecut=    80.00 Ry     beta=0.70
     Davidson diagonalization with overlap
     ethr =  1.85E-04,  avg # of iterations =  9.5

     negative rho (up, down):  5.846E-01 0.000E+00

     total cpu time spent up to now is    16675.5 secs

     total energy              =  -12773.64710896 Ry
     Harris-Foulkes estimate   =  -12773.88538037 Ry
     estimated scf accuracy    <       1.77791433 Ry

     iteration # 25     ecut=    80.00 Ry     beta=0.70
     Davidson diagonalization with overlap
     ethr =  1.36E-04,  avg # of iterations =  3.3

     negative rho (up, down):  5.511E-01 0.000E+00

     total cpu time spent up to now is    17053.0 secs

     total energy              =  -12773.52398287 Ry
     Harris-Foulkes estimate   =  -12773.76938523 Ry
     estimated scf accuracy    <       1.07058139 Ry

     iteration # 26     ecut=    80.00 Ry     beta=0.70
     Davidson diagonalization with overlap
     ethr =  8.18E-05,  avg # of iterations =  8.2

     negative rho (up, down):  2.586E-01 0.000E+00

     total cpu time spent up to now is    17616.4 secs

     total energy              =  -12773.55595585 Ry
     Harris-Foulkes estimate   =  -12773.59410230 Ry
     estimated scf accuracy    <       0.22160361 Ry

     iteration # 27     ecut=    80.00 Ry     beta=0.70
     Davidson diagonalization with overlap
     ethr =  1.69E-05,  avg # of iterations =  7.0

     negative rho (up, down):  2.156E-01 0.000E+00

     total cpu time spent up to now is    18112.2 secs

     total energy              =  -12773.56906560 Ry
     Harris-Foulkes estimate   =  -12773.57586311 Ry
     estimated scf accuracy    <       0.07056675 Ry

     iteration # 28     ecut=    80.00 Ry     beta=0.70
     Davidson diagonalization with overlap
     ethr =  5.40E-06,  avg # of iterations = 10.0

     negative rho (up, down):  1.661E-01 0.000E+00

     total cpu time spent up to now is    18686.4 secs

     total energy              =  -12773.56980923 Ry
     Harris-Foulkes estimate   =  -12773.57684482 Ry
     estimated scf accuracy    <       0.03585445 Ry

     iteration # 29     ecut=    80.00 Ry     beta=0.70
     Davidson diagonalization with overlap
     ethr =  2.74E-06,  avg # of iterations =  9.7

     negative rho (up, down):  1.141E-01 0.000E+00

     total cpu time spent up to now is    19237.9 secs

     total energy              =  -12773.57011306 Ry
     Harris-Foulkes estimate   =  -12773.57245967 Ry
     estimated scf accuracy    <       0.01236532 Ry

     iteration # 30     ecut=    80.00 Ry     beta=0.70
     Davidson diagonalization with overlap
     c_bands:  1 eigenvalues not converged
     ethr =  9.45E-07,  avg # of iterations = 12.8

     negative rho (up, down):  6.899E-02 0.000E+00

     total cpu time spent up to now is    19863.7 secs

     total energy              =  -12773.56854509 Ry
     Harris-Foulkes estimate   =  -12773.57120941 Ry
     estimated scf accuracy    <       0.00895735 Ry

     iteration # 31     ecut=    80.00 Ry     beta=0.70
     Davidson diagonalization with overlap
     ethr =  6.85E-07,  avg # of iterations = 13.5

     negative rho (up, down):  5.199E-02 0.000E+00

     total cpu time spent up to now is    20536.0 secs

     total energy              =  -12773.56838373 Ry
     Harris-Foulkes estimate   =  -12773.56917453 Ry
     estimated scf accuracy    <       0.00251054 Ry

     iteration # 32     ecut=    80.00 Ry     beta=0.70
     Davidson diagonalization with overlap
     ethr =  1.92E-07,  avg # of iterations =  8.7

     negative rho (up, down):  4.191E-02 0.000E+00

     total cpu time spent up to now is    21050.1 secs

     total energy              =  -12773.56811056 Ry
     Harris-Foulkes estimate   =  -12773.56863654 Ry
     estimated scf accuracy    <       0.00151755 Ry

     iteration # 33     ecut=    80.00 Ry     beta=0.70
     Davidson diagonalization with overlap
     c_bands:  1 eigenvalues not converged
     ethr =  1.16E-07,  avg # of iterations = 12.3

     negative rho (up, down):  2.644E-02 0.000E+00

     total cpu time spent up to now is    21675.8 secs

     total energy              =  -12773.56787673 Ry
     Harris-Foulkes estimate   =  -12773.56823628 Ry
     estimated scf accuracy    <       0.00053992 Ry

     iteration # 34     ecut=    80.00 Ry     beta=0.70
     Davidson diagonalization with overlap
     ethr =  4.13E-08,  avg # of iterations =  7.8

     negative rho (up, down):  7.373E-03 0.000E+00

     total cpu time spent up to now is    22177.4 secs

     total energy              =  -12773.56751748 Ry
     Harris-Foulkes estimate   =  -12773.56789948 Ry
     estimated scf accuracy    <       0.00021929 Ry

     iteration # 35     ecut=    80.00 Ry     beta=0.70
     Davidson diagonalization with overlap
     ethr =  1.68E-08,  avg # of iterations = 10.5

     negative rho (up, down):  2.473E-03 0.000E+00

     total cpu time spent up to now is    22773.5 secs

     total energy              =  -12773.56744589 Ry
     Harris-Foulkes estimate   =  -12773.56753840 Ry
     estimated scf accuracy    <       0.00006604 Ry

     iteration # 36     ecut=    80.00 Ry     beta=0.70
     Davidson diagonalization with overlap
     c_bands:  1 eigenvalues not converged
     c_bands:  1 eigenvalues not converged
     ethr =  5.05E-09,  avg # of iterations = 11.7

     negative rho (up, down):  1.535E-03 0.000E+00

     total cpu time spent up to now is    23376.0 secs

     total energy              =  -12773.56743906 Ry
     Harris-Foulkes estimate   =  -12773.56745446 Ry
     estimated scf accuracy    <       0.00002534 Ry

     iteration # 37     ecut=    80.00 Ry     beta=0.70
     Davidson diagonalization with overlap
     ethr =  1.94E-09,  avg # of iterations =  4.3

     negative rho (up, down):  1.207E-03 0.000E+00

     total cpu time spent up to now is    23795.6 secs

     total energy              =  -12773.56744104 Ry
     Harris-Foulkes estimate   =  -12773.56744226 Ry
     estimated scf accuracy    <       0.00000675 Ry

     iteration # 38     ecut=    80.00 Ry     beta=0.70
     Davidson diagonalization with overlap
     ethr =  5.16E-10,  avg # of iterations =  3.0

     negative rho (up, down):  1.233E-03 0.000E+00

     total cpu time spent up to now is    24199.9 secs

     total energy              =  -12773.56744167 Ry
     Harris-Foulkes estimate   =  -12773.56744220 Ry
     estimated scf accuracy    <       0.00000319 Ry

     iteration # 39     ecut=    80.00 Ry     beta=0.70
     Davidson diagonalization with overlap
     ethr =  2.44E-10,  avg # of iterations =  2.8

     negative rho (up, down):  1.404E-03 0.000E+00

     total cpu time spent up to now is    24579.7 secs

     total energy              =  -12773.56744270 Ry
     Harris-Foulkes estimate   =  -12773.56744209 Ry
     estimated scf accuracy    <       0.00000065 Ry

     iteration # 40     ecut=    80.00 Ry     beta=0.70
     Davidson diagonalization with overlap
     ethr =  4.99E-11,  avg # of iterations =  3.0

     negative rho (up, down):  1.420E-03 0.000E+00

     total cpu time spent up to now is    24989.6 secs

     total energy              =  -12773.56744295 Ry
     Harris-Foulkes estimate   =  -12773.56744279 Ry
     estimated scf accuracy    <       0.00000012 Ry

     iteration # 41     ecut=    80.00 Ry     beta=0.70
     Davidson diagonalization with overlap
     ethr =  9.06E-12,  avg # of iterations =  3.0

     negative rho (up, down):  1.458E-03 0.000E+00

     total cpu time spent up to now is    25530.7 secs

     total energy              =  -12773.56744299 Ry
     Harris-Foulkes estimate   =  -12773.56744298 Ry
     estimated scf accuracy    <       0.00000008 Ry

     iteration # 42     ecut=    80.00 Ry     beta=0.70
     Davidson diagonalization with overlap
     ethr =  6.03E-12,  avg # of iterations =  2.8

     negative rho (up, down):  1.478E-03 0.000E+00

     total cpu time spent up to now is    25920.3 secs

     total energy              =  -12773.56744300 Ry
     Harris-Foulkes estimate   =  -12773.56744300 Ry
     estimated scf accuracy    <       0.00000001 Ry

     iteration # 43     ecut=    80.00 Ry     beta=0.70
     Davidson diagonalization with overlap
     ethr =  1.13E-12,  avg # of iterations =  3.0

     negative rho (up, down):  1.468E-03 0.000E+00

     total cpu time spent up to now is    26291.2 secs

     End of self-consistent calculation

          k = 0.0000 0.0000 0.0000 (256287 PWs)   bands (ev):

   -22.4011 -21.1525 -15.7170 -15.3872 -15.3175 -14.2868 -14.2661 -13.7704
   -13.7501 -13.4537 -13.4270 -13.3671 -13.3600 -12.5401 -12.5200 -12.3711
   -12.3557 -12.3493 -12.3424 -10.7489 -10.7158 -10.7062 -10.6871 -10.6022
    -9.4560  -8.9477  -8.9167  -8.7719  -8.7478  -7.9422  -7.9298  -7.8681
    -7.8530  -7.0673  -7.0320  -6.9262  -6.8805  -6.8635  -6.8216  -6.7834
    -6.7809  -6.3112  -5.9737  -5.7372  -5.6510  -5.4343  -5.2920  -5.2850
    -5.2632  -5.2468  -5.1956  -5.1880  -5.1637  -5.1223  -5.1149  -5.1086
    -4.5385  -4.0658  -4.0602  -4.0430  -4.0273  -3.8329  -3.8289  -3.8049
    -3.6240  -3.6219  -3.3762  -3.1433  -3.0454  -3.0422  -3.0045  -2.9755
    -2.9481  -2.9393  -2.8938  -2.7571  -2.6980  -2.6687  -2.6548  -2.6501
    -2.6479  -2.6464  -2.6418  -2.6309  -2.5923  -2.4392  -2.4251  -2.2953
    -2.2370  -2.2151  -2.1590  -2.1452  -2.1439  -2.1284  -2.1029  -2.1019
    -1.9569  -1.9332  -1.9325  -1.9279  -1.9225  -1.8379  -1.8350  -1.8054
    -1.8038  -1.8024  -1.8001  -1.7318  -1.6726  -1.6723  -1.6501  -1.6497
    -1.6359  -1.5440  -1.5270  -1.4986  -1.4262  -1.3832  -1.3824  -1.3767
    -1.3711  -1.3650  -1.3631  -1.3389  -1.2985  -1.2878  -1.2734  -1.2701
    -1.2632  -1.2557  -1.2429  -1.2386  -1.2187  -1.2138  -1.2104  -1.2080
    -1.1766  -1.1749  -1.1645  -1.1632  -1.1456  -1.1363  -1.1050  -1.1037
    -1.0608  -1.0019  -0.9582  -0.9524  -0.9466  -0.9394  -0.9353  -0.9192
    -0.9089  -0.8913  -0.8647  -0.8601  -0.8567  -0.8401  -0.8372  -0.8208
    -0.8190  -0.8048  -0.7976  -0.7799  -0.7114  -0.7025  -0.7017  -0.6969
    -0.6934  -0.6876  -0.6866  -0.6785  -0.6784  -0.6712  -0.6684  -0.6596
    -0.6541  -0.6428  -0.6375  -0.6353  -0.6349  -0.6341  -0.5930  -0.5922
    -0.5902  -0.5642  -0.5588  -0.5581  -0.5405  -0.5251  -0.5198  -0.5124
    -0.5064  -0.5029  -0.5012  -0.4980  -0.4974  -0.4955  -0.4927  -0.4891
    -0.4855  -0.4855  -0.4836  -0.4814  -0.4803  -0.4730  -0.4047  -0.3412
    -0.3375  -0.3373  -0.3333  -0.2930  -0.2875  -0.2826  -0.2819  -0.2766
    -0.2704  -0.2659  -0.2628  -0.2513  -0.2476  -0.2391  -0.2125  -0.2109
    -0.2045  -0.2028  -0.1992  -0.1957  -0.1859  -0.1800  -0.1781  -0.1420
    -0.1327  -0.1313  -0.0988  -0.0951  -0.0823  -0.0768  -0.0718  -0.0689
    -0.0671  -0.0658  -0.0649  -0.0598  -0.0585  -0.0536  -0.0500  -0.0496
    -0.0449  -0.0427  -0.0361  -0.0295  -0.0273  -0.0263  -0.0137   0.0008
     0.0041   0.0165   0.0178   0.0197   0.0413   0.0463   0.0498   0.0592
     0.0639   0.0666   0.0707   0.0831   0.0847   0.0951   0.0969   0.0988
     0.1012   0.1059   0.1138   0.1176   0.1189   0.1271   0.1275   0.1338
     0.1424   0.1466   0.1538   0.1545   0.1631   0.1640   0.1669   0.1683
     0.1699   0.1719   0.1988   0.2163   0.2172   0.2231   0.2287   0.2335
     0.2606   0.2629   0.2829   0.2853   0.2900   0.2928   0.2955   0.2976
     0.3057   0.3094   0.3167   0.3189   0.3264   0.3301   0.3382   0.3494
     0.3548   0.3593   0.3636   0.3711   0.3745   0.3771   0.3841   0.3883
     0.3919   0.4027   0.4070   0.4100   0.4131   0.4162   0.4178   0.4325
     0.4376   0.4465   0.4471   0.4542   0.4550   0.4643   0.4710   0.4829
     0.4881   0.5168   0.5173   0.5211   0.5240   0.5270   0.5286   0.5357
     0.5461   0.5584   0.5617   0.5836   0.5907   0.6088   0.6232   0.6253
     0.6435   0.6464   0.6531   0.6572   0.6599   0.6640   0.6759   0.6814
     0.6859   0.6968   0.7073   0.7133   0.7151   0.7225   0.7261   0.7282
     0.7409   0.7425   0.7491   0.7503   0.7659   0.7693   0.7805   0.7850
     0.7946   0.7954   0.8168   0.8174   0.8185   0.8199   0.8325   0.8333
     0.8454   0.8516   0.8533   0.8554   0.8640   0.8742   0.8777   0.8810
     0.8872   0.8929   0.8989   0.9006   0.9043   0.9055   0.9088   0.9136
     0.9142   0.9178   0.9205   0.9284   0.9307   0.9337   0.9465   0.9473
     0.9562   0.9635   0.9795   0.9840   0.9853   0.9879   0.9916   1.0047
     1.0074   1.0126   1.0162   1.0240   1.0255   1.0277   1.0293   1.0307
     1.0327   1.0340   1.0385   1.0583   1.0615   1.0652   1.0669   1.0690
     1.0736   1.0769   1.0776   1.0812   1.0856   1.0860   1.0864   1.1051
     1.1084   1.1118   1.1179   1.1190   1.1236   1.1437   1.1471   1.1650
     1.1662   1.1747   1.1792   1.1964   1.1979   1.2056   1.2062   1.2113
     1.2150   1.2179   1.2191   1.2337   1.2352   1.2366   1.2373   1.2434
     1.2443   1.2596   1.2638   1.2679   1.2687   1.2761   1.2778   1.2792
     1.2843   1.2863   1.2873   1.2951   1.3063   1.3079   1.3287   1.3342
     1.3362   1.3369   1.3407   1.3462   1.3472   1.3600   1.3648   1.3692
     1.3715   1.3719   1.3726   1.3775   1.3793   1.3877   1.3931   1.3949
     1.3979   1.4006   1.4064   1.4076   1.4239   1.4297   1.4329   1.4378
     1.4394   1.4410   1.4434   1.4446   1.4522   1.4549   1.4576   1.4601
     1.4612   1.4670   1.4681   1.4715   1.4732   1.4750   1.4777   1.4830
     1.4855   1.4956   1.4983   1.5127   1.5181   1.5246   1.5279   1.5311
     1.5320   1.5507   1.5535   1.5543   1.5550   1.5700   1.5829   1.5842
     1.5870   1.5877   1.5945   1.5954   1.6018   1.6067   1.6142   1.6200
     1.6224   1.6239   1.6252   1.6266   1.6291   1.6324   1.6343   1.6378
     1.6401   1.6491   1.6493   1.6508   1.6528   1.6555   1.6570   1.6583
     1.6622   1.6666   1.6690   1.6712   1.6759   1.6805   1.6837   1.6877
     1.6884   1.7042   1.7114   1.7135   1.7197   1.7238   1.7275   1.7312
     1.7343   1.7389   1.7429   1.7440   1.7488   1.7557   1.7573   1.7667
     1.7683   1.7691   1.7706   1.7714   1.7734   1.7740   1.7763   1.7806
     1.7834   1.7887   1.7922   1.8053   1.8071   1.8122   1.8148   1.8162
     1.8171   1.8219   1.8224   1.8259   1.8303   1.8485   1.8512   1.8590
     1.8629   1.8918   1.8966   1.8968   1.8989   1.8998   1.9044   1.9273
     1.9347   1.9498   1.9597   1.9618   1.9703   1.9723   1.9744   1.9775
     1.9837   1.9890   1.9979   2.0068   2.2804   2.2954   2.3929   2.4032
     2.4202   2.4474   2.5373   2.5376   2.5459   2.5479   2.5509   2.5515
     2.5646   2.5651   2.6805   2.6809   2.7584   2.7601   2.7984   2.8076
     2.8132   2.8215   3.0224   3.0253   3.0525   3.0537   3.2825   3.5811
     3.6211   3.7363   3.7745   3.7795   3.8189   4.0797   4.1095   4.1272
     4.1545   4.1690   4.1718   4.1770   4.1863   4.2411   4.2436   4.2769
     4.3363   4.3366   4.3475   4.3485   4.3496   4.4352   4.4783   4.4846
     4.5697   4.5818   5.1014   5.2731   5.4217   5.4474   5.5620   5.5669
     5.5767   5.5967   5.6445   5.6675   5.8535   5.8604   6.0391   6.0623
     6.2584   6.2645   6.4623   6.4648   6.6416   6.6624   6.7307   6.7445
     6.7615   6.8324   6.8663   6.9538   6.9669   6.9712   7.0038   7.1883
     7.2136   7.2231   7.2326   7.2570   7.2876   7.3292   7.3571   7.3822
     7.4334   7.4531   7.4654   7.6531   7.6600   7.7005   7.7107   7.8276
     7.9549   7.9609   7.9774   7.9797   8.0139   8.0271   8.0722   8.1629
     8.3461   8.3644   8.3698   8.3874   8.4769   8.5870   8.5938   8.5993
     8.6017   8.6686   8.6745   8.6856   8.7243   8.8386   8.8536   8.8597
     8.8670   8.8869   8.9521   8.9797   9.0251   9.0911   9.1125   9.1226
     9.1464   9.1572   9.2255   9.3046   9.3149   9.3469   9.3788   9.3873
     9.3917   9.4279   9.4391   9.5228   9.5838   9.6671   9.7188   9.8562
     9.8682   9.9181   9.9317  10.0639  10.1219  10.1270  10.1382  10.1394
    10.1723

          k = 0.0000-0.2165 0.0000 (256176 PWs)   bands (ev):

   -22.4011 -21.1525 -15.6414 -15.6107 -14.9172 -14.8840 -13.7231 -13.6757
   -13.6487 -13.6465 -13.4769 -13.4711 -12.9907 -12.9679 -12.9486 -12.9394
   -11.6311 -11.6143 -11.5947 -11.5814 -11.4362 -11.4315  -9.7592  -9.7544
    -9.7376  -9.7166  -8.5162  -8.4957  -8.3105  -8.3001  -8.2631  -8.2525
    -7.4741  -7.4503  -7.4266  -7.4054  -6.5367  -6.3665  -6.3278  -6.2849
    -6.2647  -6.1813  -6.1409  -6.1122  -6.0234  -5.8184  -5.6249  -5.5181
    -5.5147  -5.4346  -5.4019  -5.3096  -4.5117  -4.5055  -4.5043  -4.4946
    -4.4738  -4.4713  -4.4333  -4.3832  -4.0234  -4.0086  -3.9983  -3.9858
    -3.8257  -3.5002  -3.4179  -3.4072  -3.0003  -2.9441  -2.9396  -2.9351
    -2.9346  -2.7913  -2.7464  -2.7288  -2.6681  -2.6670  -2.5687  -2.5155
    -2.4952  -2.4154  -2.4049  -2.4009  -2.3718  -2.3073  -2.2794  -2.2635
    -2.2591  -2.2265  -2.2261  -2.2225  -2.2217  -2.2199  -2.2116  -2.0976
    -2.0962  -2.0758  -2.0690  -1.9996  -1.9427  -1.9226  -1.8354  -1.8334
    -1.8117  -1.8041  -1.7736  -1.7724  -1.7674  -1.7654  -1.6280  -1.6279
    -1.6105  -1.6102  -1.5653  -1.5508  -1.5497  -1.5181  -1.4288  -1.4172
    -1.4093  -1.3999  -1.3837  -1.3835  -1.3669  -1.3561  -1.3300  -1.3119
    -1.3103  -1.3045  -1.3005  -1.2968  -1.2802  -1.1780  -1.1512  -1.1488
    -1.1310  -1.0935  -1.0607  -1.0369  -1.0213  -1.0122  -0.9823  -0.9796
    -0.9692  -0.9615  -0.9408  -0.9334  -0.9323  -0.9248  -0.9233  -0.9140
    -0.9100  -0.9051  -0.8996  -0.8777  -0.8732  -0.8596  -0.8535  -0.8488
    -0.8475  -0.8457  -0.8449  -0.8354  -0.7594  -0.7511  -0.7317  -0.7308
    -0.7031  -0.7009  -0.6965  -0.6960  -0.6849  -0.6763  -0.6498  -0.6423
    -0.6330  -0.6325  -0.6255  -0.6209  -0.6191  -0.6182  -0.6143  -0.6141
    -0.5798  -0.5790  -0.5760  -0.5759  -0.5721  -0.5603  -0.5490  -0.5454
    -0.5314  -0.5283  -0.5082  -0.4953  -0.4907  -0.4779  -0.4763  -0.4636
    -0.4603  -0.4551  -0.4340  -0.4326  -0.4288  -0.4087  -0.4073  -0.3971
    -0.3941  -0.3830  -0.3532  -0.3301  -0.3286  -0.2868  -0.2864  -0.2736
    -0.2720  -0.2625  -0.2592  -0.2571  -0.2558  -0.2554  -0.2553  -0.2354
    -0.2072  -0.2046  -0.1874  -0.1847  -0.1784  -0.1770  -0.1749  -0.1721
    -0.1688  -0.1651  -0.1429  -0.1418  -0.1320  -0.1317  -0.1152  -0.1112
    -0.1050  -0.1013  -0.0964  -0.0959  -0.0938  -0.0895  -0.0480  -0.0464
    -0.0455  -0.0450  -0.0104  -0.0103   0.0288   0.0318   0.0336   0.0344
     0.0362   0.0377   0.0386   0.0426   0.0479   0.0497   0.0687   0.0733
     0.0921   0.0942   0.0971   0.0971   0.0995   0.1077   0.1098   0.1113
     0.1127   0.1311   0.1325   0.1441   0.1477   0.1518   0.1538   0.1545
     0.1566   0.1698   0.1722   0.1807   0.1884   0.1922   0.1974   0.1992
     0.2022   0.2065   0.2178   0.2232   0.2301   0.2480   0.2527   0.2564
     0.2629   0.2652   0.2676   0.2731   0.2820   0.2834   0.2904   0.3043
     0.3171   0.3235   0.3319   0.3368   0.3442   0.3463   0.3513   0.3546
     0.3598   0.3717   0.3734   0.3787   0.3864   0.3917   0.4000   0.4055
     0.4096   0.4099   0.4147   0.4211   0.4310   0.4349   0.4482   0.4493
     0.4586   0.4602   0.4616   0.4769   0.4803   0.4820   0.4845   0.4892
     0.4951   0.4956   0.5066   0.5081   0.5104   0.5379   0.5386   0.5449
     0.5476   0.5488   0.5703   0.5785   0.5798   0.5888   0.5944   0.5987
     0.6294   0.6346   0.6474   0.6478   0.6851   0.7052   0.7185   0.7194
     0.7296   0.7378   0.7460   0.7495   0.7550   0.7607   0.7680   0.7698
     0.7756   0.7763   0.7795   0.7828   0.7859   0.7909   0.7959   0.8102
     0.8120   0.8230   0.8280   0.8302   0.8368   0.8399   0.8412   0.8463
     0.8466   0.8514   0.8550   0.8588   0.8626   0.8656   0.8731   0.8743
     0.8747   0.8785   0.8812   0.8858   0.8923   0.8972   0.8978   0.9008
     0.9026   0.9109   0.9140   0.9171   0.9188   0.9260   0.9274   0.9306
     0.9339   0.9391   0.9454   0.9510   0.9515   0.9561   0.9572   0.9701
     0.9791   0.9809   0.9842   0.9968   1.0000   1.0017   1.0055   1.0081
     1.0141   1.0193   1.0219   1.0293   1.0336   1.0342   1.0359   1.0384
     1.0448   1.0526   1.0643   1.0672   1.0883   1.0943   1.0994   1.1012
     1.1038   1.1083   1.1099   1.1135   1.1151   1.1350   1.1387   1.1401
     1.1410   1.1430   1.1438   1.1597   1.1778   1.1811   1.2225   1.2245
     1.2416   1.2445   1.2499   1.2516   1.2551   1.2611   1.2618   1.2645
     1.2662   1.2664   1.2684   1.2699   1.2723   1.2752   1.2842   1.2877
     1.2949   1.2983   1.3021   1.3030   1.3062   1.3087   1.3107   1.3133
     1.3146   1.3150   1.3166   1.3201   1.3231   1.3244   1.3257   1.3305
     1.3365   1.3376   1.3394   1.3459   1.3472   1.3504   1.3650   1.3666
     1.3702   1.3708   1.3773   1.3800   1.3808   1.3824   1.3854   1.3898
     1.3916   1.3929   1.3937   1.3966   1.4315   1.4327   1.4366   1.4401
     1.4659   1.4681   1.4694   1.4703   1.5105   1.5109   1.5155   1.5185
     1.5197   1.5294   1.5308   1.5348   1.5373   1.5428   1.5436   1.5445
     1.5454   1.5490   1.5512   1.5532   1.5546   1.5565   1.5602   1.5619
     1.5652   1.5673   1.5687   1.5702   1.5714   1.5772   1.5852   1.5892
     1.5897   1.5910   1.6017   1.6048   1.6109   1.6124   1.6251   1.6260
     1.6283   1.6330   1.6344   1.6392   1.6399   1.6505   1.6515   1.6547
     1.6614   1.6633   1.6716   1.6752   1.6779   1.6785   1.6865   1.6887
     1.6990   1.7013   1.7130   1.7133   1.7199   1.7220   1.7251   1.7256
     1.7258   1.7269   1.7368   1.7379   1.7381   1.7397   1.7499   1.7537
     1.7718   1.7743   1.7822   1.7841   1.7852   1.7892   1.7895   1.7922
     1.7944   1.8081   1.8099   1.8147   1.8163   1.8313   1.8322   1.8366
     1.8384   1.8397   1.8407   1.8431   1.8526   1.8536   1.8549   1.8573
     1.8577   1.8794   1.9069   1.9113   1.9125   1.9224   1.9242   1.9265
     1.9849   1.9976   2.0015   2.0281   2.1074   2.1087   2.1107   2.1116
     2.1130   2.1156   2.1515   2.1660   2.1666   2.1679   2.1691   2.1774
     2.1907   2.2139   2.6440   2.6714   2.6765   2.6823   2.6873   2.7483
     2.7511   2.8059   2.8364   2.8389   2.8636   2.8664   2.8885   2.8967
     2.9257   2.9302   3.0060   3.0129   3.0590   3.0591   3.0947   3.1014
     3.2650   3.2653   3.4868   3.4988   3.5001   3.5047   3.5076   3.5890
     4.0029   4.0128   4.2558   4.2590   4.3900   4.3904   4.5423   4.5973
     4.6110   4.6186   4.6249   4.6436   4.6469   4.6629   4.7108   4.7389
     4.7625   4.8423   4.9304   4.9791   5.4329   5.4409   5.4919   5.5781
     5.6774   5.6794   5.6822   5.6831   5.7605   5.9427   5.9831   6.1607
     6.2706   6.4316   6.4358   6.4603   6.4828   6.5026   6.5108   6.5244
     6.6623   6.6713   6.7892   6.8129   6.9866   6.9989   7.0004   7.0472
     7.1452   7.1911   7.3017   7.3617   7.3739   7.4041   7.4160   7.4360
     7.4580   7.4988   7.5207   7.5725   7.5754   7.5824   7.6237   7.6405
     7.6568   7.6904   7.7499   7.7738   8.1733   8.1895   8.2205   8.2436
     8.2772   8.4218   8.4265   8.4415   8.4445   8.5567   8.5787   8.5829
     8.6185   8.6451   8.6981   8.7045   8.8996   8.9657   9.0068   9.0088
     9.0202   9.0314   9.0489   9.0656   9.0942   9.1002   9.1137   9.2002
     9.2448   9.2524   9.2944   9.3318   9.3501   9.3934   9.5610   9.5932
     9.5952   9.6053   9.6280   9.6580   9.6655   9.6877   9.6922   9.7377
     9.8396   9.8441   9.8734   9.8979   9.9430  10.0775  10.1278  10.1967
    10.2540

          k = 0.2500 0.0000 0.0000 (256240 PWs)   bands (ev):

   -22.4011 -21.1526 -15.5941 -15.2656 -15.1939 -14.6107 -14.2923 -14.2138
   -14.1523 -14.1426 -13.1971 -13.1809 -12.6887 -12.4259 -12.4015 -12.3579
   -12.2924 -11.4934 -11.4774 -11.3359 -11.3224 -10.5169 -10.0820 -10.0199
    -9.9836  -9.6674  -9.3500  -9.0939  -9.0688  -8.6543  -8.4164  -8.4007
    -7.9919  -7.0033  -6.9607  -6.9135  -6.8869  -6.7954  -6.7554  -6.3852
    -6.2174  -6.0747  -5.8530  -5.7014  -5.5064  -5.4706  -5.3531  -5.2170
    -5.2052  -5.1853  -5.1458  -4.9471  -4.9420  -4.5642  -4.5491  -4.3674
    -4.1001  -3.9890  -3.8875  -3.8700  -3.8385  -3.8206  -3.6941  -3.6733
    -3.6491  -3.6379  -3.6329  -3.4778  -3.4756  -3.2528  -3.1252  -3.0930
    -3.0758  -3.0526  -3.0351  -2.9335  -2.9111  -2.8497  -2.8435  -2.7996
    -2.7426  -2.7331  -2.7292  -2.7152  -2.6473  -2.5528  -2.5491  -2.5235
    -2.5021  -2.4431  -2.4409  -2.3354  -2.2987  -2.1760  -2.1029  -2.0427
    -1.9543  -1.9525  -1.8669  -1.7752  -1.7469  -1.7448  -1.7431  -1.7320
    -1.7233  -1.7012  -1.6934  -1.5887  -1.5733  -1.5143  -1.4898  -1.4623
    -1.4507  -1.4494  -1.4456  -1.4441  -1.4418  -1.4396  -1.4374  -1.4232
    -1.4212  -1.4045  -1.3908  -1.3680  -1.3329  -1.2811  -1.2785  -1.2685
    -1.2250  -1.2189  -1.2182  -1.2159  -1.2071  -1.2046  -1.1935  -1.1773
    -1.1530  -1.1498  -1.1449  -1.1375  -1.0684  -1.0549  -1.0173  -0.9695
    -0.9656  -0.9631  -0.9468  -0.9409  -0.9000  -0.8948  -0.8916  -0.8871
    -0.8851  -0.8663  -0.8476  -0.8384  -0.8361  -0.8314  -0.8296  -0.8232
    -0.8181  -0.7925  -0.7850  -0.7814  -0.7766  -0.7633  -0.7579  -0.7492
    -0.7483  -0.7427  -0.7404  -0.7232  -0.7015  -0.6930  -0.6725  -0.6667
    -0.6627  -0.6590  -0.6554  -0.6510  -0.6500  -0.6478  -0.6469  -0.6456
    -0.6444  -0.6269  -0.6252  -0.6192  -0.6157  -0.6099  -0.6069  -0.5999
    -0.5880  -0.5826  -0.5502  -0.5267  -0.5209  -0.4999  -0.4958  -0.4692
    -0.4583  -0.4576  -0.4394  -0.4273  -0.4241  -0.4177  -0.4122  -0.3916
    -0.3882  -0.3849  -0.3830  -0.3717  -0.3685  -0.3597  -0.3548  -0.3538
    -0.2575  -0.2567  -0.2307  -0.2264  -0.2189  -0.2161  -0.2142  -0.2048
    -0.2000  -0.1989  -0.1960  -0.1774  -0.1734  -0.1705  -0.1698  -0.1541
    -0.1434  -0.1316  -0.1292  -0.1275  -0.1268  -0.1242  -0.1201  -0.1174
    -0.1164  -0.1073  -0.0694  -0.0607  -0.0573  -0.0540  -0.0396  -0.0378
    -0.0367  -0.0331  -0.0178  -0.0150  -0.0024  -0.0010   0.0046   0.0057
     0.0068   0.0168   0.0322   0.0411   0.0461   0.0488   0.0591   0.0594
     0.0640   0.0693   0.0708   0.0846   0.0884   0.0916   0.0975   0.1003
     0.1112   0.1202   0.1394   0.1534   0.1556   0.1583   0.1598   0.1693
     0.1751   0.1761   0.1797   0.1835   0.1848   0.1862   0.2097   0.2213
     0.2238   0.2334   0.2350   0.2410   0.2421   0.2554   0.2617   0.2686
     0.2827   0.2940   0.2990   0.3030   0.3090   0.3226   0.3236   0.3258
     0.3285   0.3366   0.3419   0.3435   0.3487   0.3495   0.3636   0.3684
     0.3699   0.3736   0.3750   0.3772   0.3854   0.3866   0.3895   0.3914
     0.3980   0.4010   0.4046   0.4273   0.4288   0.4332   0.4450   0.4474
     0.4559   0.4630   0.4670   0.4723   0.4747   0.4788   0.4805   0.4905
     0.4922   0.5000   0.5032   0.5226   0.5248   0.5531   0.5735   0.5751
     0.5943   0.5959   0.6065   0.6225   0.6274   0.6316   0.6327   0.6337
     0.6354   0.6374   0.6406   0.6427   0.6447   0.6513   0.6614   0.6748
     0.6799   0.6808   0.6839   0.6874   0.6991   0.7016   0.7184   0.7233
     0.7287   0.7308   0.7331   0.7344   0.7564   0.7575   0.7766   0.7832
     0.7892   0.7949   0.8020   0.8039   0.8090   0.8109   0.8126   0.8182
     0.8254   0.8329   0.8358   0.8430   0.8453   0.8512   0.8531   0.8555
     0.8567   0.8585   0.8636   0.8818   0.8900   0.8955   0.9015   0.9048
     0.9078   0.9132   0.9161   0.9186   0.9222   0.9309   0.9325   0.9391
     0.9435   0.9448   0.9484   0.9500   0.9585   0.9645   0.9694   0.9733
     0.9777   0.9817   0.9849   0.9867   0.9946   0.9956   1.0033   1.0053
     1.0091   1.0114   1.0180   1.0196   1.0464   1.0493   1.0529   1.0629
     1.0740   1.0819   1.0913   1.0920   1.1006   1.1033   1.1068   1.1080
     1.1097   1.1153   1.1176   1.1287   1.1318   1.1357   1.1397   1.1451
     1.1643   1.1727   1.1772   1.1831   1.1883   1.1956   1.1972   1.2009
     1.2027   1.2073   1.2176   1.2220   1.2266   1.2274   1.2320   1.2331
     1.2376   1.2406   1.2467   1.2501   1.2572   1.2626   1.2646   1.2708
     1.2809   1.2867   1.3002   1.3030   1.3144   1.3186   1.3294   1.3310
     1.3330   1.3446   1.3490   1.3547   1.3555   1.3584   1.3601   1.3614
     1.3654   1.3662   1.3693   1.3745   1.3783   1.3859   1.3885   1.3903
     1.3921   1.3954   1.3970   1.3999   1.4009   1.4097   1.4112   1.4134
     1.4198   1.4225   1.4299   1.4311   1.4327   1.4360   1.4424   1.4557
     1.4565   1.4600   1.4625   1.4642   1.4662   1.4695   1.4700   1.4717
     1.4748   1.4770   1.4792   1.4873   1.5032   1.5056   1.5079   1.5148
     1.5168   1.5326   1.5359   1.5369   1.5393   1.5408   1.5494   1.5535
     1.5620   1.5669   1.5714   1.5953   1.5973   1.5992   1.5997   1.6008
     1.6041   1.6070   1.6087   1.6171   1.6196   1.6254   1.6277   1.6330
     1.6352   1.6376   1.6435   1.6454   1.6478   1.6499   1.6554   1.6596
     1.6623   1.6650   1.6660   1.6678   1.6719   1.6737   1.6750   1.6852
     1.6862   1.6910   1.6925   1.6967   1.6989   1.7071   1.7188   1.7241
     1.7247   1.7370   1.7417   1.7556   1.7572   1.7595   1.7602   1.7654
     1.7663   1.7740   1.7762   1.7771   1.7780   1.7802   1.7822   1.7909
     1.7918   1.7950   1.7955   1.8007   1.8044   1.8070   1.8081   1.8207
     1.8217   1.8237   1.8254   1.8281   1.8287   1.8339   1.8370   1.8463
     1.8491   1.8506   1.8522   1.8645   1.8699   1.8923   1.8995   1.9124
     1.9242   1.9358   1.9628   1.9661   1.9697   1.9712   1.9789   2.0299
     2.0548   2.0592   2.1043   2.1092   2.1132   2.1385   2.1590   2.1782
     2.3631   2.3652   2.3764   2.3781   2.3888   2.3912   2.4900   2.5039
     2.5274   2.5665   2.6487   2.8870   2.8938   2.8961   2.9066   3.2514
     3.3171   3.3174   3.5030   3.5380   3.5441   3.5562   3.5575   3.5680
     3.5982   3.7500   3.8282   3.8337   3.9519   3.9603   4.0114   4.0193
     4.0240   4.0607   4.1121   4.1642   4.1774   4.2403   4.2454   4.3064
     4.3790   4.5898   4.6540   4.6753   4.8051   4.8568   5.0097   5.0967
     5.1527   5.1666   5.2753   5.2956   5.5319   5.5326   5.5679   5.5724
     5.6967   5.7139   5.7204   5.7723   5.7891   5.8298   5.8538   5.8572
     5.9016   5.9472   5.9691   5.9945   6.0784   6.1044   6.3212   6.3398
     6.3540   6.3624   6.3794   6.4569   6.9056   6.9321   6.9560   7.0284
     7.0709   7.0877   7.1788   7.2391   7.2824   7.3184   7.3447   7.3473
     7.3523   7.3803   7.4022   7.4144   7.4268   7.4704   7.4767   7.5462
     7.6255   7.6738   7.7101   7.8233   7.8642   7.8677   7.8819   7.9510
     8.0187   8.1203   8.1350   8.2111   8.2456   8.2891   8.3209   8.3866
     8.4011   8.4270   8.5018   8.5538   8.5871   8.5960   8.6088   8.7558
     8.7610   8.7748   8.7807   8.9085   8.9557   8.9657   8.9938   9.1298
     9.2557   9.2729   9.3603   9.3667   9.4389   9.4429   9.4684   9.4935
     9.5005   9.5244   9.5371   9.5444   9.5545   9.5918   9.6054   9.6250
     9.6401   9.6872   9.7311   9.8182   9.8227  10.0110  10.0279  10.0324
    10.1566

          k = 0.2500-0.2165 0.0000 (256316 PWs)   bands (ev):

   -22.4011 -21.1526 -15.5197 -15.4865 -14.7990 -14.7614 -14.5344 -14.4997
   -13.8208 -13.7870 -13.3603 -13.3549 -12.6248 -12.5714 -12.4122 -12.4074
   -11.9259 -11.8897 -11.3379 -11.3273 -10.6467 -10.6379 -10.4543 -10.4449
    -9.9864  -9.9306  -8.9485  -8.9151  -8.5244  -8.4992  -8.4137  -8.3869
    -7.8488  -7.8252  -7.7089  -7.7039  -6.4109  -6.2475  -6.0724  -6.0062
    -5.9089  -5.8711  -5.7691  -5.7482  -5.6818  -5.5999  -5.5190  -5.3890
    -5.3595  -5.3416  -5.3370  -5.2978  -4.4606  -4.4528  -4.3109  -4.3083
    -4.2651  -4.2202  -4.2143  -4.2059  -3.9854  -3.9775  -3.6836  -3.5813
    -3.5675  -3.5357  -3.5299  -3.3796  -3.2801  -3.2718  -3.0997  -3.0968
    -3.0592  -3.0173  -3.0074  -2.9807  -2.9526  -2.9238  -2.8628  -2.7045
    -2.6435  -2.6343  -2.6102  -2.5931  -2.5485  -2.5467  -2.5441  -2.3912
    -2.3416  -2.3348  -2.3327  -2.3302  -2.3151  -2.2961  -2.1463  -2.0268
    -2.0138  -1.9618  -1.9531  -1.8771  -1.8725  -1.8266  -1.8187  -1.8179
    -1.7935  -1.7823  -1.6851  -1.6541  -1.6534  -1.6291  -1.5663  -1.5208
    -1.4698  -1.4623  -1.4615  -1.4490  -1.4175  -1.3919  -1.3676  -1.3554
    -1.3542  -1.3515  -1.3363  -1.3315  -1.3268  -1.3261  -1.3205  -1.3170
    -1.3139  -1.3116  -1.2952  -1.2701  -1.2355  -1.2118  -1.1111  -1.1072
    -1.0792  -1.0715  -1.0574  -1.0523  -0.9803  -0.9733  -0.9410  -0.9356
    -0.9315  -0.9290  -0.9205  -0.9143  -0.9112  -0.9083  -0.8969  -0.8945
    -0.8869  -0.8863  -0.8812  -0.8766  -0.8692  -0.8655  -0.8574  -0.8544
    -0.8427  -0.8207  -0.8170  -0.8143  -0.8091  -0.8073  -0.7890  -0.7840
    -0.7825  -0.7582  -0.7543  -0.7516  -0.7507  -0.7207  -0.7070  -0.6899
    -0.6877  -0.6694  -0.6680  -0.6659  -0.6479  -0.6463  -0.6249  -0.6239
    -0.6161  -0.6127  -0.6050  -0.6021  -0.5979  -0.5954  -0.5893  -0.5789
    -0.5715  -0.5622  -0.5613  -0.5577  -0.5395  -0.5086  -0.5075  -0.4837
    -0.4545  -0.4487  -0.4077  -0.3995  -0.3961  -0.3924  -0.3661  -0.3637
    -0.3588  -0.3567  -0.3505  -0.3475  -0.3405  -0.3374  -0.3251  -0.2865
    -0.2830  -0.2608  -0.2602  -0.2459  -0.2414  -0.2265  -0.2155  -0.2152
    -0.1955  -0.1934  -0.1909  -0.1888  -0.1879  -0.1659  -0.1508  -0.1499
    -0.1471  -0.1453  -0.1377  -0.1341  -0.1315  -0.1137  -0.1111  -0.0819
    -0.0794  -0.0648  -0.0637  -0.0594  -0.0535  -0.0509  -0.0471  -0.0450
    -0.0262  -0.0234  -0.0223  -0.0199  -0.0137  -0.0123  -0.0084  -0.0033
     0.0095   0.0140   0.0161   0.0220   0.0347   0.0374   0.0410   0.0497
     0.0604   0.0659   0.0759   0.0810   0.0870   0.1027   0.1073   0.1087
     0.1111   0.1149   0.1232   0.1246   0.1456   0.1509   0.1549   0.1604
     0.1620   0.1654   0.1754   0.1787   0.2071   0.2102   0.2422   0.2442
     0.2448   0.2490   0.2526   0.2552   0.2574   0.2671   0.2687   0.2789
     0.2842   0.2880   0.3003   0.3034   0.3096   0.3114   0.3289   0.3346
     0.3356   0.3406   0.3421   0.3439   0.3460   0.3509   0.3556   0.3567
     0.3613   0.3625   0.3645   0.3670   0.3812   0.3830   0.3869   0.3905
     0.3996   0.4127   0.4198   0.4235   0.4254   0.4343   0.4465   0.4495
     0.4538   0.4662   0.4761   0.4792   0.4933   0.4949   0.4978   0.5033
     0.5090   0.5128   0.5184   0.5196   0.5251   0.5280   0.5306   0.5364
     0.5641   0.5766   0.5852   0.5873   0.6016   0.6140   0.6198   0.6283
     0.6335   0.6392   0.6435   0.6466   0.6532   0.6621   0.6699   0.6732
     0.6774   0.6870   0.6939   0.6960   0.6984   0.7001   0.7181   0.7243
     0.7274   0.7317   0.7340   0.7393   0.7438   0.7493   0.7553   0.7592
     0.7664   0.7704   0.7762   0.7789   0.7834   0.7934   0.8075   0.8099
     0.8174   0.8273   0.8358   0.8393   0.8446   0.8516   0.8537   0.8611
     0.8620   0.8654   0.8715   0.8792   0.8827   0.8911   0.9015   0.9241
     0.9323   0.9351   0.9366   0.9374   0.9435   0.9456   0.9556   0.9573
     0.9626   0.9639   0.9657   0.9678   0.9783   0.9798   0.9937   1.0010
     1.0019   1.0052   1.0104   1.0120   1.0142   1.0171   1.0199   1.0235
     1.0290   1.0326   1.0385   1.0408   1.0454   1.0488   1.0499   1.0539
     1.0563   1.0579   1.0612   1.0654   1.0675   1.0788   1.0812   1.0934
     1.0968   1.0992   1.1037   1.1086   1.1098   1.1143   1.1466   1.1574
     1.1692   1.1700   1.1724   1.1797   1.1835   1.1846   1.1869   1.1897
     1.1907   1.1914   1.2000   1.2014   1.2058   1.2067   1.2102   1.2109
     1.2169   1.2199   1.2308   1.2353   1.2486   1.2558   1.2567   1.2597
     1.2628   1.2659   1.2709   1.2736   1.2776   1.2795   1.2906   1.2985
     1.3046   1.3145   1.3184   1.3202   1.3215   1.3503   1.3594   1.3609
     1.3626   1.3715   1.3949   1.3960   1.4020   1.4112   1.4177   1.4261
     1.4277   1.4286   1.4302   1.4319   1.4342   1.4377   1.4423   1.4446
     1.4456   1.4467   1.4494   1.4522   1.4533   1.4576   1.4614   1.4674
     1.4724   1.4824   1.4859   1.4918   1.4935   1.4950   1.4992   1.5038
     1.5062   1.5095   1.5153   1.5183   1.5193   1.5203   1.5239   1.5317
     1.5383   1.5390   1.5426   1.5446   1.5467   1.5491   1.5504   1.5605
     1.5624   1.5663   1.5697   1.5726   1.5742   1.5752   1.5781   1.5826
     1.5844   1.5869   1.5922   1.5997   1.6027   1.6120   1.6126   1.6210
     1.6270   1.6310   1.6403   1.6419   1.6450   1.6543   1.6575   1.6594
     1.6632   1.6685   1.6725   1.6741   1.6790   1.6805   1.6874   1.6884
     1.7006   1.7025   1.7076   1.7086   1.7144   1.7162   1.7181   1.7195
     1.7316   1.7319   1.7356   1.7365   1.7527   1.7546   1.7589   1.7599
     1.7606   1.7623   1.7641   1.7682   1.7691   1.7697   1.7726   1.7765
     1.7809   1.7823   1.7964   1.7983   1.7997   1.8002   1.8020   1.8044
     1.8058   1.8098   1.8253   1.8258   1.8276   1.8472   1.8479   1.8532
     1.8622   1.8640   1.8710   1.8834   1.8891   1.8906   1.8968   1.9091
     1.9256   1.9274   1.9721   1.9764   2.0159   2.0313   2.0517   2.0634
     2.0656   2.0751   2.0779   2.0835   2.0905   2.1087   2.1136   2.1181
     2.1292   2.1628   2.3335   2.4656   2.4665   2.4932   2.4966   2.5442
     2.5853   2.6393   2.9221   2.9249   3.0544   3.0559   3.1004   3.1041
     3.1182   3.1234   3.1389   3.1406   3.2736   3.3218   3.3256   3.3897
     3.7505   3.7816   3.8290   3.8563   3.8812   3.9042   4.1656   4.1706
     4.1769   4.1828   4.3093   4.3121   4.4162   4.4311   4.4968   4.4974
     4.7066   4.7090   4.7873   4.7986   4.8436   4.9250   4.9695   4.9911
     4.9964   5.0818   5.0893   5.1953   5.2599   5.3294   5.3501   5.3848
     5.4595   5.4951   5.5680   5.6128   5.6536   5.7584   5.7837   5.8132
     5.9340   5.9561   6.0768   6.0892   6.0957   6.1058   6.1161   6.4746
     6.4973   6.6273   6.7073   6.7344   6.9073   6.9225   6.9834   6.9889
     7.0260   7.0492   7.0631   7.2073   7.2505   7.2811   7.2916   7.3616
     7.3954   7.4732   7.5401   7.5652   7.5774   7.5967   7.6279   7.7088
     7.7342   7.7397   7.7447   7.7598   7.7703   7.7879   7.8380   7.8886
     7.9993   8.0493   8.0624   8.1134   8.1465   8.3013   8.3466   8.3989
     8.4060   8.5118   8.5198   8.6641   8.7423   8.7542   8.8263   8.8311
     8.8529   8.8665   8.8762   8.9703   8.9993   9.0146   9.0519   9.0754
     9.0819   9.1126   9.1748   9.1848   9.2292   9.2572   9.3578   9.4021
     9.4133   9.4223   9.4378   9.4554   9.5277   9.5438   9.5585   9.6140
     9.6359   9.6974   9.7021   9.7215   9.7452   9.7768   9.7923   9.8590
    10.0274

          k =-0.5000 0.0000 0.0000 (256496 PWs)   bands (ev):

   -22.4010 -21.1526 -15.2512 -15.2011 -14.9284 -14.8589 -14.8305 -14.8180
   -13.8264 -13.8015 -13.7666 -13.7608 -12.1041 -12.0757 -12.0308 -12.0241
   -11.4147 -11.4108 -11.1303 -11.1208 -11.0424 -11.0363 -10.4608 -10.4484
   -10.2336 -10.1605  -9.4758  -9.4629  -9.0817  -9.0241  -8.3049  -8.2830
    -8.2602  -8.2417  -6.9094  -6.8671  -6.8090  -6.7789  -6.7314  -6.7223
    -6.3123  -5.9993  -5.6972  -5.3551  -5.1890  -5.1626  -4.9427  -4.9425
    -4.4412  -4.4384  -4.4356  -4.4333  -4.4111  -4.4017  -4.1007  -4.0692
    -4.0481  -4.0429  -4.0218  -4.0185  -3.9799  -3.9729  -3.8690  -3.8645
    -3.7870  -3.7795  -3.7470  -3.7427  -3.4415  -3.4234  -3.4132  -3.4074
    -3.2780  -3.2287  -3.0688  -3.0598  -3.0581  -3.0558  -3.0051  -2.8457
    -2.8301  -2.8035  -2.7943  -2.7259  -2.7193  -2.7146  -2.7008  -2.4458
    -2.3285  -2.3109  -2.3027  -2.2860  -2.2847  -2.2778  -2.2744  -2.1263
    -2.1152  -2.0998  -2.0915  -2.0166  -2.0038  -1.9721  -1.9517  -1.7915
    -1.6131  -1.5897  -1.5313  -1.5295  -1.5278  -1.5272  -1.5252  -1.5179
    -1.4625  -1.4536  -1.4290  -1.4284  -1.2985  -1.2982  -1.2944  -1.2936
    -1.2709  -1.2552  -1.2523  -1.2456  -1.2400  -1.1807  -1.1677  -1.1490
    -1.1421  -1.1096  -1.0729  -1.0714  -1.0661  -1.0637  -1.0594  -1.0586
    -1.0235  -1.0155  -1.0096  -1.0016  -0.9992  -0.9962  -0.9947  -0.9939
    -0.9929  -0.9844  -0.9792  -0.9744  -0.9484  -0.9468  -0.9424  -0.9355
    -0.9146  -0.9138  -0.9116  -0.9103  -0.9092  -0.8903  -0.8868  -0.8681
    -0.8590  -0.8578  -0.8425  -0.8308  -0.8262  -0.8241  -0.8234  -0.8158
    -0.8074  -0.8011  -0.7831  -0.7783  -0.7722  -0.7722  -0.7579  -0.7554
    -0.7431  -0.7421  -0.7239  -0.7223  -0.7150  -0.7148  -0.6541  -0.6517
    -0.6359  -0.6319  -0.6300  -0.6255  -0.6071  -0.6044  -0.6011  -0.5991
    -0.5871  -0.5769  -0.5728  -0.5717  -0.5630  -0.5607  -0.5602  -0.5586
    -0.5329  -0.5325  -0.4712  -0.4691  -0.4674  -0.4653  -0.4400  -0.4382
    -0.4351  -0.3938  -0.3606  -0.3582  -0.3554  -0.3542  -0.3298  -0.3186
    -0.3127  -0.3116  -0.3097  -0.3059  -0.2843  -0.2725  -0.2613  -0.2553
    -0.2480  -0.2434  -0.2406  -0.2401  -0.2354  -0.2286  -0.2263  -0.2263
    -0.2197  -0.2185  -0.1030  -0.0979  -0.0943  -0.0893  -0.0797  -0.0762
    -0.0662  -0.0626  -0.0592  -0.0588  -0.0580  -0.0543  -0.0527  -0.0404
    -0.0271  -0.0192  -0.0173  -0.0158   0.0184   0.0195   0.0219   0.0273
     0.0294   0.0328   0.0462   0.0487   0.0517   0.0530   0.0571   0.0579
     0.0602   0.0625   0.0665   0.0680   0.0982   0.1016   0.1105   0.1142
     0.1395   0.1399   0.1434   0.1457   0.1921   0.1948   0.1975   0.1979
     0.2080   0.2092   0.2140   0.2154   0.2538   0.2549   0.2664   0.2669
     0.2815   0.2837   0.2972   0.3055   0.3074   0.3093   0.3209   0.3212
     0.3234   0.3265   0.3281   0.3312   0.3341   0.3349   0.3457   0.3486
     0.3848   0.3931   0.4020   0.4032   0.4060   0.4137   0.4187   0.4218
     0.4228   0.4236   0.4267   0.4276   0.4301   0.4306   0.4346   0.4364
     0.4379   0.4401   0.4431   0.4485   0.4532   0.4570   0.4617   0.4671
     0.4693   0.4729   0.4736   0.4780   0.4800   0.4829   0.4867   0.4891
     0.4929   0.4991   0.5082   0.5088   0.5145   0.5315   0.5346   0.5374
     0.5408   0.5419   0.5840   0.6007   0.6142   0.6165   0.6230   0.6354
     0.6437   0.6511   0.6540   0.6651   0.6669   0.6709   0.6713   0.6773
     0.6960   0.6978   0.7005   0.7053   0.7093   0.7176   0.7290   0.7332
     0.7365   0.7387   0.7412   0.7457   0.7471   0.7512   0.7546   0.7573
     0.7600   0.7625   0.7646   0.7665   0.8158   0.8258   0.8316   0.8425
     0.8436   0.8513   0.8551   0.8604   0.8714   0.8755   0.8765   0.8792
     0.8825   0.8853   0.8884   0.8890   0.8946   0.8962   0.8979   0.9010
     0.9032   0.9038   0.9112   0.9131   0.9168   0.9182   0.9225   0.9231
     0.9371   0.9415   0.9473   0.9542   0.9557   0.9697   0.9734   0.9744
     0.9825   0.9864   0.9888   0.9912   0.9925   0.9950   0.9967   1.0012
     1.0033   1.0063   1.0098   1.0135   1.0152   1.0157   1.0200   1.0263
     1.0413   1.0436   1.0631   1.0717   1.0740   1.0770   1.0801   1.0830
     1.0869   1.0913   1.1138   1.1251   1.1299   1.1380   1.1394   1.1429
     1.1498   1.1544   1.1634   1.1694   1.1716   1.1746   1.1756   1.1767
     1.1774   1.1842   1.1861   1.1904   1.1944   1.1984   1.2072   1.2106
     1.2124   1.2163   1.2212   1.2245   1.2338   1.2365   1.2371   1.2429
     1.2492   1.2548   1.2571   1.2578   1.2605   1.2645   1.2655   1.2762
     1.2802   1.2825   1.2842   1.3062   1.3504   1.3512   1.3550   1.3579
     1.3603   1.3619   1.3796   1.3823   1.3874   1.3998   1.4031   1.4098
     1.4103   1.4176   1.4247   1.4279   1.4328   1.4375   1.4391   1.4517
     1.4541   1.4561   1.4569   1.4582   1.4606   1.4627   1.4690   1.4724
     1.4746   1.4784   1.4796   1.4818   1.4830   1.4857   1.4924   1.4956
     1.4972   1.4994   1.5004   1.5017   1.5034   1.5106   1.5155   1.5180
     1.5334   1.5451   1.5512   1.5538   1.5570   1.5571   1.5617   1.5677
     1.5711   1.5722   1.5765   1.5779   1.5797   1.5801   1.5854   1.5869
     1.5883   1.5895   1.5927   1.5984   1.6073   1.6345   1.6361   1.6370
     1.6385   1.6408   1.6418   1.6443   1.6444   1.6476   1.6515   1.6539
     1.6562   1.6590   1.6599   1.6744   1.6755   1.6765   1.6768   1.6791
     1.6795   1.6822   1.6836   1.6888   1.6914   1.6921   1.6969   1.6991
     1.7006   1.7036   1.7075   1.7091   1.7103   1.7113   1.7185   1.7451
     1.7467   1.7481   1.7490   1.7507   1.7526   1.7541   1.7569   1.7635
     1.7756   1.7770   1.7784   1.7792   1.7871   1.7879   1.7904   1.7918
     1.7953   1.8023   1.8054   1.8087   1.8112   1.8306   1.8319   1.8334
     1.8351   1.8373   1.8414   1.8417   1.8469   1.8477   1.8499   1.8541
     1.8548   1.8606   1.8723   1.8937   1.8973   1.9122   1.9153   1.9200
     1.9458   1.9471   1.9475   1.9524   1.9733   2.0578   2.3237   2.3250
     2.3359   2.3392   2.5050   2.5178   2.5597   2.5733   2.6295   2.6306
     2.6335   2.6338   2.8392   2.8499   2.8807   2.9190   3.1626   3.1669
     3.1708   3.1731   3.5230   3.5252   3.5307   3.5360   3.7882   3.8024
     3.9880   3.9912   4.0081   4.0140   4.2195   4.2345   4.2482   4.2557
     4.3063   4.3306   4.4083   4.4114   4.4206   4.4355   4.8481   4.8619
     4.9090   4.9579   5.0695   5.0937   5.1501   5.1572   5.1657   5.1790
     5.2473   5.3068   5.3384   5.3447   5.3506   5.3559   5.3668   5.3838
     5.3887   5.3909   5.3963   5.4241   5.6252   5.7034   5.7287   5.7548
     5.7752   5.7984   5.8138   5.8445   5.9051   5.9134   6.1988   6.2160
     6.2367   6.2425   6.2914   6.3029   6.3216   6.3337   6.3530   6.3906
     6.4578   6.4924   6.5651   6.6565   6.8941   6.9868   7.0240   7.0666
     7.3208   7.3348   7.3509   7.3585   7.3746   7.3990   7.6773   7.7927
     7.8333   7.8416   7.8595   7.8896   7.8985   7.9004   7.9129   8.0285
     8.1030   8.1149   8.1187   8.1344   8.1834   8.1896   8.1958   8.2076
     8.2172   8.2437   8.2906   8.3023   8.3374   8.3614   8.3744   8.4815
     8.6128   8.6161   8.6433   8.6585   8.7592   8.7742   9.0927   9.0966
     9.1017   9.1029   9.2653   9.2725   9.2765   9.2797   9.2909   9.2998
     9.3318   9.3426   9.5664   9.5961   9.6076   9.6210   9.6829   9.6885
     9.7645   9.7782   9.7864   9.7947   9.8134   9.8757   9.9119   9.9295
    10.0014

          k =-0.5000-0.2165 0.0000 (256328 PWs)   bands (ev):

   -22.4010 -21.1526 -15.1956 -15.1170 -15.1132 -15.1078 -14.4559 -14.4076
   -14.3945 -14.3809 -13.0347 -13.0226 -12.9746 -12.9704 -11.3677 -11.3583
   -11.2984 -11.2977 -11.0482 -11.0134 -10.9783 -10.9539 -10.7412 -10.7310
   -10.6985 -10.6918  -9.0883  -9.0672  -9.0450  -9.0382  -8.1923  -8.1570
    -8.1103  -8.1066  -7.4270  -7.3997  -7.3953  -7.3785  -6.3367  -6.0538
    -5.6945  -5.3819  -5.3691  -5.3180  -5.3079  -5.2915  -4.8183  -4.8168
    -4.8124  -4.8106  -4.6535  -4.6453  -4.6392  -4.6285  -4.3233  -4.3087
    -4.2965  -4.2938  -3.8382  -3.8351  -3.8326  -3.8309  -3.7752  -3.7706
    -3.7304  -3.7235  -3.5092  -3.4922  -3.4795  -3.4712  -3.2814  -3.2527
    -3.2286  -3.0793  -3.0715  -3.0668  -3.0616  -3.0143  -2.9982  -2.9833
    -2.9364  -2.9083  -2.8923  -2.8847  -2.8774  -2.8350  -2.6725  -2.3561
    -2.3325  -2.2365  -2.2341  -2.2234  -2.2231  -2.2214  -2.2193  -2.1924
    -2.1827  -1.9443  -1.8317  -1.8235  -1.7538  -1.7481  -1.7385  -1.7251
    -1.7188  -1.7177  -1.7147  -1.7072  -1.7051  -1.7005  -1.6561  -1.6199
    -1.4603  -1.4486  -1.4481  -1.4412  -1.3831  -1.3766  -1.3662  -1.3614
    -1.2395  -1.2387  -1.2332  -1.2316  -1.1548  -1.1499  -1.1460  -1.1445
    -1.1432  -1.1409  -1.1202  -1.1055  -1.0853  -1.0838  -1.0755  -1.0737
    -1.0518  -1.0464  -1.0312  -1.0278  -1.0252  -1.0219  -1.0196  -1.0180
    -1.0059  -1.0031  -1.0020  -0.9989  -0.9586  -0.9570  -0.9422  -0.9304
    -0.9134  -0.9067  -0.8925  -0.8816  -0.8551  -0.8517  -0.8362  -0.8302
    -0.8192  -0.8112  -0.8002  -0.7989  -0.7968  -0.7955  -0.7874  -0.7850
    -0.7840  -0.7825  -0.7735  -0.7699  -0.7657  -0.7605  -0.7585  -0.7564
    -0.7251  -0.7229  -0.7122  -0.7109  -0.6907  -0.6874  -0.6781  -0.6763
    -0.6738  -0.6728  -0.6713  -0.6689  -0.6675  -0.6640  -0.5380  -0.5218
    -0.5193  -0.5140  -0.5083  -0.5074  -0.5054  -0.5049  -0.5044  -0.4706
    -0.4657  -0.4563  -0.4477  -0.4325  -0.4266  -0.4223  -0.4208  -0.4145
    -0.4033  -0.3999  -0.3994  -0.3982  -0.3982  -0.3942  -0.3908  -0.3549
    -0.3497  -0.3484  -0.3464  -0.3444  -0.3338  -0.3274  -0.3212  -0.3205
    -0.3182  -0.3040  -0.2718  -0.2681  -0.2177  -0.2085  -0.2057  -0.2011
    -0.1774  -0.1742  -0.1733  -0.1676  -0.1484  -0.1463  -0.1402  -0.1390
    -0.0998  -0.0987  -0.0945  -0.0939  -0.0764  -0.0710  -0.0681  -0.0645
    -0.0424  -0.0416  -0.0351  -0.0340  -0.0306  -0.0207  -0.0178  -0.0097
     0.0385   0.0428   0.0492   0.0541   0.0587   0.0600   0.0803   0.0840
     0.0964   0.0970   0.1025   0.1066   0.1074   0.1104   0.1199   0.1204
     0.1672   0.1681   0.1743   0.1753   0.1788   0.1793   0.1853   0.1861
     0.2027   0.2044   0.2073   0.2094   0.2238   0.2242   0.2252   0.2263
     0.2405   0.2416   0.2467   0.2525   0.2600   0.2614   0.2696   0.2709
     0.3016   0.3044   0.3216   0.3276   0.3301   0.3314   0.3790   0.3828
     0.3855   0.3942   0.3976   0.3980   0.3984   0.4027   0.4131   0.4188
     0.4231   0.4297   0.4323   0.4407   0.4408   0.4454   0.4472   0.4498
     0.4573   0.4585   0.4601   0.4607   0.4629   0.4648   0.4681   0.4687
     0.4698   0.4723   0.4736   0.4752   0.4968   0.4988   0.5064   0.5178
     0.5194   0.5227   0.5246   0.5318   0.5392   0.5426   0.5481   0.5527
     0.5620   0.5694   0.5769   0.5830   0.5954   0.5985   0.6023   0.6087
     0.6382   0.6424   0.6503   0.6583   0.6627   0.6643   0.6973   0.7024
     0.7082   0.7098   0.7213   0.7300   0.7406   0.7409   0.7486   0.7489
     0.7540   0.7552   0.7594   0.7641   0.7867   0.7950   0.8005   0.8032
     0.8045   0.8088   0.8120   0.8129   0.8143   0.8150   0.8194   0.8197
     0.8230   0.8242   0.8380   0.8466   0.8480   0.8545   0.8570   0.8574
     0.8590   0.8647   0.8832   0.8837   0.8888   0.8991   0.9052   0.9083
     0.9092   0.9141   0.9203   0.9235   0.9237   0.9328   0.9338   0.9395
     0.9480   0.9509   0.9640   0.9657   0.9683   0.9710   0.9714   0.9754
     0.9775   0.9796   0.9806   0.9851   0.9888   0.9936   1.0177   1.0232
     1.0241   1.0249   1.0261   1.0317   1.0345   1.0384   1.0425   1.0436
     1.0546   1.0683   1.0726   1.0729   1.0753   1.0783   1.0828   1.0838
     1.0858   1.0879   1.0897   1.0972   1.1005   1.1136   1.1175   1.1252
     1.1262   1.1295   1.1531   1.1563   1.1617   1.1655   1.1680   1.1716
     1.1851   1.1928   1.1947   1.1970   1.2137   1.2151   1.2165   1.2179
     1.2303   1.2619   1.2627   1.2722   1.2754   1.2824   1.2862   1.2956
     1.2989   1.3013   1.3087   1.3108   1.3205   1.3215   1.3361   1.3396
     1.3414   1.3445   1.3456   1.3535   1.3585   1.3599   1.3709   1.3754
     1.3778   1.3801   1.3813   1.3827   1.3842   1.3852   1.3884   1.3919
     1.3927   1.3957   1.3976   1.3988   1.4018   1.4090   1.4163   1.4181
     1.4198   1.4232   1.4260   1.4288   1.4314   1.4324   1.4341   1.4399
     1.4425   1.4469   1.4536   1.4573   1.4629   1.4656   1.4679   1.4777
     1.4798   1.4810   1.4832   1.4856   1.4870   1.4879   1.5326   1.5359
     1.5371   1.5387   1.5416   1.5454   1.5469   1.5496   1.5503   1.5517
     1.5547   1.5587   1.5634   1.5649   1.5680   1.5692   1.5699   1.5720
     1.5735   1.5759   1.5942   1.6202   1.6207   1.6229   1.6236   1.6241
     1.6252   1.6258   1.6266   1.6297   1.6304   1.6314   1.6387   1.6681
     1.6737   1.6767   1.6809   1.6870   1.6886   1.6952   1.6960   1.7007
[...]
     smearing contrib. (-TS)   =      -3.36580081 Ry

     convergence has been achieved in  14 iterations

     negative rho (up, down):  1.500E-03 0.000E+00

     Forces acting on atoms (Ry/au):

     atom    1 type  1   force =     0.00002800   -0.00007367   -0.00023461
     atom    2 type  1   force =     0.00008673    0.00016690    0.00028957
     atom    3 type  1   force =    -0.00007720    0.00015255    0.00019146
     atom    4 type  1   force =    -0.00000103    0.00043798    0.00057134
     atom    5 type  1   force =    -0.00009066    0.00027142    0.00058664
     atom    6 type  1   force =     0.00006236    0.00023522    0.00034864
     atom    7 type  1   force =     0.00019736    0.00014957    0.00015802
     atom    8 type  1   force =     0.00024045   -0.00004948   -0.00001986
     atom    9 type  1   force =     0.00035011   -0.00007772    0.00026903
     atom   10 type  1   force =     0.00002287   -0.00023902    0.00031156
     atom   11 type  1   force =    -0.00006256   -0.00008321    0.00005177
     atom   12 type  1   force =     0.00032363   -0.00005295    0.00013726
     atom   13 type  1   force =     0.00002642   -0.00021370    0.00044431
     atom   14 type  1   force =     0.00018061    0.00018147    0.00015366
     atom   15 type  1   force =     0.00013441   -0.00005149    0.00010415
     atom   16 type  1   force =    -0.00007622    0.00006302    0.00012742
     atom   17 type  1   force =    -0.00005581    0.00050478   -0.00042863
     atom   18 type  1   force =    -0.00004753    0.00027373   -0.00073649
     atom   19 type  1   force =     0.00001580    0.00017206   -0.00012214
     atom   20 type  1   force =    -0.00009540    0.00023296   -0.00033187
     atom   21 type  1   force =     0.00004456    0.00070977    0.00074995
     atom   22 type  1   force =     0.00019169    0.00086269    0.00092153
     atom   23 type  1   force =     0.00004080    0.00071137    0.00091790
     atom   24 type  1   force =    -0.00012882    0.00066843    0.00030206
     atom   25 type  1   force =    -0.00005181    0.00066778    0.00127714
     atom   26 type  1   force =     0.00005222    0.00029686    0.00051282
     atom   27 type  1   force =     0.00036564    0.00020032    0.00075505
     atom   28 type  1   force =     0.00020353    0.00091702    0.00137066
     atom   29 type  1   force =     0.00004824   -0.00045276    0.00137040
     atom   30 type  1   force =    -0.00042011    0.00009426    0.00109364
     atom   31 type  1   force =     0.00028061    0.00007560    0.00029835
     atom   32 type  1   force =     0.00023785    0.00000099    0.00051985
     atom   33 type  1   force =     0.00014345   -0.00053521    0.00051009
     atom   34 type  1   force =     0.00037654   -0.00037213    0.00089728
     atom   35 type  1   force =     0.00006187   -0.00133162    0.00181108
     atom   36 type  1   force =     0.00002805   -0.00077261    0.00122573
     atom   37 type  1   force =     0.00008688    0.00040398   -0.00003621
     atom   38 type  1   force =     0.00029424   -0.00035252    0.00033321
     atom   39 type  1   force =     0.00001718    0.00006223    0.00011853
     atom   40 type  1   force =    -0.00018176   -0.00051975    0.00010850
     atom   41 type  1   force =     0.00033794    0.00094499    0.00023346
     atom   42 type  1   force =     0.00001512   -0.00158900   -0.00160921
     atom   43 type  1   force =    -0.00008708    0.00052498    0.00017402
     atom   44 type  1   force =     0.00024995    0.00076532    0.00066645
     atom   45 type  1   force =    -0.00072894    0.00014799   -0.00000567
     atom   46 type  1   force =    -0.00096384    0.00047069    0.00005844
     atom   47 type  1   force =     0.00129605   -0.00096553   -0.00209821
     atom   48 type  1   force =    -0.00016254   -0.00140235   -0.00151446
     atom   49 type  1   force =     0.00117568    0.00107740   -0.00232406
     atom   50 type  1   force =    -0.00133724   -0.00038084   -0.00077802
     atom   51 type  1   force =    -0.00003490    0.00028183    0.00172307
     atom   52 type  1   force =     0.00049506    0.00066870   -0.00062990
     atom   53 type  1   force =    -0.00023443   -0.00037787    0.00028955
     atom   54 type  1   force =     0.00054238   -0.00041692   -0.00003381
     atom   55 type  1   force =     0.00072163    0.00229545   -0.00245196
     atom   56 type  1   force =    -0.00009442   -0.00114619    0.00076695
     atom   57 type  1   force =     0.00036905   -0.00082974    0.00008728
     atom   58 type  1   force =     0.00014061    0.00016523   -0.00010976
     atom   59 type  1   force =     0.00005198   -0.00033014    0.00001808
     atom   60 type  1   force =     0.00024490    0.00032173    0.00029755
     atom   61 type  1   force =    -0.00064131   -0.00079773    0.00012292
     atom   62 type  1   force =     0.00005894   -0.00032415    0.00006306
     atom   63 type  1   force =     0.00151358   -0.00131303    0.00041392
     atom   64 type  1   force =     0.00043887    0.00089561    0.00039071
     atom   65 type  1   force =    -0.00069588   -0.00253974   -0.00103897
     atom   66 type  1   force =    -0.00171945   -0.00261312   -0.00269710
     atom   67 type  1   force =     0.00023637    0.00167893   -0.00012449
     atom   68 type  1   force =     0.00062589   -0.00121955    0.00045144
     atom   69 type  1   force =     0.00014084    0.00250191    0.00048453
     atom   70 type  1   force =     0.00042201    0.00088601   -0.00050426
     atom   71 type  1   force =     0.00022756   -0.00383575    0.00272692
     atom   72 type  1   force =    -0.00343818    0.00073739    0.00352124
     atom   73 type  1   force =    -0.00004457   -0.00063745    0.00013409
     atom   74 type  1   force =    -0.00178049    0.00114118    0.00085300
     atom   75 type  1   force =     0.00066153    0.00069167    0.00052683
     atom   76 type  1   force =     0.00121489    0.00052616    0.00166963
     atom   77 type  1   force =     0.00032067    0.00002958    0.00039415
     atom   78 type  1   force =     0.00034874   -0.00016619   -0.00029262
     atom   79 type  1   force =     0.00021952    0.00034367   -0.00010719
     atom   80 type  1   force =     0.00034753   -0.00027570    0.00021324
     atom   81 type  1   force =     0.00004204    0.00052218    0.00011842
     atom   82 type  1   force =    -0.00006031   -0.00004207    0.00045744
     atom   83 type  1   force =     0.00083549   -0.00011203    0.00024685
     atom   84 type  1   force =     0.00006321   -0.00056429   -0.00002403
     atom   85 type  1   force =    -0.00111020   -0.00144718   -0.00011441
     atom   86 type  1   force =     0.00130433    0.00375548    0.00443290
     atom   87 type  1   force =     0.00016145    0.00014143    0.00090541
     atom   88 type  1   force =    -0.00129857    0.00142015    0.00189563
     atom   89 type  1   force =     0.00083843   -0.00030607    0.00233034
     atom   90 type  1   force =     0.00128638   -0.00127494    0.00179683
     atom   91 type  1   force =    -0.00412270   -0.00141542    0.00320427
     atom   92 type  1   force =    -0.00231502   -0.00201405    0.00218532
     atom   93 type  1   force =    -0.00091291    0.00017950   -0.00059717
     atom   94 type  1   force =    -0.00049600   -0.00040077   -0.00046120
     atom   95 type  1   force =     0.00029950   -0.00000524    0.00180088
     atom   96 type  1   force =     0.00015023   -0.00015573   -0.00044113
     atom   97 type  1   force =    -0.00005148   -0.00055350   -0.00003186
     atom   98 type  1   force =    -0.00022696   -0.00008684    0.00019558
     atom   99 type  1   force =     0.00081978    0.00046602    0.00023331
     atom  100 type  1   force =     0.00081220    0.00041833    0.00037617
     atom  101 type  3   force =     0.00035151    0.00049811   -0.00281652
     atom  102 type  3   force =    -0.00103071    0.00046310   -0.00162401
     atom  103 type  3   force =     0.00062256   -0.00007118    0.00332640
     atom  104 type  3   force =     0.00090996   -0.00166167    0.00010867
     atom  105 type  3   force =    -0.00090990    0.00009655    0.00069003
     atom  106 type  3   force =     0.00023455    0.00134887   -0.00349984
     atom  107 type  3   force =     0.00076235   -0.00011395    0.00097115
     atom  108 type  3   force =    -0.00001644   -0.00128297    0.00265333
     atom  109 type  3   force =    -0.00023045   -0.00025049   -0.00243793
     atom  110 type  3   force =     0.00065708   -0.00093917   -0.00026045
     atom  111 type  3   force =     0.00033178    0.00230661   -0.00368184
     atom  112 type  3   force =    -0.00018077   -0.00032941   -0.00555985
     atom  113 type  3   force =    -0.00114555   -0.00153664    0.00058670
     atom  114 type  3   force =     0.00023508   -0.00071892   -0.00008305
     atom  115 type  3   force =    -0.00061570   -0.00148803    0.00241752
     atom  116 type  3   force =    -0.00144545   -0.00044265   -0.00598528
     atom  117 type  3   force =    -0.00056795   -0.00134893   -0.00344170
     atom  118 type  3   force =    -0.00055599   -0.00184227   -0.00216293
     atom  119 type  3   force =     0.00147881   -0.00022128    0.00263985
     atom  120 type  3   force =    -0.00108638   -0.00006375   -0.00429651
     atom  121 type  3   force =    -0.00037227   -0.00075045    0.00041825
     atom  122 type  3   force =    -0.00007987    0.00090525    0.00053071
     atom  123 type  3   force =     0.00095775   -0.00124835   -0.00487800
     atom  124 type  3   force =    -0.00012083    0.00101638    0.00155057
     atom  125 type  3   force =     0.00040114    0.00063252   -0.00305455
     atom  126 type  3   force =    -0.00024035    0.00118732   -0.00491433
     atom  127 type  3   force =     0.00019720    0.00060468    0.00015000
     atom  128 type  3   force =     0.00042367   -0.00131297   -0.00270053
     atom  129 type  3   force =    -0.00081477    0.00187010    0.00354446
     atom  130 type  3   force =    -0.00027890    0.00169993   -0.00118625
     atom  131 type  3   force =     0.00014340   -0.00002526    0.00158802
     atom  132 type  3   force =    -0.00247605   -0.00148121   -0.00180376
     atom  133 type  3   force =    -0.00011041    0.00119345   -0.00044207
     atom  134 type  3   force =     0.00211662    0.00150235   -0.00249098
     atom  135 type  3   force =     0.00081439    0.00151576   -0.00307843
     atom  136 type  3   force =    -0.00159349   -0.00215190   -0.00396845
     atom  137 type  3   force =    -0.00198018   -0.00174893   -0.00083586
     atom  138 type  3   force =     0.00216643   -0.00038577    0.00378943
     atom  139 type  3   force =     0.00158397    0.00104962   -0.00184260
     atom  140 type  3   force =    -0.00247063   -0.00064954    0.00206614
     atom  141 type  3   force =    -0.00095724   -0.00127313    0.00037764
     atom  142 type  3   force =     0.00237686    0.00044610   -0.00323531
     atom  143 type  3   force =     0.00277687    0.00245576    0.00212963
     atom  144 type  3   force =    -0.00110889   -0.00048991   -0.00207086
     atom  145 type  3   force =    -0.00267890   -0.00063190    0.00219337
     atom  146 type  3   force =     0.00249393    0.00126415    0.00162998
     atom  147 type  3   force =     0.00320360   -0.00004280   -0.00209923
     atom  148 type  3   force =    -0.00070315   -0.00014723    0.00345584
     atom  149 type  3   force =     0.00116507    0.00022454    0.00643436
     atom  150 type  4   force =     0.00443295    0.00399873   -0.00441896
     atom  151 type  4   force =    -0.00639241    0.00057530    0.00021888

     Total force =     0.030765     Total SCF correction =     0.000338

     number of scf cycles    =  25
     number of bfgs steps    =  24

     energy   old            =  -12773.8167008033 Ry
     energy   new            =  -12773.8180346286 Ry

     CASE: energy  _new < energy  _old

     new trust radius        =       0.0441676687 bohr
     new conv_thr            =       0.0000000100 Ry


ATOMIC_POSITIONS (angstrom)
Cu       0.006325090  -0.013539656   7.362005371
Cu       1.851220960   1.671503620   7.369824815
Cu       3.695313959  -0.014637986   7.360132771
Cu       5.539061330   1.669498191   7.366170605
Cu       0.006807300   3.371126956   7.374650055
Cu       1.851502652   5.089105088   7.380939367
Cu       3.694734700   3.371079293   7.376567590
Cu       5.539706582   5.090365120   7.383508554
Cu       0.006058061   6.819137780   7.382228735
Cu       1.852196907   8.549666979   7.376373599
Cu       3.696913156   6.819622510   7.385187585
Cu       5.539333995   8.547852341   7.380189059
Cu       0.005958293  10.270388932   7.364536117
Cu       1.850893996  11.974067552   7.355107146
Cu       3.695900949  10.268357911   7.367843601
Cu       5.539569095  11.978302115   7.352337742
Cu       0.007944714  13.665115157   7.350188572
Cu       1.849442791  15.347909359   7.356523857
Cu       3.693796742  13.670044212   7.346607969
Cu       5.541648414  15.346668883   7.350117956
Cu       0.006987865   1.660163994   9.213187303
Cu       1.850333602  -0.023201030   9.220703475
Cu       3.694879519   1.662079095   9.216479254
Cu       5.539436805  -0.027223139   9.216157290
Cu       0.009379790   5.086429375   9.194341482
Cu       1.853142615   3.364968580   9.206387131
Cu       3.699027879   5.084845069   9.194557912
Cu       5.539775468   3.364905732   9.203794178
Cu       0.011786503   8.557166835   9.187606647
Cu       1.853321803   6.821695689   9.188612917
Cu       3.698238372   8.558053506   9.190398378
Cu       5.545718655   6.819741682   9.191784811
Cu       0.007474505  11.991981554   9.195132037
Cu       1.852952108  10.283542699   9.191094064
Cu       3.695237776  11.992920796   9.191058756
Cu       5.541678137  10.287396098   9.186826988
Cu       0.006216416  15.341585178   9.216075055
Cu       1.849781371  13.674710230   9.206058913
Cu       3.694152515  15.343152255   9.215206673
Cu       5.540322855  13.677006065   9.202342673
Cu       0.006353213  -0.032453963  11.088730125
Cu       1.853703096   1.664967022  11.075059612
Cu       3.693599953  -0.030203864  11.090431937
Cu       5.538357090   1.656638947  11.061278369
Cu       0.012071721   3.369305105  11.037275917
Cu       1.862144768   5.095048085  11.016089178
Cu       3.697613529   3.376151779  11.050527096
Cu       5.547093701   5.092657562  11.024288309
Cu       0.017225454   6.822855848  11.011963301
Cu       1.864342659   8.557887798  11.010606731
Cu       3.704009398   6.822120436  10.998620135
Cu       5.551111276   8.565574454  10.998725985
Cu       0.016803626  10.293896831  11.019814086
Cu       1.853055735  11.998835394  11.051201054
Cu       3.699233640  10.290691612  11.022485048
Cu       5.542953823  12.001873187  11.043744845
Cu       0.006529439  13.676408778  11.087513184
Cu       1.850966407  15.339501615  11.102531306
Cu       3.695290611  13.673952560  11.083663123
Cu       5.537615914  15.337338367  11.099788445
Cu       0.012528128   1.669204782  12.909692673
Cu       1.851747276  -0.018941213  12.972319291
Cu       3.692221588   1.670589541  12.919013974
Cu       5.537468139  -0.017093982  12.966100974
Cu       0.014506237   5.100571012  12.828958383
Cu       1.863252519   3.371107472  12.861015129
Cu       3.706053018   5.104457693  12.852683401
Cu       5.542889789   3.369139685  12.860829224
Cu       0.030477994   8.577032564  12.805917364
Cu       1.874779882   6.826868789  12.834645087
Cu       3.714211692   8.587862738  12.797137178
Cu       5.572093475   6.842937937  12.789959500
Cu       0.016598277  11.976748136  12.923169353
Cu       1.869569730  10.297192738  12.849587046
Cu       3.702839943  11.979918516  12.913179976
Cu       5.552941179  10.296754682  12.836201075
Cu       0.005851515  15.338670334  12.994161209
Cu       1.852652154  13.658370898  12.973205768
Cu       3.696023197  15.336888660  12.990341099
Cu       5.544603110  13.655389019  12.976294924
Cu       0.019921449   0.022119318  14.826272379
Cu       1.864898581   1.723999255  14.774567368
Cu       3.679008610   0.007538368  14.833082812
Cu       5.525896360   1.690481945  14.785819352
Cu      -0.029813661   3.355504586  14.697661922
Cu       1.808298688   5.038663825  14.591642185
Cu       3.731702961   3.401369902  14.698469263
Cu       5.582954390   5.092884770  14.623594022
Cu      -0.024170634   6.871821329  14.587738826
Cu       1.840863193   8.575137865  14.599758037
Cu       3.835819781   6.902639238  14.589028878
Cu       5.624765698   8.636368077  14.628204494
Cu       0.061030253  10.279334467  14.737074377
Cu       1.884224579  11.951890162  14.797786815
Cu       3.701565191  10.239781828  14.691723317
Cu       5.546870106  11.913161008  14.789476511
Cu       0.002805149  13.622032518  14.841034995
Cu       1.850903359  15.328153818  14.850945871
Cu       3.716659154  13.630510842  14.831796947
Cu       5.543248713  15.351862427  14.848429277
C        0.008805549   0.738142309  18.254267030
C        0.009889889   2.140744209  18.560534341
C        1.237553278   0.030129744  18.109700539
C        1.241011137   2.840305408  18.723649862
C        2.467282613   0.739494255  18.234385057
C        2.469438733   2.139516766  18.548534404
C        3.698492184   0.029840683  18.109236450
C        3.700817976   2.841510566  18.702691446
C        4.929600760   0.739563924  18.243412859
C        4.931908400   2.143075464  18.542132014
C        6.157051812   0.026555981  18.133082167
C        6.159975096   2.845449695  18.717900366
C        0.013878999   4.967707394  19.092718509
C        0.012305784   6.403189177  19.191260877
C        1.243842527   4.243071720  19.019658392
C        1.227608978   7.129107665  19.178527802
C        2.473548000   4.939752338  19.130056471
C        2.475358901   6.397226246  19.061165197
C        3.702310019   4.244444678  18.998649225
C        3.715023119   7.129492119  19.223386852
C        4.930699507   4.970119659  19.081754458
C        4.930541465   6.402560090  19.212395568
C        6.162414601   4.259631435  18.980402838
C        6.160462298   7.121706075  19.183992055
C        0.007868672   9.261107576  18.936797316
C        0.009205521  10.666995990  18.655450685
C        1.236256305   8.547829576  19.040756661
C        1.239248083  11.365259662  18.482132425
C        2.471235315   9.254181089  18.910097261
C        2.470103074  10.656971286  18.624801619
C        3.703837778   8.547287757  19.065830954
C        3.698918619  11.364898755  18.477160578
C        4.929748265   9.261226019  18.942162986
C        4.928802465  10.664618890  18.648571428
C        6.158371994   8.548291855  19.051401925
C        6.157241921  11.370453401  18.497862087
C        0.007717397  13.486154413  18.084977832
C        0.007612266  14.916444507  17.960106991
C        1.238545889  12.771660186  18.196631643
C        1.236289901  15.639602411  17.965181238
C        2.466605672  13.483873842  18.078434187
C        2.467014524  14.916711027  17.972993782
C        3.697090466  12.769955978  18.184591708
C        3.696468782  15.638804796  17.983151404
C        4.925931961  13.483233367  18.072473365
C        4.925117779  14.915985999  17.962552291
C        6.155630951  12.774038866  18.201551915
C        6.155473181  15.638344408  17.972618868
C        2.482509970   6.311717392  17.013294118
O        3.440622246   6.964843975  16.557046349
O        1.591098193   5.589636557  16.524751757



     Writing output data file gc.save
     Check: negative starting charge=   -0.001493
     NEW-OLD atomic charge density approx. for the potential
     Check: negative starting charge=   -0.001494

     negative rho (up, down):  1.507E-03 0.000E+00

     total cpu time spent up to now is   172754.3 secs

     Self-consistent Calculation

     iteration #  1     ecut=    80.00 Ry     beta=0.70
     Davidson diagonalization with overlap
