mpirun: INFO: switching to OpenMPI runtime version 1.10.2

     Program PWSCF v.5.4.0 starts on 16Sep2017 at 18:24:44 

     This program is part of the open-source Quantum ESPRESSO suite
     for quantum simulation of materials; please cite
         "P. Giannozzi et al., J. Phys.:Condens. Matter 21 395502 (2009);
          URL http://www.quantum-espresso.org", 
     in publications or presentations arising from this work. More details at
     http://www.quantum-espresso.org/quote

     Parallel version (MPI & OpenMP), running on      28 processor cores
     Number of MPI processes:                28
     Threads/MPI process:                     1
     R & G space division:  proc/nbgrp/npool/nimage =      28
     Waiting for input...
     Reading input from standard input
Warning: card &IONS ignored
Warning: card / ignored

     Current dimensions of program PWSCF are:
     Max number of different atomic species (ntypx) = 10
     Max number of k-points (npk) =  40000
     Max angular momentum in pseudopotentials (lmaxx) =  3
     WARNING: atomic wfc #  2 for atom type 4 has zero norm
     WARNING: atomic wfc #  4 for atom type 4 has zero norm
     WARNING: atomic wfc #  5 for atom type 4 has zero norm

     -------------------------------------
     Parameters for Dispersion Correction:
     -------------------------------------
       atom      VdW radius       C_6     

        Cu         2.952        374.666
        C_h        2.744         60.710
        C          2.744         60.710
        O          2.536         24.284
        H          1.892          4.857

     Subspace diagonalization in iterative solution of the eigenvalue problem:
     one sub-group per band group will be used
     scalapack distributed-memory algorithm (size of sub-group:  3*  3 procs)

 
     Parallelization info
     --------------------
     sticks:   dense  smooth     PW     G-vecs:    dense   smooth      PW
     Min         408     408    108                73226    73226    9928
     Max         410     410    109                73231    73231    9931
     Sum       11433   11433   3039              2050409  2050409  278033
 


     bravais-lattice index     =            0
     lattice parameter (alat)  =      13.9425  a.u.
     unit-cell volume          =   21209.0878 (a.u.)^3
     number of atoms/cell      =          139
     number of atomic types    =            5
     number of electrons       =      1242.00
     number of Kohn-Sham states=          745
     kinetic-energy cutoff     =      80.0000  Ry
     charge density cutoff     =     320.0000  Ry
     convergence threshold     =      1.0E-08
     mixing beta               =       0.7000
     number of iterations used =            8  local-TF  mixing
     Exchange-correlation      =  SLA  PW   PBE  PBE ( 1  4  3  4 0 0)

     celldm(1)=  13.942539  celldm(2)=   0.000000  celldm(3)=   0.000000
     celldm(4)=   0.000000  celldm(5)=   0.000000  celldm(6)=   0.000000

     crystal axes: (cart. coord. in units of alat)
               a(1) = (   1.000000   0.000000   0.000000 )  
               a(2) = (   0.000000   2.309401   0.000000 )  
               a(3) = (   0.000000   0.000000   3.388418 )  

     reciprocal axes: (cart. coord. in units 2 pi/alat)
               b(1) = (  1.000000  0.000000  0.000000 )  
               b(2) = (  0.000000  0.433013  0.000000 )  
               b(3) = (  0.000000  0.000000  0.295123 )  


     PseudoPot. # 1 for Cu read from file:
     /home/549/hxw549/Short/pseudopotentials/Cu.pbe-n-van_ak.UPF
     MD5 check sum: 601f7c30f7467666bec936e0661ce3e1
     Pseudo is Ultrasoft + core correction, Zval = 11.0
     Generated by new atomic code, or converted to UPF format
     Using radial grid of  867 points,  6 beta functions with: 
                l(1) =   0
                l(2) =   0
                l(3) =   1
                l(4) =   1
                l(5) =   2
                l(6) =   2
     Q(r) pseudized with  8 coefficients,  rinner =    1.400   1.400   1.400
                                                       1.400   1.400

     PseudoPot. # 2 for C  read from file:
     /home/549/hxw549/Short/pseudopotentials/C.star1s-pbe-mt_gipaw.UPF
     MD5 check sum: ef0cb3dee31bd9e4ba2a832a2c716264
     Pseudo is Norm-conserving, Zval =  5.0
     Generated by new atomic code, or converted to UPF format
     Using radial grid of 1073 points,  1 beta functions with: 
                l(1) =   0

     PseudoPot. # 3 for C  read from file:
     /home/549/hxw549/Short/pseudopotentials/C.pbe-mt_gipaw.UPF
     MD5 check sum: 5ac2f21f2c440b14befe521540822c15
     Pseudo is Norm-conserving, Zval =  4.0
     Generated by new atomic code, or converted to UPF format
     Using radial grid of 1073 points,  1 beta functions with: 
                l(1) =   0

     PseudoPot. # 4 for O  read from file:
     /home/549/hxw549/Short/pseudopotentials/O.pbe-van_gipaw.UPF
     MD5 check sum: 5ce2a047509d4f331db576c963e74b29
     Pseudo is Ultrasoft, Zval =  6.0
     Generated by new atomic code, or converted to UPF format
     Using radial grid of 1095 points,  4 beta functions with: 
                l(1) =   0
                l(2) =   0
                l(3) =   1
                l(4) =   1
     Q(r) pseudized with 0 coefficients 


     PseudoPot. # 5 for H  read from file:
     /home/549/hxw549/Short/pseudopotentials/H.pbe-van_ak.UPF
     MD5 check sum: 077eb6d537518a38cb46c6de387227b7
     Pseudo is Ultrasoft, Zval =  1.0
     Generated by new atomic code, or converted to UPF format
     Using radial grid of  615 points,  1 beta functions with: 
                l(1) =   0
     Q(r) pseudized with  8 coefficients,  rinner =    0.800

     atomic species   valence    mass     pseudopotential
        Cu            11.00    63.54600     Cu( 1.00)
        C_h            5.00    12.01070     C ( 1.00)
        C              4.00    12.01070     C ( 1.00)
        O              6.00    15.99940     O ( 1.00)
        H              1.00     1.00783     H ( 1.00)

     No symmetry found



   Cartesian axes

     site n.     atom                  positions (alat units)
         1           Cu  tau(   1) = (  -0.0010640  -0.0023908   1.0046138  )
         2           Cu  tau(   2) = (   0.2492312   0.2287438   1.0043535  )
         3           Cu  tau(   3) = (   0.4997213  -0.0020557   1.0044178  )
         4           Cu  tau(   4) = (   0.7494458   0.2297361   1.0044330  )
         5           Cu  tau(   5) = (  -0.0003137   0.4611849   1.0049174  )
         6           Cu  tau(   6) = (   0.2493451   0.6933339   1.0051902  )
         7           Cu  tau(   7) = (   0.4989850   0.4609350   1.0047007  )
         8           Cu  tau(   8) = (   0.7493025   0.6926311   1.0049004  )
         9           Cu  tau(   9) = (  -0.0009524   0.9253608   1.0047609  )
        10           Cu  tau(  10) = (   0.2493354   1.1572557   1.0045765  )
        11           Cu  tau(  11) = (   0.4995584   0.9253176   1.0049044  )
        12           Cu  tau(  12) = (   0.7492457   1.1577467   1.0049301  )
        13           Cu  tau(  13) = (  -0.0007607   1.3884523   1.0051980  )
        14           Cu  tau(  14) = (   0.2492853   1.6181647   1.0059253  )
        15           Cu  tau(  15) = (   0.4993115   1.3886309   1.0054232  )
        16           Cu  tau(  16) = (   0.7492725   1.6184104   1.0057216  )
        17           Cu  tau(  17) = (  -0.0005173   1.8474410   1.0056666  )
        18           Cu  tau(  18) = (   0.2493732   2.0771941   1.0049712  )
        19           Cu  tau(  19) = (   0.4991007   1.8472417   1.0058485  )
        20           Cu  tau(  20) = (   0.7492518   2.0762819   1.0054449  )
        21           Cu  tau(  21) = (  -0.0009628   0.2289347   1.2519010  )
        22           Cu  tau(  22) = (   0.2489710  -0.0022349   1.2533118  )
        23           Cu  tau(  23) = (   0.4989967   0.2289318   1.2519859  )
        24           Cu  tau(  24) = (   0.7490469  -0.0016894   1.2526627  )
        25           Cu  tau(  25) = (  -0.0009870   0.6931250   1.2520313  )
        26           Cu  tau(  26) = (   0.2490671   0.4602952   1.2521070  )
        27           Cu  tau(  27) = (   0.4990229   0.6927300   1.2520111  )
        28           Cu  tau(  28) = (   0.7489647   0.4607580   1.2524746  )
        29           Cu  tau(  29) = (  -0.0010398   1.1572051   1.2525916  )
        30           Cu  tau(  30) = (   0.2490028   0.9259700   1.2519533  )
        31           Cu  tau(  31) = (   0.4990907   1.1572486   1.2527904  )
        32           Cu  tau(  32) = (   0.7490506   0.9253261   1.2514892  )
        33           Cu  tau(  33) = (  -0.0010799   1.6180392   1.2552412  )
        34           Cu  tau(  34) = (   0.2490387   1.3874055   1.2537251  )
        35           Cu  tau(  35) = (   0.4990463   1.6181047   1.2558878  )
        36           Cu  tau(  36) = (   0.7489693   1.3879951   1.2542289  )
        37           Cu  tau(  37) = (  -0.0009952   2.0772742   1.2548392  )
        38           Cu  tau(  38) = (   0.2490000   1.8482620   1.2554079  )
        39           Cu  tau(  39) = (   0.4989851   2.0775805   1.2544442  )
        40           Cu  tau(  40) = (   0.7489314   1.8476310   1.2563228  )
        41           Cu  tau(  41) = (  -0.0012033  -0.0009002   1.5028346  )
        42           Cu  tau(  42) = (   0.2488076   0.2280811   1.5019068  )
        43           Cu  tau(  43) = (   0.4983360  -0.0012160   1.5030626  )
        44           Cu  tau(  44) = (   0.7482862   0.2282454   1.5017748  )
        45           Cu  tau(  45) = (  -0.0015433   0.4596013   1.4997607  )
        46           Cu  tau(  46) = (   0.2486489   0.6933466   1.4985181  )
        47           Cu  tau(  47) = (   0.4986141   0.4593638   1.5006040  )
        48           Cu  tau(  48) = (   0.7484418   0.6939650   1.4999225  )
        49           Cu  tau(  49) = (  -0.0015404   0.9257492   1.5004063  )
        50           Cu  tau(  50) = (   0.2484450   1.1571046   1.5030467  )
        51           Cu  tau(  51) = (   0.4986878   0.9253575   1.5000131  )
        52           Cu  tau(  52) = (   0.7486901   1.1560980   1.5017044  )
        53           Cu  tau(  53) = (  -0.0011572   1.3870323   1.5040793  )
        54           Cu  tau(  54) = (   0.2484867   1.6171270   1.5041129  )
        55           Cu  tau(  55) = (   0.4984038   1.3866792   1.5045243  )
        56           Cu  tau(  56) = (   0.7485057   1.6168076   1.5059139  )
        57           Cu  tau(  57) = (  -0.0010914   1.8476653   1.5064678  )
        58           Cu  tau(  58) = (   0.2484724   2.0779001   1.5067307  )
        59           Cu  tau(  59) = (   0.4979889   1.8491510   1.5064335  )
        60           Cu  tau(  60) = (   0.7485533   2.0792749   1.5047190  )
        61           Cu  tau(  61) = (  -0.0019222   0.2289416   1.7514670  )
        62           Cu  tau(  62) = (   0.2486960  -0.0003758   1.7563792  )
        63           Cu  tau(  63) = (   0.4980501   0.2266587   1.7544323  )
        64           Cu  tau(  64) = (   0.7476580  -0.0005336   1.7552543  )
        65           Cu  tau(  65) = (  -0.0024978   0.6919427   1.7449505  )
        66           Cu  tau(  66) = (   0.2489494   0.4620369   1.7451989  )
        67           Cu  tau(  67) = (   0.4986401   0.6929206   1.7462139  )
        68           Cu  tau(  68) = (   0.7471573   0.4612677   1.7462891  )
        69           Cu  tau(  69) = (  -0.0022490   1.1551077   1.7522669  )
        70           Cu  tau(  70) = (   0.2479337   0.9232175   1.7482809  )
        71           Cu  tau(  71) = (   0.4979930   1.1537702   1.7510653  )
        72           Cu  tau(  72) = (   0.7481522   0.9264039   1.7517944  )
        73           Cu  tau(  73) = (  -0.0013438   1.6160444   1.7569223  )
        74           Cu  tau(  74) = (   0.2473888   1.3887366   1.7563479  )
        75           Cu  tau(  75) = (   0.4967195   1.6179955   1.7540683  )
        76           Cu  tau(  76) = (   0.7489944   1.3843056   1.7536950  )
        77           Cu  tau(  77) = (  -0.0014346   2.0803638   1.7543298  )
        78           Cu  tau(  78) = (   0.2477692   1.8439700   1.7574531  )
        79           Cu  tau(  79) = (   0.4973971   2.0816154   1.7572255  )
        80           Cu  tau(  80) = (   0.7477757   1.8484657   1.7520294  )
        81           Cu  tau(  81) = (  -0.0006906   0.0016644   2.0048429  )
        82           Cu  tau(  82) = (   0.2476176   0.2382039   1.9922077  )
        83           Cu  tau(  83) = (   0.4958204  -0.0008510   2.0180479  )
        84           Cu  tau(  84) = (   0.7476787   0.2351869   1.9930299  )
        85           Cu  tau(  85) = (  -0.0033193   0.4642546   1.9916281  )
        86           Cu  tau(  86) = (   0.2481683   0.6899900   1.9920284  )
        87           Cu  tau(  87) = (   0.4986928   0.4639115   1.9938652  )
        88           Cu  tau(  88) = (   0.7471334   0.6917038   1.9924937  )
        89           Cu  tau(  89) = (  -0.0016118   0.9180049   1.9910334  )
        90           Cu  tau(  90) = (   0.2473558   1.1518387   1.9952740  )
        91           Cu  tau(  91) = (   0.4965321   0.9197123   1.9936536  )
        92           Cu  tau(  92) = (   0.7455861   1.1534598   2.0079317  )
        93           Cu  tau(  93) = (  -0.0047623   1.3820067   2.0006047  )
        94           Cu  tau(  94) = (   0.2456251   1.6195374   2.0182367  )
        95           Cu  tau(  95) = (   0.4997626   1.3852378   1.9910704  )
        96           Cu  tau(  96) = (   0.7467821   1.6174470   2.0002908  )
        97           Cu  tau(  97) = (  -0.0069666   1.8498164   2.0011514  )
        98           Cu  tau(  98) = (   0.2462826   2.0740046   2.0003043  )
        99           Cu  tau(  99) = (   0.5007068   1.8487305   2.0023364  )
       100           Cu  tau( 100) = (   0.7483286   2.0781054   2.0000404  )
       101           C   tau( 101) = (   0.0029054   0.0872648   2.3682851  )
       102           C   tau( 102) = (   0.0029640   0.2822904   2.3806890  )
       103           C   tau( 103) = (   0.1695057  -0.0063212   2.3579075  )
       104           C   tau( 104) = (   0.1695706   0.3786582   2.3836558  )
       105           C   tau( 105) = (   0.3353655   0.0874796   2.3551009  )
       106           C   tau( 106) = (   0.3357967   0.2820207   2.3707387  )
       107           C   tau( 107) = (   0.5029335  -0.0056998   2.3294250  )
       108           C   tau( 108) = (   0.5027383   0.3790160   2.3743544  )
       109           C   tau( 109) = (   0.6704159   0.0878548   2.3547576  )
       110           C   tau( 110) = (   0.6699918   0.2824373   2.3703235  )
       111           C   tau( 111) = (   0.8361923  -0.0061260   2.3575369  )
       112           C   tau( 112) = (   0.8366011   0.3789160   2.3834557  )
       113           C   tau( 113) = (   0.0039914   0.6692637   2.3901638  )
       114           C   tau( 114) = (   0.0047886   0.8628183   2.3799876  )
       115           C   tau( 115) = (   0.1700523   0.5725106   2.3894660  )
       116           C   tau( 116) = (   0.1708227   0.9620580   2.3728989  )
       117           C   tau( 117) = (   0.3364157   0.6704142   2.3869740  )
       118           C   tau( 118) = (   0.3366336   0.8645112   2.3824567  )
       119           C   tau( 119) = (   0.5028532   0.5725996   2.3841996  )
       120           C   tau( 120) = (   0.5032938   0.9615900   2.3764364  )
       121           C   tau( 121) = (   0.6696582   0.6692635   2.3853739  )
       122           C   tau( 122) = (   0.6697515   0.8627502   2.3802298  )
       123           C   tau( 123) = (   0.8368768   0.5727868   2.3885314  )
       124           C   tau( 124) = (   0.8372862   0.9564921   2.3724215  )
       125           C   tau( 125) = (   0.0012861   1.2460736   2.3404574  )
       126           C   tau( 126) = (   0.1696514   1.1576429   2.3549811  )
       127           C   tau( 127) = (   0.3379386   1.2570092   2.3615588  )
       128           C_h tau( 128) = (   0.5046058   1.1563742   2.3655392  )
       129           C   tau( 129) = (   0.6721374   1.2425272   2.3358865  )
       130           C   tau( 130) = (   0.8374497   1.1482468   2.3484453  )
       131           H   tau( 131) = (   0.1694449  -0.1543018   2.3509582  )
       132           H   tau( 132) = (   0.5033915  -0.1534829   2.3385532  )
       133           H   tau( 133) = (   0.8366981  -0.1541085   2.3501637  )
       134           H   tau( 134) = (  -0.0054473   1.3935197   2.3405423  )
       135           H   tau( 135) = (   0.6793985   1.3888379   2.3243999  )
       136           C   tau( 136) = (   0.3363181   1.4541569   2.3637881  )
       137           O   tau( 137) = (   0.2171155   1.5576896   2.2915398  )
       138           O   tau( 138) = (   0.4734734   1.5386774   2.4557375  )
       139           H   tau( 139) = (   0.4604717   1.6689179   2.4276426  )

     number of k points=     6  gaussian smearing, width (Ry)=  0.1000
                       cart. coord. in units 2pi/alat
        k(    1) = (   0.0000000   0.0000000   0.0000000), wk =   0.2500000
        k(    2) = (   0.0000000  -0.2165064   0.0000000), wk =   0.2500000
        k(    3) = (   0.2500000   0.0000000   0.0000000), wk =   0.5000000
        k(    4) = (   0.2500000  -0.2165064   0.0000000), wk =   0.5000000
        k(    5) = (  -0.5000000   0.0000000   0.0000000), wk =   0.2500000
        k(    6) = (  -0.5000000  -0.2165064   0.0000000), wk =   0.2500000

     Dense  grid:  2050409 G-vectors     FFT dimensions: (  80, 192, 270)

     Largest allocated arrays     est. size (Mb)     dimensions
        Kohn-Sham Wavefunctions       104.25 Mb     (    9171,  745)
        NL pseudopotentials           259.31 Mb     (    9171, 1853)
        Each V/rho on FFT grid          2.34 Mb     (  153600)
        Each G-vector array             0.56 Mb     (   73230)
        G-vector shells                 0.27 Mb     (   35784)
     Largest temporary arrays     est. size (Mb)     dimensions
        Auxiliary wavefunctions       417.02 Mb     (    9171, 2980)
        Each subspace H/S matrix       15.05 Mb     (     993,  993)
        Each <psi_i|beta_j> matrix     21.06 Mb     (    1853,  745)
        Arrays for rho mixing          18.75 Mb     (  153600,    8)

     Initial potential from superposition of free atoms
     Check: negative starting charge=   -0.002132

     starting charge 1225.31748, renormalised to 1242.00000

     negative rho (up, down):  2.161E-03 0.000E+00
     Starting wfc are 1162 randomized atomic wfcs

     total cpu time spent up to now is      186.9 secs

     Self-consistent Calculation

     iteration #  1     ecut=    80.00 Ry     beta=0.70
     Davidson diagonalization with overlap
     c_bands:  1 eigenvalues not converged
     c_bands:  2 eigenvalues not converged
     ethr =  1.00E-04,  avg # of iterations = 20.0

     negative rho (up, down):  2.673E+01 0.000E+00

     total cpu time spent up to now is     3254.3 secs

     total energy              =   -8556.24270290 Ry
     Harris-Foulkes estimate   =  -15108.89706555 Ry
     estimated scf accuracy    <  146502.64987627 Ry

     iteration #  2     ecut=    80.00 Ry     beta=0.70
     Davidson diagonalization with overlap
     c_bands:  1 eigenvalues not converged
     ethr =  1.00E-02,  avg # of iterations = 13.8

     negative rho (up, down):  1.944E+01 0.000E+00

     total cpu time spent up to now is     4938.3 secs

     total energy              =  -12647.76335559 Ry
     Harris-Foulkes estimate   =  -13215.10639093 Ry
     estimated scf accuracy    <    1706.02972750 Ry

     iteration #  3     ecut=    80.00 Ry     beta=0.70
     Davidson diagonalization with overlap
     ethr =  1.00E-02,  avg # of iterations =  4.5

     negative rho (up, down):  1.690E+01 0.000E+00

     total cpu time spent up to now is     5566.5 secs

     total energy              =  -12725.90997497 Ry
     Harris-Foulkes estimate   =  -12787.00762783 Ry
     estimated scf accuracy    <    1283.93356977 Ry

     iteration #  4     ecut=    80.00 Ry     beta=0.70
     Davidson diagonalization with overlap
     ethr =  1.00E-02,  avg # of iterations =  3.8

     negative rho (up, down):  1.455E+01 0.000E+00

     total cpu time spent up to now is     5954.9 secs

     total energy              =  -12698.80829787 Ry
     Harris-Foulkes estimate   =  -12750.39781331 Ry
     estimated scf accuracy    <     864.01777126 Ry

     iteration #  5     ecut=    80.00 Ry     beta=0.70
     Davidson diagonalization with overlap
     ethr =  1.00E-02,  avg # of iterations =  4.0

     negative rho (up, down):  9.438E+00 0.000E+00

     total cpu time spent up to now is     6364.5 secs

     total energy              =  -12675.46843095 Ry
     Harris-Foulkes estimate   =  -12737.77836957 Ry
     estimated scf accuracy    <     603.79063565 Ry

     iteration #  6     ecut=    80.00 Ry     beta=0.70
     Davidson diagonalization with overlap
     ethr =  1.00E-02,  avg # of iterations =  4.8

     negative rho (up, down):  7.453E+00 0.000E+00

     total cpu time spent up to now is     6798.0 secs

     total energy              =  -12681.03709058 Ry
     Harris-Foulkes estimate   =  -12729.95422981 Ry
     estimated scf accuracy    <     535.98834940 Ry

     iteration #  7     ecut=    80.00 Ry     beta=0.70
     Davidson diagonalization with overlap
     ethr =  1.00E-02,  avg # of iterations =  3.0

     negative rho (up, down):  6.569E+00 0.000E+00

     total cpu time spent up to now is     7152.9 secs

     total energy              =  -12679.30472553 Ry
     Harris-Foulkes estimate   =  -12701.43768470 Ry
     estimated scf accuracy    <     380.89698003 Ry

     iteration #  8     ecut=    80.00 Ry     beta=0.70
     Davidson diagonalization with overlap
     ethr =  1.00E-02,  avg # of iterations =  1.0

     negative rho (up, down):  5.371E+00 0.000E+00

     total cpu time spent up to now is     7463.8 secs

     total energy              =  -12664.55371321 Ry
     Harris-Foulkes estimate   =  -12682.30265604 Ry
     estimated scf accuracy    <     273.22120581 Ry

     iteration #  9     ecut=    80.00 Ry     beta=0.70
     Davidson diagonalization with overlap
     ethr =  1.00E-02,  avg # of iterations =  1.0

     negative rho (up, down):  1.473E+00 0.000E+00

     total cpu time spent up to now is     7778.7 secs

     total energy              =  -12624.29265988 Ry
     Harris-Foulkes estimate   =  -12666.13815992 Ry
     estimated scf accuracy    <     185.21218897 Ry

     iteration # 10     ecut=    80.00 Ry     beta=0.70
     Davidson diagonalization with overlap
     ethr =  1.00E-02,  avg # of iterations =  2.0

     negative rho (up, down):  1.864E+00 0.000E+00

     total cpu time spent up to now is     8113.4 secs

     total energy              =  -12651.73923963 Ry
     Harris-Foulkes estimate   =  -12638.50818756 Ry
     estimated scf accuracy    <     581.80039098 Ry

     iteration # 11     ecut=    80.00 Ry     beta=0.70
     Davidson diagonalization with overlap
     ethr =  1.00E-02,  avg # of iterations =  2.7

     negative rho (up, down):  1.798E+00 0.000E+00

     total cpu time spent up to now is     8459.1 secs

     total energy              =  -12663.98997234 Ry
     Harris-Foulkes estimate   =  -12672.21952699 Ry
     estimated scf accuracy    <    2117.79924009 Ry

     iteration # 12     ecut=    80.00 Ry     beta=0.70
     Davidson diagonalization with overlap
     ethr =  1.00E-02,  avg # of iterations =  1.7

     negative rho (up, down):  1.620E+00 0.000E+00

     total cpu time spent up to now is     8787.7 secs

     total energy              =  -12703.36026383 Ry
     Harris-Foulkes estimate   =  -12664.97160921 Ry
     estimated scf accuracy    <    1861.93665607 Ry

     iteration # 13     ecut=    80.00 Ry     beta=0.70
     Davidson diagonalization with overlap
     ethr =  1.00E-02,  avg # of iterations =  4.0

     negative rho (up, down):  1.465E+00 0.000E+00

     total cpu time spent up to now is     9186.6 secs

     total energy              =  -12699.82596409 Ry
     Harris-Foulkes estimate   =  -12732.69448915 Ry
     estimated scf accuracy    <    2061.89659744 Ry

     iteration # 14     ecut=    80.00 Ry     beta=0.70
     Davidson diagonalization with overlap
     ethr =  1.00E-02,  avg # of iterations =  1.8

     negative rho (up, down):  1.628E+00 0.000E+00

     total cpu time spent up to now is     9516.8 secs

     total energy              =  -12720.36330653 Ry
     Harris-Foulkes estimate   =  -12705.53930784 Ry
     estimated scf accuracy    <    1536.60178643 Ry

     iteration # 15     ecut=    80.00 Ry     beta=0.70
     Davidson diagonalization with overlap
     ethr =  1.00E-02,  avg # of iterations =  1.0

     negative rho (up, down):  3.544E+00 0.000E+00

     total cpu time spent up to now is     9830.1 secs

     total energy              =  -12579.18990405 Ry
     Harris-Foulkes estimate   =  -12720.60652778 Ry
     estimated scf accuracy    <    1591.37697900 Ry

     iteration # 16     ecut=    80.00 Ry     beta=0.70
     Davidson diagonalization with overlap
     ethr =  1.00E-02,  avg # of iterations =  3.3

     negative rho (up, down):  1.673E+00 0.000E+00

     total cpu time spent up to now is    10415.6 secs

     total energy              =  -12605.82698382 Ry
     Harris-Foulkes estimate   =  -12634.39948755 Ry
     estimated scf accuracy    <     554.15486102 Ry

     iteration # 17     ecut=    80.00 Ry     beta=0.70
     Davidson diagonalization with overlap
     ethr =  1.00E-02,  avg # of iterations =  3.0

     negative rho (up, down):  5.068E+00 0.000E+00

     total cpu time spent up to now is    10840.0 secs

     total energy              =  -12637.81890861 Ry
     Harris-Foulkes estimate   =  -12631.09423981 Ry
     estimated scf accuracy    <     286.37639590 Ry

     iteration # 18     ecut=    80.00 Ry     beta=0.70
     Davidson diagonalization with overlap
     ethr =  1.00E-02,  avg # of iterations =  2.2

     negative rho (up, down):  3.585E+00 0.000E+00

     total cpu time spent up to now is    11181.5 secs

     total energy              =  -12612.72751953 Ry
     Harris-Foulkes estimate   =  -12646.79399556 Ry
     estimated scf accuracy    <     347.80556777 Ry

     iteration # 19     ecut=    80.00 Ry     beta=0.70
     Davidson diagonalization with overlap
     ethr =  1.00E-02,  avg # of iterations =  2.0

     negative rho (up, down):  2.812E+00 0.000E+00

     total cpu time spent up to now is    11511.4 secs

     total energy              =  -12612.89036086 Ry
     Harris-Foulkes estimate   =  -12621.18936927 Ry
     estimated scf accuracy    <     137.51360307 Ry

     iteration # 20     ecut=    80.00 Ry     beta=0.70
     Davidson diagonalization with overlap
     ethr =  1.00E-02,  avg # of iterations =  1.0

     negative rho (up, down):  2.738E+00 0.000E+00

     total cpu time spent up to now is    11823.8 secs

     total energy              =  -12611.37894950 Ry
     Harris-Foulkes estimate   =  -12615.80583287 Ry
     estimated scf accuracy    <     129.99287936 Ry

     iteration # 21     ecut=    80.00 Ry     beta=0.70
     Davidson diagonalization with overlap
     ethr =  1.00E-02,  avg # of iterations =  1.0

     negative rho (up, down):  3.186E+00 0.000E+00

     total cpu time spent up to now is    12135.9 secs

     total energy              =  -12602.49460327 Ry
     Harris-Foulkes estimate   =  -12611.68957756 Ry
     estimated scf accuracy    <     116.71787899 Ry

     iteration # 22     ecut=    80.00 Ry     beta=0.70
     Davidson diagonalization with overlap
     ethr =  9.40E-03,  avg # of iterations =  1.0

     negative rho (up, down):  4.501E-01 0.000E+00

     total cpu time spent up to now is    12450.7 secs

     total energy              =  -12591.19227018 Ry
     Harris-Foulkes estimate   =  -12603.40977100 Ry
     estimated scf accuracy    <      81.43571928 Ry

     iteration # 23     ecut=    80.00 Ry     beta=0.70
     Davidson diagonalization with overlap
     ethr =  6.56E-03,  avg # of iterations =  2.3

     negative rho (up, down):  4.387E-01 0.000E+00

     total cpu time spent up to now is    12796.5 secs

     total energy              =  -12593.09207146 Ry
     Harris-Foulkes estimate   =  -12597.06813858 Ry
     estimated scf accuracy    <      53.28668687 Ry

     iteration # 24     ecut=    80.00 Ry     beta=0.70
     Davidson diagonalization with overlap
     ethr =  4.29E-03,  avg # of iterations =  2.0

     negative rho (up, down):  1.435E-01 0.000E+00

     total cpu time spent up to now is    13130.9 secs

     total energy              =  -12588.13353362 Ry
     Harris-Foulkes estimate   =  -12596.00259655 Ry
     estimated scf accuracy    <      38.27682925 Ry

     iteration # 25     ecut=    80.00 Ry     beta=0.70
     Davidson diagonalization with overlap
     ethr =  3.08E-03,  avg # of iterations =  3.3

     negative rho (up, down):  6.963E-02 0.000E+00

     total cpu time spent up to now is    13506.3 secs

     total energy              =  -12582.97291702 Ry
     Harris-Foulkes estimate   =  -12595.08392054 Ry
     estimated scf accuracy    <     211.20682642 Ry

     iteration # 26     ecut=    80.00 Ry     beta=0.70
     Davidson diagonalization with overlap
     ethr =  3.08E-03,  avg # of iterations =  1.8

     negative rho (up, down):  6.332E-01 0.000E+00

     total cpu time spent up to now is    13837.2 secs

     total energy              =  -12588.45415576 Ry
     Harris-Foulkes estimate   =  -12591.44724415 Ry
     estimated scf accuracy    <      21.33480887 Ry

     iteration # 27     ecut=    80.00 Ry     beta=0.70
     Davidson diagonalization with overlap
     ethr =  1.72E-03,  avg # of iterations =  4.0

     negative rho (up, down):  6.670E-01 0.000E+00

     total cpu time spent up to now is    14228.5 secs

     total energy              =  -12607.60225385 Ry
     Harris-Foulkes estimate   =  -12609.98059191 Ry
     estimated scf accuracy    <     443.99899899 Ry

     iteration # 28     ecut=    80.00 Ry     beta=0.70
     Davidson diagonalization with overlap
     ethr =  1.72E-03,  avg # of iterations =  1.2

     negative rho (up, down):  1.051E+00 0.000E+00

     total cpu time spent up to now is    14544.4 secs

     total energy              =  -12592.85695965 Ry
     Harris-Foulkes estimate   =  -12607.66982377 Ry
     estimated scf accuracy    <     438.78652001 Ry

     iteration # 29     ecut=    80.00 Ry     beta=0.70
     Davidson diagonalization with overlap
     ethr =  1.72E-03,  avg # of iterations =  3.3

     negative rho (up, down):  1.037E+00 0.000E+00

     total cpu time spent up to now is    14928.2 secs

     total energy              =  -12596.02005034 Ry
     Harris-Foulkes estimate   =  -12595.46397178 Ry
     estimated scf accuracy    <     242.02830580 Ry

     iteration # 30     ecut=    80.00 Ry     beta=0.70
     Davidson diagonalization with overlap
     ethr =  1.72E-03,  avg # of iterations =  1.2

     negative rho (up, down):  1.709E+00 0.000E+00

     total cpu time spent up to now is    15246.7 secs

     total energy              =  -12577.45442624 Ry
     Harris-Foulkes estimate   =  -12596.46407748 Ry
     estimated scf accuracy    <     301.03356685 Ry

     iteration # 31     ecut=    80.00 Ry     beta=0.70
     Davidson diagonalization with overlap
     ethr =  1.72E-03,  avg # of iterations =  3.0

     negative rho (up, down):  1.666E+00 0.000E+00

     total cpu time spent up to now is    15624.6 secs

     total energy              =  -12586.30249662 Ry
     Harris-Foulkes estimate   =  -12588.12401507 Ry
     estimated scf accuracy    <      34.49975541 Ry

     iteration # 32     ecut=    80.00 Ry     beta=0.70
     Davidson diagonalization with overlap
     ethr =  1.72E-03,  avg # of iterations =  1.0

     negative rho (up, down):  1.169E+00 0.000E+00

     total cpu time spent up to now is    15940.6 secs

     total energy              =  -12585.90512695 Ry
     Harris-Foulkes estimate   =  -12587.15908138 Ry
     estimated scf accuracy    <      11.97164598 Ry

     iteration # 33     ecut=    80.00 Ry     beta=0.70
     Davidson diagonalization with overlap
     ethr =  9.64E-04,  avg # of iterations =  2.0

     negative rho (up, down):  1.337E+00 0.000E+00

     total cpu time spent up to now is    16277.6 secs

     total energy              =  -12586.37838650 Ry
     Harris-Foulkes estimate   =  -12586.99728849 Ry
     estimated scf accuracy    <       6.36090666 Ry

     iteration # 34     ecut=    80.00 Ry     beta=0.70
     Davidson diagonalization with overlap
     ethr =  5.12E-04,  avg # of iterations =  5.3

     negative rho (up, down):  1.196E+00 0.000E+00

     total cpu time spent up to now is    16677.1 secs

     total energy              =  -12586.37467157 Ry
     Harris-Foulkes estimate   =  -12586.72117452 Ry
     estimated scf accuracy    <      11.74382422 Ry

     iteration # 35     ecut=    80.00 Ry     beta=0.70
     Davidson diagonalization with overlap
     ethr =  5.12E-04,  avg # of iterations =  1.0

     negative rho (up, down):  9.872E-01 0.000E+00

     total cpu time spent up to now is    16990.6 secs

     total energy              =  -12585.94574755 Ry
     Harris-Foulkes estimate   =  -12586.45252271 Ry
     estimated scf accuracy    <       6.73101388 Ry

     iteration # 36     ecut=    80.00 Ry     beta=0.70
     Davidson diagonalization with overlap
     ethr =  5.12E-04,  avg # of iterations =  1.7

     negative rho (up, down):  6.331E-01 0.000E+00

     total cpu time spent up to now is    17316.2 secs

     total energy              =  -12585.70096253 Ry
     Harris-Foulkes estimate   =  -12586.08291911 Ry
     estimated scf accuracy    <      13.95540414 Ry

     iteration # 37     ecut=    80.00 Ry     beta=0.70
     Davidson diagonalization with overlap
     ethr =  5.12E-04,  avg # of iterations =  4.7

     negative rho (up, down):  2.680E-01 0.000E+00

     total cpu time spent up to now is    17702.7 secs

     total energy              =  -12586.92266112 Ry
     Harris-Foulkes estimate   =  -12586.43572436 Ry
     estimated scf accuracy    <      72.63617052 Ry

     iteration # 38     ecut=    80.00 Ry     beta=0.70
     Davidson diagonalization with overlap
     ethr =  5.12E-04,  avg # of iterations =  2.3

     negative rho (up, down):  3.624E-01 0.000E+00

     total cpu time spent up to now is    18047.6 secs

     total energy              =  -12586.68100000 Ry
     Harris-Foulkes estimate   =  -12587.17820819 Ry
     estimated scf accuracy    <      94.16256699 Ry

     iteration # 39     ecut=    80.00 Ry     beta=0.70
     Davidson diagonalization with overlap
     ethr =  5.12E-04,  avg # of iterations =  3.8

     negative rho (up, down):  2.171E-01 0.000E+00

     total cpu time spent up to now is    18416.2 secs

     total energy              =  -12586.08415306 Ry
     Harris-Foulkes estimate   =  -12586.76061541 Ry
     estimated scf accuracy    <      80.01628911 Ry

     iteration # 40     ecut=    80.00 Ry     beta=0.70
     Davidson diagonalization with overlap
     ethr =  5.12E-04,  avg # of iterations =  4.0

     negative rho (up, down):  4.087E-01 0.000E+00

     total cpu time spent up to now is    18793.5 secs

     total energy              =  -12584.86905895 Ry
     Harris-Foulkes estimate   =  -12586.38822771 Ry
     estimated scf accuracy    <      68.87539309 Ry

     iteration # 41     ecut=    80.00 Ry     beta=0.70
     Davidson diagonalization with overlap
     ethr =  5.12E-04,  avg # of iterations =  2.0

     negative rho (up, down):  1.508E-01 0.000E+00

     total cpu time spent up to now is    19130.0 secs

     total energy              =  -12584.95768484 Ry
     Harris-Foulkes estimate   =  -12585.50967425 Ry
     estimated scf accuracy    <      10.14890622 Ry

     iteration # 42     ecut=    80.00 Ry     beta=0.70
     Davidson diagonalization with overlap
     ethr =  5.12E-04,  avg # of iterations =  1.0

     negative rho (up, down):  5.108E-02 0.000E+00

     total cpu time spent up to now is    19443.8 secs

     total energy              =  -12584.61091229 Ry
     Harris-Foulkes estimate   =  -12585.25450288 Ry
     estimated scf accuracy    <      25.07756012 Ry

     iteration # 43     ecut=    80.00 Ry     beta=0.70
     Davidson diagonalization with overlap
     ethr =  5.12E-04,  avg # of iterations =  1.3

     negative rho (up, down):  1.629E-02 0.000E+00

     total cpu time spent up to now is    19765.8 secs

     total energy              =  -12583.93508393 Ry
     Harris-Foulkes estimate   =  -12584.83636666 Ry
     estimated scf accuracy    <       8.85329229 Ry

     iteration # 44     ecut=    80.00 Ry     beta=0.70
     Davidson diagonalization with overlap
     ethr =  5.12E-04,  avg # of iterations =  4.3

     negative rho (up, down):  1.367E-02 0.000E+00

     total cpu time spent up to now is    20144.2 secs

     total energy              =  -12584.18582960 Ry
     Harris-Foulkes estimate   =  -12584.25462280 Ry
     estimated scf accuracy    <      14.10524463 Ry

     iteration # 45     ecut=    80.00 Ry     beta=0.70
     Davidson diagonalization with overlap
     ethr =  5.12E-04,  avg # of iterations =  1.0

     negative rho (up, down):  5.043E-03 0.000E+00

     total cpu time spent up to now is    20460.4 secs

     total energy              =  -12584.16380312 Ry
     Harris-Foulkes estimate   =  -12584.28166718 Ry
     estimated scf accuracy    <      18.81165754 Ry

     iteration # 46     ecut=    80.00 Ry     beta=0.70
     Davidson diagonalization with overlap
     ethr =  5.12E-04,  avg # of iterations =  1.5

     negative rho (up, down):  2.986E-03 0.000E+00

     total cpu time spent up to now is    20788.2 secs

     total energy              =  -12583.84927980 Ry
     Harris-Foulkes estimate   =  -12584.35121642 Ry
     estimated scf accuracy    <      26.08472796 Ry

     iteration # 47     ecut=    80.00 Ry     beta=0.70
     Davidson diagonalization with overlap
     ethr =  5.12E-04,  avg # of iterations =  1.7

     negative rho (up, down):  5.978E-03 0.000E+00

     total cpu time spent up to now is    21119.6 secs

     total energy              =  -12583.88103612 Ry
     Harris-Foulkes estimate   =  -12584.01101528 Ry
     estimated scf accuracy    <       6.54318043 Ry

     iteration # 48     ecut=    80.00 Ry     beta=0.70
     Davidson diagonalization with overlap
     ethr =  5.12E-04,  avg # of iterations =  1.0

     negative rho (up, down):  1.395E-01 0.000E+00

     total cpu time spent up to now is    21436.4 secs

     total energy              =  -12583.82795056 Ry
     Harris-Foulkes estimate   =  -12583.92556802 Ry
     estimated scf accuracy    <       3.82837163 Ry

     iteration # 49     ecut=    80.00 Ry     beta=0.70
     Davidson diagonalization with overlap
     ethr =  3.08E-04,  avg # of iterations =  7.5

     negative rho (up, down):  3.236E-02 0.000E+00

     total cpu time spent up to now is    21892.6 secs

     total energy              =  -12583.78506098 Ry
     Harris-Foulkes estimate   =  -12583.86609211 Ry
     estimated scf accuracy    <       3.27148926 Ry

     iteration # 50     ecut=    80.00 Ry     beta=0.70
     Davidson diagonalization with overlap
     ethr =  2.63E-04,  avg # of iterations =  2.8

     negative rho (up, down):  3.611E-02 0.000E+00

     total cpu time spent up to now is    22248.7 secs

     total energy              =  -12583.76247276 Ry
     Harris-Foulkes estimate   =  -12583.80564350 Ry
     estimated scf accuracy    <       1.16229937 Ry

     iteration # 51     ecut=    80.00 Ry     beta=0.70
     Davidson diagonalization with overlap
     ethr =  9.36E-05,  avg # of iterations =  2.3

     negative rho (up, down):  2.518E-02 0.000E+00

     total cpu time spent up to now is    22597.2 secs

     total energy              =  -12583.75575349 Ry
     Harris-Foulkes estimate   =  -12583.77364278 Ry
     estimated scf accuracy    <       0.36216041 Ry

     iteration # 52     ecut=    80.00 Ry     beta=0.70
     Davidson diagonalization with overlap
     ethr =  2.92E-05,  avg # of iterations =  6.7

     negative rho (up, down):  3.228E-02 0.000E+00

     total cpu time spent up to now is    23020.4 secs

     total energy              =  -12583.74758975 Ry
     Harris-Foulkes estimate   =  -12583.76142635 Ry
     estimated scf accuracy    <       0.15051149 Ry

     iteration # 53     ecut=    80.00 Ry     beta=0.70
     Davidson diagonalization with overlap
     ethr =  1.21E-05,  avg # of iterations = 10.5

     negative rho (up, down):  2.722E-02 0.000E+00

     total cpu time spent up to now is    23541.5 secs

     total energy              =  -12583.74827308 Ry
     Harris-Foulkes estimate   =  -12583.75171724 Ry
     estimated scf accuracy    <       0.02438183 Ry

     iteration # 54     ecut=    80.00 Ry     beta=0.70
     Davidson diagonalization with overlap
     ethr =  1.96E-06,  avg # of iterations = 10.5

     negative rho (up, down):  2.370E-02 0.000E+00

     total cpu time spent up to now is    24086.2 secs

     total energy              =  -12583.74965295 Ry
     Harris-Foulkes estimate   =  -12583.74986829 Ry
     estimated scf accuracy    <       0.00548371 Ry

     iteration # 55     ecut=    80.00 Ry     beta=0.70
     Davidson diagonalization with overlap
     ethr =  4.42E-07,  avg # of iterations = 10.5

     negative rho (up, down):  1.842E-02 0.000E+00

     total cpu time spent up to now is    24649.1 secs

     total energy              =  -12583.74995784 Ry
     Harris-Foulkes estimate   =  -12583.75041692 Ry
     estimated scf accuracy    <       0.00685819 Ry

     iteration # 56     ecut=    80.00 Ry     beta=0.70
     Davidson diagonalization with overlap
     ethr =  4.42E-07,  avg # of iterations =  9.5

     negative rho (up, down):  1.438E-02 0.000E+00

     total cpu time spent up to now is    25144.1 secs

     total energy              =  -12583.74968321 Ry
     Harris-Foulkes estimate   =  -12583.75006756 Ry
     estimated scf accuracy    <       0.00325253 Ry

     iteration # 57     ecut=    80.00 Ry     beta=0.70
     Davidson diagonalization with overlap
     ethr =  2.62E-07,  avg # of iterations =  9.5

     negative rho (up, down):  1.009E-02 0.000E+00

     total cpu time spent up to now is    25654.8 secs

     total energy              =  -12583.74963134 Ry
     Harris-Foulkes estimate   =  -12583.74977317 Ry
     estimated scf accuracy    <       0.00075231 Ry

     iteration # 58     ecut=    80.00 Ry     beta=0.70
     Davidson diagonalization with overlap
     ethr =  6.06E-08,  avg # of iterations =  8.5

     negative rho (up, down):  5.630E-03 0.000E+00

     total cpu time spent up to now is    26145.2 secs

     total energy              =  -12583.74963828 Ry
     Harris-Foulkes estimate   =  -12583.74968077 Ry
     estimated scf accuracy    <       0.00007610 Ry

     iteration # 59     ecut=    80.00 Ry     beta=0.70
     Davidson diagonalization with overlap
     c_bands:  1 eigenvalues not converged
     c_bands:  1 eigenvalues not converged
     ethr =  6.13E-09,  avg # of iterations = 16.7

     negative rho (up, down):  3.293E-03 0.000E+00

     total cpu time spent up to now is    26846.6 secs

     total energy              =  -12583.74961814 Ry
     Harris-Foulkes estimate   =  -12583.74964758 Ry
     estimated scf accuracy    <       0.00002175 Ry

     iteration # 60     ecut=    80.00 Ry     beta=0.70
     Davidson diagonalization with overlap
     c_bands:  1 eigenvalues not converged
     ethr =  1.75E-09,  avg # of iterations = 15.2

     negative rho (up, down):  3.352E-03 0.000E+00

     total cpu time spent up to now is    27477.2 secs

     total energy              =  -12583.74961897 Ry
     Harris-Foulkes estimate   =  -12583.74962103 Ry
     estimated scf accuracy    <       0.00000729 Ry

     iteration # 61     ecut=    80.00 Ry     beta=0.70
     Davidson diagonalization with overlap
     ethr =  5.87E-10,  avg # of iterations =  2.0

     negative rho (up, down):  2.785E-03 0.000E+00

     total cpu time spent up to now is    27826.8 secs

     total energy              =  -12583.74961815 Ry
     Harris-Foulkes estimate   =  -12583.74961979 Ry
     estimated scf accuracy    <       0.00000154 Ry

     iteration # 62     ecut=    80.00 Ry     beta=0.70
     Davidson diagonalization with overlap
     ethr =  1.24E-10,  avg # of iterations =  2.0

     negative rho (up, down):  2.632E-03 0.000E+00

     total cpu time spent up to now is    28180.1 secs

     total energy              =  -12583.74961820 Ry
     Harris-Foulkes estimate   =  -12583.74961831 Ry
     estimated scf accuracy    <       0.00000033 Ry

     iteration # 63     ecut=    80.00 Ry     beta=0.70
     Davidson diagonalization with overlap
     ethr =  2.67E-11,  avg # of iterations =  2.5

     negative rho (up, down):  2.488E-03 0.000E+00

     total cpu time spent up to now is    28588.3 secs

     total energy              =  -12583.74961833 Ry
     Harris-Foulkes estimate   =  -12583.74961827 Ry
     estimated scf accuracy    <       0.00000021 Ry

     iteration # 64     ecut=    80.00 Ry     beta=0.70
     Davidson diagonalization with overlap
     ethr =  1.67E-11,  avg # of iterations =  2.0

     negative rho (up, down):  2.417E-03 0.000E+00

     total cpu time spent up to now is    28936.5 secs

     total energy              =  -12583.74961846 Ry
     Harris-Foulkes estimate   =  -12583.74961834 Ry
     estimated scf accuracy    <       0.00000005 Ry

     iteration # 65     ecut=    80.00 Ry     beta=0.70
     Davidson diagonalization with overlap
     ethr =  3.71E-12,  avg # of iterations =  2.7

     negative rho (up, down):  2.395E-03 0.000E+00

     total cpu time spent up to now is    29331.3 secs

     total energy              =  -12583.74961852 Ry
     Harris-Foulkes estimate   =  -12583.74961847 Ry
     estimated scf accuracy    <       0.00000002 Ry

     iteration # 66     ecut=    80.00 Ry     beta=0.70
     Davidson diagonalization with overlap
     ethr =  1.70E-12,  avg # of iterations =  2.0

     negative rho (up, down):  2.379E-03 0.000E+00

     total cpu time spent up to now is    29688.5 secs

     total energy              =  -12583.74961856 Ry
     Harris-Foulkes estimate   =  -12583.74961852 Ry
     estimated scf accuracy    <       0.00000001 Ry

     iteration # 67     ecut=    80.00 Ry     beta=0.70
     Davidson diagonalization with overlap
     ethr =  1.06E-12,  avg # of iterations =  2.5

     negative rho (up, down):  2.363E-03 0.000E+00

     total cpu time spent up to now is    30029.1 secs

     End of self-consistent calculation

          k = 0.0000 0.0000 0.0000 (256287 PWs)   bands (ev):

   -20.9855 -18.4763 -17.3112 -16.4306 -15.6080 -14.9228 -14.8125 -14.4368
   -14.2842 -14.1003 -13.4530 -13.4375 -12.7289 -12.2660 -12.2160 -11.1682
   -10.8556 -10.4315  -9.7963  -9.5807  -9.2641  -8.9984  -8.8616  -8.1217
    -8.0758  -8.0339  -7.7515  -7.5541  -6.9854  -6.9112  -6.5762  -6.5149
    -6.4115  -6.1317  -5.9927  -5.9773  -5.8531  -5.7253  -5.6534  -5.6323
    -5.2655  -5.1550  -5.0547  -4.9022  -4.7702  -4.6679  -4.5856  -4.4872
    -4.4754  -4.2720  -3.9553  -3.9330  -3.8998  -3.8846  -3.7745  -3.7534
    -3.6655  -3.5670  -3.5346  -3.5134  -3.5065  -3.5029  -3.4948  -3.4859
    -3.4304  -3.3156  -3.2649  -3.2250  -3.1901  -3.1482  -3.1112  -3.0667
    -3.0574  -2.9618  -2.8406  -2.8319  -2.8242  -2.7691  -2.7029  -2.6910
    -2.6894  -2.6531  -2.6520  -2.6479  -2.6477  -2.6022  -2.5610  -2.5228
    -2.5221  -2.5137  -2.5123  -2.4445  -2.4266  -2.3837  -2.3414  -2.3297
    -2.2742  -2.2436  -2.2382  -2.2317  -2.2142  -2.1770  -2.1742  -2.1541
    -2.1505  -2.1417  -2.1156  -2.0857  -2.0690  -2.0643  -2.0571  -2.0509
    -2.0424  -2.0268  -2.0141  -2.0118  -2.0006  -1.9532  -1.9449  -1.9354
    -1.9110  -1.8949  -1.8863  -1.8512  -1.8205  -1.7970  -1.7820  -1.7667
    -1.7562  -1.7479  -1.7112  -1.7093  -1.6987  -1.6916  -1.6865  -1.6676
    -1.6608  -1.6512  -1.5935  -1.5757  -1.5521  -1.5503  -1.5390  -1.5368
    -1.5326  -1.5282  -1.5243  -1.5235  -1.5216  -1.5204  -1.5145  -1.5040
    -1.4983  -1.4956  -1.4864  -1.4516  -1.4423  -1.4391  -1.4343  -1.4225
    -1.4191  -1.4151  -1.3992  -1.3905  -1.3608  -1.3598  -1.3574  -1.3549
    -1.3525  -1.3508  -1.3477  -1.3472  -1.3463  -1.3451  -1.3445  -1.3424
    -1.3393  -1.3363  -1.3266  -1.3207  -1.3109  -1.2776  -1.2386  -1.1953
    -1.1870  -1.1827  -1.1815  -1.1771  -1.1570  -1.1429  -1.1395  -1.1264
    -1.1141  -1.1105  -1.1013  -1.1003  -1.0951  -1.0878  -1.0652  -1.0629
    -1.0602  -1.0573  -1.0549  -1.0524  -1.0453  -1.0431  -1.0353  -0.9962
    -0.9858  -0.9615  -0.9423  -0.9403  -0.9323  -0.9290  -0.9245  -0.9197
    -0.9163  -0.9108  -0.9040  -0.9027  -0.9007  -0.9005  -0.8994  -0.8969
    -0.8902  -0.8851  -0.8843  -0.8819  -0.8768  -0.8665  -0.8479  -0.8471
    -0.8112  -0.8041  -0.7971  -0.7914  -0.7910  -0.7847  -0.7666  -0.7662
    -0.7597  -0.7585  -0.7557  -0.7521  -0.7491  -0.7435  -0.7406  -0.7368
    -0.7241  -0.7217  -0.7197  -0.7176  -0.7136  -0.7115  -0.7105  -0.7087
    -0.7076  -0.6929  -0.6898  -0.6875  -0.6826  -0.6714  -0.6657  -0.6336
    -0.6255  -0.6190  -0.6153  -0.6129  -0.5992  -0.5928  -0.5827  -0.5781
    -0.5689  -0.5654  -0.5631  -0.5617  -0.5590  -0.5570  -0.5358  -0.5301
    -0.5211  -0.5162  -0.5108  -0.5081  -0.5032  -0.4986  -0.4884  -0.4822
    -0.4712  -0.4702  -0.4677  -0.4658  -0.4599  -0.4545  -0.4534  -0.4507
    -0.4488  -0.4426  -0.4377  -0.4370  -0.4351  -0.4336  -0.4279  -0.4158
    -0.4118  -0.3977  -0.3965  -0.3787  -0.3683  -0.3591  -0.3422  -0.3315
    -0.3104  -0.3023  -0.2919  -0.2815  -0.2678  -0.2670  -0.2650  -0.2631
    -0.2551  -0.2519  -0.2445  -0.2370  -0.2295  -0.2213  -0.2189  -0.2161
    -0.2025  -0.1939  -0.1689  -0.1629  -0.1598  -0.1550  -0.1521  -0.1501
    -0.1392  -0.1293  -0.1252  -0.1204  -0.1166  -0.1111  -0.0985  -0.0809
    -0.0779  -0.0745  -0.0654  -0.0582  -0.0581  -0.0513  -0.0278  -0.0238
    -0.0164  -0.0117  -0.0088  -0.0013   0.0034   0.0056   0.0097   0.0116
     0.0133   0.0212   0.0286   0.0304   0.0324   0.0343   0.0376   0.0432
     0.0453   0.0473   0.0500   0.0537   0.0552   0.0642   0.0711   0.0764
     0.0943   0.0978   0.0999   0.1059   0.1077   0.1096   0.1165   0.1287
     0.1439   0.1475   0.1495   0.1505   0.1548   0.1566   0.1575   0.1716
     0.1730   0.1767   0.1830   0.1881   0.1899   0.1912   0.1958   0.1976
     0.2042   0.2067   0.2183   0.2242   0.2284   0.2310   0.2385   0.2396
     0.2454   0.2511   0.2513   0.2540   0.2585   0.2590   0.2650   0.2657
     0.2875   0.3052   0.3069   0.3152   0.3162   0.3179   0.3253   0.3271
     0.3281   0.3545   0.3574   0.3622   0.3682   0.3789   0.3799   0.3879
     0.3912   0.3957   0.3972   0.4011   0.4052   0.4068   0.4143   0.4203
     0.4257   0.4296   0.4323   0.4352   0.4415   0.4448   0.4529   0.4558
     0.4606   0.4752   0.4781   0.4805   0.4864   0.4977   0.5031   0.5038
     0.5081   0.5095   0.5134   0.5144   0.5185   0.5199   0.5275   0.5308
     0.5333   0.5388   0.5427   0.5467   0.5486   0.5558   0.5618   0.5662
     0.5743   0.5812   0.5841   0.5849   0.5932   0.5998   0.6011   0.6066
     0.6122   0.6133   0.6186   0.6191   0.6209   0.6238   0.6289   0.6367
     0.6385   0.6408   0.6530   0.6622   0.6706   0.6801   0.6898   0.6947
     0.7032   0.7052   0.7074   0.7100   0.7142   0.7159   0.7247   0.7260
     0.7279   0.7343   0.7367   0.7375   0.7421   0.7452   0.7492   0.7536
     0.7580   0.7607   0.7620   0.7697   0.7755   0.7767   0.7786   0.7824
     0.7855   0.7870   0.7915   0.7936   0.7985   0.8019   0.8065   0.8095
     0.8122   0.8141   0.8156   0.8167   0.8194   0.8268   0.8299   0.8460
     0.8495   0.8517   0.8528   0.8569   0.8604   0.8670   0.8703   0.8834
     0.8874   0.8927   0.8928   0.9061   0.9091   0.9116   0.9137   0.9140
     0.9178   0.9235   0.9258   0.9298   0.9326   0.9357   0.9385   0.9398
     0.9457   0.9497   0.9517   0.9532   0.9616   0.9639   0.9693   0.9701
     0.9739   0.9766   0.9783   0.9864   0.9877   0.9944   1.0192   1.0249
     1.0347   1.0593   1.0598   1.0633   1.0652   1.0775   1.0828   1.0841
     1.1006   1.1088   1.1141   1.1271   1.1338   1.1405   1.1438   1.1460
     1.1497   1.1549   1.1614   1.3825   1.4586   1.4778   1.5323   1.5941
     1.6280   1.6721   1.6982   1.7087   1.7130   1.7141   1.7236   1.7294
     1.7466   1.7719   1.8014   1.9225   1.9271   1.9678   1.9735   1.9810
     1.9910   1.9991   2.0374   2.2067   2.2294   2.2468   2.3021   2.6894
     2.7445   2.9963   3.0565   3.0709   3.2718   3.3093   3.3345   3.3576
     3.3618   3.3866   3.4256   3.4403   3.4553   3.4725   3.5049   3.5071
     3.5131   3.5377   3.6069   3.6662   3.7298   3.7547   3.7673   3.8677
     4.0070   4.0538   4.2832   4.3845   4.4865   4.7837   4.7977   4.9044
     5.0403   5.1391   5.1754   5.3074   5.3507   5.3721   5.4220   5.4712
     5.6338   5.7242   5.8410   5.8598   5.9268   5.9928   5.9972   6.0597
     6.0955   6.1731   6.2171   6.2540   6.2581   6.2966   6.3081   6.4380
     6.5098   6.5363   6.5803   6.6444   6.6754   6.8530   6.8583   6.8953
     6.9938   7.0887   7.1385   7.2003   7.2111   7.2627   7.2746   7.3065
     7.4102   7.5293   7.5902   7.6532   7.6891   7.7331   7.8304   7.8386
     7.8449   7.8629   7.9302   7.9362   8.0000   8.0532   8.0801   8.1008
     8.1611   8.1965   8.2321   8.2532   8.2707   8.3020   8.3296   8.3347
     8.3538   8.3790   8.4099   8.4149   8.4672   8.5035   8.5819   8.6257
     8.7206   8.7502   8.7830   8.8020   8.8462   8.8827   8.9693   9.0659
     9.1049   9.2064   9.2169   9.2466   9.2945   9.3354   9.4192   9.4492
     9.5408

          k = 0.0000-0.2165 0.0000 (256176 PWs)   bands (ev):

   -20.9855 -18.4763 -17.3112 -16.4306 -15.6080 -14.9228 -14.8125 -14.4368
   -14.2842 -14.1003 -13.4530 -13.4375 -12.7291 -12.2658 -12.2160 -11.1682
   -10.8556 -10.4306  -9.7966  -9.5808  -9.2660  -8.9984  -8.8613  -8.1196
    -8.0759  -8.0339  -7.7506  -7.5541  -6.9853  -6.9111  -6.5767  -6.4143
    -6.3942  -6.3742  -6.1200  -5.8609  -5.7262  -5.6613  -5.6048  -5.3826
    -5.3325  -5.2920  -5.1452  -5.0713  -4.8681  -4.7503  -4.6604  -4.4052
    -4.2842  -4.1383  -3.9452  -3.8537  -3.8107  -3.8018  -3.7884  -3.7790
    -3.7536  -3.7394  -3.5887  -3.5674  -3.5351  -3.5245  -3.5211  -3.4441
    -3.3210  -3.2355  -3.1936  -3.1131  -3.0901  -3.0778  -3.0746  -3.0737
    -3.0624  -3.0397  -2.9818  -2.9346  -2.8929  -2.7670  -2.7487  -2.7223
    -2.7102  -2.6607  -2.6540  -2.6450  -2.6307  -2.6205  -2.5944  -2.5209
    -2.4847  -2.4840  -2.4594  -2.4593  -2.4278  -2.3844  -2.3717  -2.3448
    -2.2890  -2.2665  -2.2491  -2.2465  -2.2396  -2.2386  -2.2206  -2.2137
    -2.1901  -2.1843  -2.1673  -2.1482  -2.1382  -2.1276  -2.1067  -1.9788
    -1.9580  -1.9546  -1.9527  -1.9116  -1.8863  -1.8706  -1.8670  -1.8194
    -1.8167  -1.8110  -1.7951  -1.7781  -1.7768  -1.7738  -1.7716  -1.7649
    -1.7606  -1.7529  -1.7372  -1.7295  -1.7208  -1.7187  -1.7096  -1.7079
    -1.6954  -1.6869  -1.6695  -1.6431  -1.6319  -1.6261  -1.5875  -1.5855
    -1.5520  -1.5488  -1.5470  -1.5444  -1.5316  -1.5290  -1.5005  -1.4931
    -1.4910  -1.4823  -1.4731  -1.4728  -1.4712  -1.4613  -1.4339  -1.4202
    -1.4192  -1.4179  -1.4171  -1.4111  -1.4068  -1.4035  -1.3858  -1.3808
    -1.3518  -1.3332  -1.3311  -1.3239  -1.3197  -1.3134  -1.3079  -1.2994
    -1.2904  -1.2811  -1.2724  -1.2695  -1.2569  -1.2521  -1.2465  -1.2388
    -1.2143  -1.1626  -1.1611  -1.1455  -1.1438  -1.1320  -1.1306  -1.1102
    -1.1095  -1.1037  -1.1007  -1.0992  -1.0980  -1.0785  -1.0747  -1.0591
    -1.0536  -1.0522  -1.0452  -1.0362  -1.0356  -1.0341  -1.0327  -1.0266
    -1.0130  -1.0050  -0.9945  -0.9830  -0.9829  -0.9636  -0.9562  -0.9502
    -0.9495  -0.9478  -0.9431  -0.9410  -0.9198  -0.9160  -0.8927  -0.8876
    -0.8679  -0.8658  -0.8576  -0.8476  -0.8466  -0.8312  -0.8242  -0.8099
    -0.8024  -0.7990  -0.7950  -0.7919  -0.7880  -0.7861  -0.7794  -0.7785
    -0.7613  -0.7607  -0.7551  -0.7516  -0.7459  -0.7431  -0.7425  -0.7417
    -0.7345  -0.7327  -0.7281  -0.7196  -0.7067  -0.7040  -0.7017  -0.6995
    -0.6841  -0.6588  -0.6456  -0.6430  -0.6385  -0.6365  -0.6349  -0.6305
    -0.6215  -0.6197  -0.6074  -0.6026  -0.5958  -0.5935  -0.5923  -0.5842
    -0.5827  -0.5786  -0.5784  -0.5726  -0.5693  -0.5667  -0.5526  -0.5358
    -0.5294  -0.5218  -0.5208  -0.5192  -0.5159  -0.4956  -0.4937  -0.4921
    -0.4878  -0.4785  -0.4750  -0.4730  -0.4699  -0.4592  -0.4512  -0.4428
    -0.4351  -0.4262  -0.4252  -0.4236  -0.4199  -0.4115  -0.4041  -0.3997
    -0.3957  -0.3863  -0.3823  -0.3792  -0.3748  -0.3644  -0.3612  -0.3397
    -0.3288  -0.3251  -0.3184  -0.3167  -0.3099  -0.3029  -0.2967  -0.2963
    -0.2873  -0.2752  -0.2709  -0.2464  -0.2360  -0.2344  -0.2247  -0.2114
    -0.2087  -0.1845  -0.1537  -0.1401  -0.1289  -0.1231  -0.1200  -0.1143
    -0.1124  -0.1074  -0.0933  -0.0837  -0.0767  -0.0701  -0.0620  -0.0615
    -0.0564  -0.0536  -0.0488  -0.0470  -0.0433  -0.0414  -0.0326  -0.0289
    -0.0276  -0.0202  -0.0192  -0.0164  -0.0049   0.0037   0.0085   0.0145
     0.0211   0.0248   0.0279   0.0302   0.0351   0.0384   0.0390   0.0423
     0.0498   0.0559   0.0561   0.0573   0.0593   0.0613   0.0720   0.0745
     0.0776   0.0808   0.0832   0.0862   0.0895   0.0930   0.0949   0.1014
     0.1082   0.1182   0.1228   0.1413   0.1472   0.1578   0.1581   0.1591
     0.1629   0.1673   0.1708   0.1767   0.1809   0.1836   0.1840   0.1856
     0.1942   0.1999   0.2092   0.2204   0.2245   0.2297   0.2320   0.2374
     0.2445   0.2473   0.2532   0.2580   0.2647   0.2725   0.2731   0.2755
     0.2777   0.2850   0.2884   0.3054   0.3186   0.3350   0.3412   0.3695
     0.3846   0.3876   0.3886   0.3916   0.3935   0.3956   0.4033   0.4046
     0.4070   0.4130   0.4135   0.4178   0.4188   0.4255   0.4284   0.4307
     0.4351   0.4378   0.4439   0.4481   0.4531   0.4554   0.4591   0.4628
     0.4663   0.4678   0.4684   0.4696   0.4713   0.4736   0.4769   0.4819
     0.4881   0.4902   0.4922   0.4940   0.4956   0.5015   0.5073   0.5115
     0.5135   0.5207   0.5263   0.5277   0.5310   0.5331   0.5365   0.5381
     0.5409   0.5426   0.5462   0.5482   0.5557   0.5809   0.5891   0.5955
     0.6254   0.6331   0.6340   0.6378   0.6449   0.6522   0.6554   0.6625
     0.6692   0.6707   0.6761   0.6804   0.6814   0.6857   0.6880   0.6907
     0.6985   0.6991   0.7020   0.7033   0.7037   0.7074   0.7087   0.7101
     0.7136   0.7162   0.7241   0.7286   0.7290   0.7303   0.7369   0.7380
     0.7428   0.7511   0.7554   0.7666   0.7684   0.7710   0.7721   0.7750
     0.7780   0.7800   0.7837   0.7917   0.7982   0.7994   0.8005   0.8047
     0.8073   0.8112   0.8178   0.8199   0.8210   0.8315   0.8345   0.8386
     0.8397   0.8512   0.8547   0.8576   0.8640   0.8755   0.8801   0.8848
     0.8859   0.8877   0.8902   0.8934   0.8957   0.9009   0.9036   0.9138
     0.9148   0.9199   0.9286   0.9300   0.9313   0.9428   0.9465   0.9509
     0.9512   0.9529   0.9546   0.9547   0.9561   0.9810   0.9839   0.9888
     0.9907   0.9953   1.0064   1.0125   1.0141   1.0173   1.0248   1.0267
     1.0316   1.0324   1.0359   1.0384   1.0513   1.0867   1.0987   1.1048
     1.1066   1.1885   1.2154   1.2270   1.2341   1.2484   1.2550   1.2601
     1.2802   1.2861   1.2867   1.2950   1.3068   1.3208   1.3219   1.3266
     1.3481   1.3498   1.3611   1.6083   1.6851   1.8850   1.9211   1.9491
     1.9507   1.9861   1.9994   2.0482   2.0740   2.0824   2.0981   2.1195
     2.1661   2.2043   2.2076   2.2315   2.2882   2.3065   2.3361   2.4225
     2.4247   2.5856   2.6720   2.6721   2.6833   2.8347   2.9427   3.0113
     3.1389   3.1706   3.1894   3.4596   3.5682   3.6072   3.6510   3.7581
     3.8495   3.8548   3.8708   3.8820   3.9470   4.0593   4.1660   4.2609
     4.3586   4.3681   4.5276   4.5524   4.6077   4.6885   4.7692   4.8496
     4.8577   4.8693   4.8974   4.9331   5.0735   5.1074   5.2887   5.5103
     5.7533   5.7791   5.8640   5.9351   5.9949   6.0541   6.0697   6.0829
     6.1182   6.1763   6.1960   6.2368   6.3123   6.4222   6.5007   6.5251
     6.5632   6.5810   6.5984   6.6388   6.6410   6.6522   6.6687   6.6848
     6.7553   6.8602   6.8899   6.9723   7.0442   7.1151   7.1750   7.2293
     7.3262   7.3568   7.6227   7.6341   7.6918   7.8101   7.8578   7.8751
     7.9027   7.9779   7.9814   8.0432   8.0939   8.1628   8.1803   8.2117
     8.2185   8.2362   8.2505   8.2777   8.2909   8.3347   8.3837   8.3966
     8.4222   8.5313   8.5708   8.6485   8.7176   8.7361   8.8336   8.8583
     8.8672   8.8720   8.8982   8.9300   8.9414   8.9787   8.9933   9.0042
     9.1047   9.1477   9.1693   9.2651   9.2774   9.2930   9.3060   9.3774
     9.3956

          k = 0.2500 0.0000 0.0000 (256240 PWs)   bands (ev):

   -20.9854 -18.4767 -17.2584 -16.3355 -15.7345 -15.3968 -15.0560 -14.3711
   -14.0031 -13.8124 -13.2869 -13.0891 -12.5798 -12.4084 -11.6790 -11.4003
   -11.2502 -10.4628 -10.3132  -9.8431  -9.5929  -9.3996  -8.9472  -8.4756
    -8.0478  -7.7500  -7.3900  -7.2306  -7.0011  -6.7226  -6.3512  -6.3362
    -6.1008  -5.9646  -5.8189  -5.8040  -5.6703  -5.5058  -5.4439  -5.2039
    -5.1303  -4.9749  -4.9583  -4.8820  -4.7311  -4.6319  -4.5129  -4.4988
    -4.4653  -4.3804  -4.3712  -4.3386  -4.2946  -4.2557  -4.1352  -4.0976
    -3.9705  -3.8664  -3.8023  -3.7199  -3.6742  -3.6048  -3.5355  -3.5200
    -3.4727  -3.4022  -3.3607  -3.2984  -3.2905  -3.2475  -3.1819  -3.1098
    -3.0773  -3.0423  -2.8989  -2.8626  -2.8237  -2.8020  -2.6205  -2.6031
    -2.5978  -2.5817  -2.5782  -2.4975  -2.4199  -2.4188  -2.3809  -2.3558
    -2.3358  -2.3273  -2.3026  -2.3010  -2.2964  -2.2902  -2.2858  -2.2722
    -2.2523  -2.2487  -2.2187  -2.1817  -2.1514  -2.1430  -2.1379  -2.1320
    -2.1052  -2.0802  -2.0782  -2.0768  -2.0735  -2.0665  -2.0422  -2.0333
    -2.0041  -1.9996  -1.9927  -1.9904  -1.9581  -1.8688  -1.8633  -1.8324
    -1.8206  -1.8108  -1.8009  -1.7573  -1.7507  -1.7472  -1.7423  -1.7341
    -1.7253  -1.7082  -1.6920  -1.6863  -1.6841  -1.6791  -1.6755  -1.6693
    -1.6408  -1.6369  -1.6323  -1.6297  -1.6187  -1.6135  -1.6085  -1.6017
    -1.5839  -1.5741  -1.5657  -1.5455  -1.5436  -1.5360  -1.5247  -1.5167
    -1.5130  -1.5080  -1.5055  -1.5028  -1.4939  -1.4857  -1.4847  -1.4819
    -1.4781  -1.4756  -1.4740  -1.4726  -1.4659  -1.4573  -1.4470  -1.4377
    -1.4131  -1.4007  -1.3956  -1.3852  -1.3544  -1.3515  -1.3462  -1.3134
    -1.3106  -1.2995  -1.2936  -1.2838  -1.2703  -1.2693  -1.2616  -1.2581
    -1.2547  -1.2509  -1.2468  -1.2407  -1.2290  -1.2223  -1.1731  -1.1293
    -1.1150  -1.1020  -1.0971  -1.0866  -1.0731  -1.0672  -1.0625  -1.0538
    -1.0499  -1.0476  -1.0443  -1.0364  -1.0334  -1.0291  -1.0243  -1.0163
    -0.9923  -0.9880  -0.9856  -0.9814  -0.9774  -0.9713  -0.9607  -0.9592
    -0.9584  -0.9502  -0.9443  -0.9019  -0.9001  -0.8958  -0.8910  -0.8887
    -0.8863  -0.8809  -0.8783  -0.8566  -0.8535  -0.8417  -0.8350  -0.8313
    -0.8275  -0.8031  -0.7960  -0.7938  -0.7913  -0.7907  -0.7852  -0.7794
    -0.7702  -0.7641  -0.7597  -0.7515  -0.7461  -0.7396  -0.7337  -0.7317
    -0.7154  -0.6996  -0.6990  -0.6953  -0.6888  -0.6844  -0.6812  -0.6806
    -0.6779  -0.6518  -0.6510  -0.6443  -0.6403  -0.6326  -0.6242  -0.6143
    -0.6113  -0.6042  -0.5932  -0.5717  -0.5671  -0.5645  -0.5625  -0.5604
    -0.5495  -0.5365  -0.5260  -0.5170  -0.5127  -0.5116  -0.5079  -0.5050
    -0.4970  -0.4962  -0.4944  -0.4917  -0.4894  -0.4869  -0.4846  -0.4804
    -0.4742  -0.4637  -0.4616  -0.4606  -0.4563  -0.4511  -0.4400  -0.4349
    -0.4274  -0.4213  -0.4188  -0.4104  -0.3914  -0.3878  -0.3835  -0.3803
    -0.3753  -0.3702  -0.3622  -0.3593  -0.3534  -0.3465  -0.3405  -0.3323
    -0.3126  -0.3039  -0.2643  -0.2524  -0.2466  -0.2434  -0.2416  -0.2339
    -0.2315  -0.2269  -0.2232  -0.2198  -0.2189  -0.2149  -0.2120  -0.2090
    -0.2058  -0.2036  -0.1974  -0.1915  -0.1883  -0.1839  -0.1776  -0.1719
    -0.1681  -0.1617  -0.1612  -0.1577  -0.1487  -0.1434  -0.1387  -0.1187
    -0.1096  -0.0938  -0.0891  -0.0818  -0.0787  -0.0714  -0.0641  -0.0589
    -0.0515  -0.0466  -0.0311  -0.0259  -0.0243  -0.0214  -0.0181  -0.0135
    -0.0115  -0.0075  -0.0042  -0.0007   0.0060   0.0127   0.0135   0.0214
     0.0237   0.0298   0.0346   0.0439   0.0453   0.0517   0.0551   0.0599
     0.0683   0.0759   0.0790   0.0852   0.0901   0.0924   0.0953   0.0986
     0.1013   0.1074   0.1115   0.1154   0.1194   0.1304   0.1371   0.1422
     0.1502   0.1534   0.1602   0.1640   0.1679   0.1737   0.1825   0.1852
     0.1998   0.2051   0.2174   0.2257   0.2359   0.2390   0.2415   0.2458
     0.2481   0.2582   0.2651   0.2690   0.2730   0.2764   0.2808   0.2815
     0.2827   0.2937   0.2997   0.3122   0.3158   0.3229   0.3252   0.3330
     0.3382   0.3457   0.3517   0.3572   0.3615   0.3784   0.3806   0.3820
     0.3888   0.3903   0.3917   0.3943   0.3961   0.3968   0.4045   0.4065
     0.4176   0.4298   0.4405   0.4471   0.4527   0.4605   0.4678   0.4713
     0.4781   0.4860   0.4886   0.4900   0.4915   0.4942   0.5006   0.5017
     0.5052   0.5074   0.5122   0.5176   0.5195   0.5207   0.5219   0.5226
     0.5282   0.5304   0.5363   0.5370   0.5400   0.5464   0.5514   0.5572
     0.5610   0.5683   0.5707   0.5721   0.5737   0.5794   0.5846   0.5916
     0.5961   0.6009   0.6058   0.6101   0.6135   0.6150   0.6172   0.6209
     0.6272   0.6295   0.6390   0.6428   0.6453   0.6517   0.6542   0.6616
     0.6654   0.6821   0.6877   0.6897   0.6918   0.6977   0.7079   0.7125
     0.7217   0.7319   0.7368   0.7399   0.7441   0.7495   0.7545   0.7593
     0.7605   0.7614   0.7677   0.7699   0.7772   0.7804   0.7844   0.7881
     0.7902   0.7928   0.7972   0.7978   0.8004   0.8038   0.8073   0.8109
     0.8157   0.8190   0.8201   0.8263   0.8290   0.8329   0.8352   0.8390
     0.8522   0.8538   0.8590   0.8609   0.8663   0.8686   0.8718   0.8800
     0.8844   0.8865   0.8916   0.8943   0.8960   0.9050   0.9065   0.9166
     0.9201   0.9215   0.9228   0.9256   0.9283   0.9299   0.9314   0.9360
     0.9382   0.9416   0.9445   0.9459   0.9576   0.9642   0.9673   0.9723
     0.9737   0.9755   0.9832   0.9848   0.9863   0.9904   0.9937   0.9988
     1.0055   1.0126   1.0174   1.0182   1.0345   1.0450   1.0525   1.0566
     1.0776   1.0811   1.0900   1.1217   1.1255   1.1273   1.1332   1.1682
     1.2189   1.2553   1.2639   1.2713   1.2789   1.3099   1.3212   1.3392
     1.5287   1.5334   1.5704   1.5882   1.6010   1.6359   1.6799   1.7605
     1.8340   1.9088   2.0423   2.0646   2.0724   2.1052   2.3524   2.4737
     2.4824   2.5509   2.6844   2.6993   2.7196   2.7207   2.7493   2.8104
     2.9507   2.9792   3.0627   3.0922   3.1398   3.1604   3.1962   3.2101
     3.2301   3.2622   3.3155   3.3442   3.3755   3.4111   3.4814   3.5713
     3.6709   3.7450   3.7794   3.8388   3.9041   4.2275   4.2919   4.3266
     4.3646   4.4694   4.6290   4.6825   4.7262   4.7599   4.8076   4.9018
     4.9577   5.0073   5.0173   5.0416   5.0717   5.1401   5.2090   5.2435
     5.3033   5.3442   5.4148   5.4838   5.5074   5.5175   5.5263   5.5766
     5.5994   5.8393   6.1185   6.1904   6.2048   6.2461   6.2691   6.3033
     6.4548   6.4735   6.5221   6.5428   6.5572   6.5654   6.5950   6.6603
     6.7360   6.8703   6.8903   6.9508   7.0158   7.0849   7.1148   7.2017
     7.2378   7.2755   7.3345   7.4304   7.5055   7.5447   7.5646   7.5904
     7.6107   7.6883   7.7509   7.8035   7.8243   7.8725   7.8954   8.0003
     8.0119   8.0484   8.0810   8.1364   8.1574   8.3182   8.4447   8.4519
     8.5023   8.5145   8.5475   8.5798   8.6419   8.6533   8.6832   8.7190
     8.7241   8.7514   8.8128   8.8484   8.8882   8.9077   8.9433   8.9559
     9.0172   9.0454   9.1163   9.1945   9.2313   9.2560   9.3452   9.3720
     9.3922

          k = 0.2500-0.2165 0.0000 (256316 PWs)   bands (ev):

   -20.9854 -18.4767 -17.2584 -16.3355 -15.7345 -15.3969 -15.0560 -14.3711
   -14.0031 -13.8124 -13.2869 -13.0890 -12.5800 -12.4085 -11.6792 -11.4003
   -11.2500 -10.4627 -10.3124  -9.8432  -9.5934  -9.3999  -8.9492  -8.4757
    -8.0445  -7.7494  -7.3900  -7.2306  -7.0013  -6.7235  -6.3517  -6.2192
    -6.2011  -6.0922  -5.9548  -5.6755  -5.4954  -5.4443  -5.2306  -5.2059
    -5.1588  -5.1317  -4.9754  -4.9108  -4.8510  -4.8282  -4.7102  -4.5940
    -4.4079  -4.3767  -4.2707  -4.1956  -4.1508  -4.1168  -4.0219  -3.9726
    -3.9590  -3.9431  -3.8582  -3.8037  -3.7287  -3.5975  -3.5618  -3.5207
    -3.4604  -3.4241  -3.4035  -3.3895  -3.3376  -3.2329  -3.1865  -3.1050
    -3.0407  -2.8559  -2.8197  -2.8006  -2.7333  -2.6935  -2.6678  -2.6668
    -2.6601  -2.6443  -2.5648  -2.5090  -2.5064  -2.4885  -2.4534  -2.3855
    -2.3633  -2.3548  -2.3170  -2.3124  -2.3098  -2.2737  -2.2371  -2.2229
    -2.2197  -2.2134  -2.2052  -2.2013  -2.1927  -2.1821  -2.1758  -2.1707
    -2.1670  -2.1642  -2.1613  -2.1384  -2.1021  -2.0829  -2.0734  -1.9739
    -1.9648  -1.9021  -1.8819  -1.8402  -1.8319  -1.8253  -1.8031  -1.7794
    -1.7754  -1.7722  -1.7632  -1.7611  -1.7481  -1.7470  -1.7415  -1.7328
    -1.7267  -1.7238  -1.7213  -1.7168  -1.7102  -1.7014  -1.6961  -1.6907
    -1.6810  -1.6769  -1.6722  -1.6473  -1.6360  -1.6267  -1.6216  -1.6149
    -1.6123  -1.6096  -1.5959  -1.5742  -1.5478  -1.5435  -1.5374  -1.5362
    -1.5343  -1.5203  -1.5175  -1.5052  -1.4966  -1.4946  -1.4898  -1.4640
    -1.4616  -1.4557  -1.4553  -1.4527  -1.4472  -1.4414  -1.4319  -1.4227
    -1.4143  -1.3940  -1.3866  -1.3730  -1.3619  -1.3599  -1.3560  -1.3257
    -1.2880  -1.2825  -1.2786  -1.2679  -1.2637  -1.2618  -1.2570  -1.2311
    -1.2215  -1.2158  -1.2125  -1.2050  -1.2044  -1.2002  -1.1831  -1.1698
    -1.1495  -1.1422  -1.1224  -1.1130  -1.1086  -1.0962  -1.0700  -1.0662
    -1.0631  -1.0606  -1.0553  -1.0363  -1.0319  -1.0240  -1.0131  -1.0092
    -1.0014  -0.9984  -0.9875  -0.9839  -0.9774  -0.9645  -0.9520  -0.9385
    -0.9344  -0.9262  -0.9151  -0.9104  -0.9085  -0.8935  -0.8911  -0.8877
    -0.8723  -0.8695  -0.8687  -0.8628  -0.8615  -0.8592  -0.8540  -0.8490
    -0.8458  -0.8386  -0.8258  -0.8188  -0.8168  -0.8059  -0.7844  -0.7797
    -0.7707  -0.7664  -0.7606  -0.7515  -0.7472  -0.7404  -0.7345  -0.7300
    -0.7206  -0.7183  -0.7109  -0.7058  -0.6953  -0.6882  -0.6552  -0.6513
    -0.6326  -0.6165  -0.6132  -0.6099  -0.6078  -0.6060  -0.6031  -0.5982
    -0.5871  -0.5852  -0.5725  -0.5695  -0.5649  -0.5629  -0.5534  -0.5468
    -0.5423  -0.5390  -0.5350  -0.5306  -0.5250  -0.5177  -0.5134  -0.5098
    -0.5086  -0.5033  -0.4999  -0.4956  -0.4931  -0.4915  -0.4884  -0.4855
    -0.4813  -0.4729  -0.4713  -0.4672  -0.4646  -0.4557  -0.4374  -0.4318
    -0.4292  -0.4233  -0.4210  -0.4060  -0.3992  -0.3947  -0.3706  -0.3679
    -0.3644  -0.3623  -0.3547  -0.3495  -0.3433  -0.3382  -0.3342  -0.3287
    -0.3276  -0.3238  -0.3130  -0.3019  -0.2959  -0.2812  -0.2415  -0.2322
    -0.2309  -0.2284  -0.2247  -0.2211  -0.2175  -0.2130  -0.2085  -0.2008
    -0.1985  -0.1948  -0.1886  -0.1868  -0.1803  -0.1749  -0.1703  -0.1662
    -0.1645  -0.1611  -0.1548  -0.1403  -0.1360  -0.1301  -0.1253  -0.1217
    -0.1138  -0.1072  -0.0994  -0.0920  -0.0854  -0.0728  -0.0691  -0.0559
    -0.0527  -0.0476  -0.0443  -0.0411  -0.0301  -0.0271  -0.0251  -0.0210
    -0.0204  -0.0155  -0.0132  -0.0061   0.0070   0.0144   0.0161   0.0249
     0.0304   0.0415   0.0589   0.0653   0.0671   0.0694   0.0822   0.0902
     0.0915   0.0966   0.1028   0.1070   0.1127   0.1172   0.1207   0.1223
     0.1249   0.1372   0.1440   0.1452   0.1468   0.1526   0.1552   0.1612
     0.1657   0.1694   0.1710   0.1753   0.1768   0.1836   0.1850   0.1915
     0.1934   0.1960   0.2000   0.2015   0.2077   0.2093   0.2108   0.2126
     0.2154   0.2232   0.2266   0.2403   0.2487   0.2539   0.2618   0.2654
     0.2699   0.2847   0.2929   0.3118   0.3173   0.3216   0.3234   0.3255
     0.3279   0.3303   0.3324   0.3452   0.3519   0.3531   0.3545   0.3553
     0.3566   0.3607   0.3633   0.3728   0.3810   0.3870   0.3933   0.3968
     0.4002   0.4045   0.4144   0.4211   0.4264   0.4294   0.4353   0.4480
     0.4535   0.4593   0.4657   0.4658   0.4686   0.4736   0.4798   0.4884
     0.4951   0.5026   0.5071   0.5118   0.5161   0.5232   0.5328   0.5358
     0.5461   0.5522   0.5672   0.5735   0.5798   0.5865   0.5873   0.5889
     0.5906   0.5913   0.5928   0.5947   0.5968   0.6018   0.6034   0.6078
     0.6096   0.6163   0.6197   0.6267   0.6287   0.6386   0.6475   0.6554
     0.6581   0.6619   0.6664   0.6709   0.6727   0.6760   0.6786   0.6827
     0.6860   0.6894   0.6910   0.6944   0.6982   0.7005   0.7034   0.7073
     0.7106   0.7161   0.7177   0.7210   0.7239   0.7269   0.7288   0.7321
     0.7404   0.7510   0.7532   0.7572   0.7672   0.7709   0.7744   0.7781
     0.7819   0.7888   0.7961   0.7972   0.8032   0.8095   0.8111   0.8204
     0.8216   0.8253   0.8302   0.8331   0.8354   0.8378   0.8453   0.8468
     0.8521   0.8541   0.8558   0.8611   0.8671   0.8719   0.8743   0.8774
     0.8795   0.8819   0.8849   0.8874   0.8925   0.8952   0.8959   0.8974
     0.9027   0.9064   0.9105   0.9166   0.9209   0.9300   0.9334   0.9368
     0.9387   0.9409   0.9419   0.9433   0.9444   0.9492   0.9542   0.9570
     0.9580   0.9747   0.9779   0.9798   0.9845   0.9938   1.0003   1.0021
     1.0075   1.0192   1.0231   1.0288   1.0336   1.0510   1.0528   1.0553
     1.0602   1.0709   1.0864   1.0997   1.1622   1.1672   1.1807   1.2042
     1.2524   1.2586   1.2613   1.2798   1.2926   1.2966   1.3262   1.3699
     1.4110   1.4489   1.6069   1.6238   1.6486   1.6598   1.7469   1.7857
     1.9415   2.0811   2.0846   2.2417   2.2553   2.2709   2.2909   2.2952
     2.3111   2.3429   2.3603   2.4246   2.4821   2.5328   2.5950   2.6426
     2.9771   3.0686   3.0913   3.1268   3.2369   3.2677   3.2964   3.3322
     3.3546   3.3763   3.4118   3.4964   3.5493   3.5673   3.6000   3.6636
     3.6810   3.8312   3.8826   3.9057   3.9972   4.0561   4.1586   4.1831
     4.2681   4.3110   4.4630   4.4861   4.6226   4.7043   4.7371   4.8091
     4.8629   4.8951   4.9412   4.9608   4.9830   5.0232   5.1376   5.2543
     5.2711   5.3524   5.3905   5.4251   5.4875   5.5141   5.7826   6.0121
     6.0675   6.0864   6.1010   6.1911   6.2612   6.3366   6.3710   6.4080
     6.4532   6.5236   6.5444   6.6218   6.6532   6.6874   6.7003   6.7280
     6.7613   6.7936   6.8493   6.8762   6.9110   6.9429   6.9680   7.0174
     7.1351   7.2107   7.2795   7.3128   7.3939   7.4665   7.5049   7.5907
     7.6852   7.6993   7.7674   7.8196   7.9377   8.0215   8.0511   8.0994
     8.1330   8.1548   8.1681   8.2002   8.2358   8.2577   8.2822   8.3750
     8.4122   8.4449   8.4643   8.5082   8.5804   8.6315   8.6631   8.6781
     8.7260   8.7487   8.7643   8.7878   8.7981   8.8221   8.8794   8.8959
     8.9203   8.9437   9.0283   9.0503   9.1574   9.1731   9.2315   9.2897
     9.3467

          k =-0.5000 0.0000 0.0000 (256496 PWs)   bands (ev):

   -20.9853 -18.4770 -17.1952 -16.1826 -15.9582 -15.6291 -15.0832 -14.7170
   -13.8355 -13.4977 -12.8313 -12.5122 -12.3532 -12.1217 -12.0737 -11.9285
   -11.4371 -10.7992 -10.4188 -10.0218  -9.7493  -9.4648  -9.0263  -8.6842
    -8.4822  -7.9185  -7.6313  -6.8126  -6.3027  -6.1270  -5.8635  -5.8406
    -5.8081  -5.8033  -5.6720  -5.4279  -5.3552  -5.3072  -5.3007  -5.2959
    -5.2464  -5.2003  -5.0935  -4.9817  -4.8745  -4.8111  -4.7214  -4.5805
    -4.5202  -4.4562  -4.4144  -4.4071  -4.3064  -4.2382  -4.1684  -4.1399
    -4.0855  -4.0333  -3.9253  -3.9226  -3.9149  -3.9009  -3.8822  -3.7970
    -3.7186  -3.5229  -3.4181  -3.3087  -3.2279  -3.1569  -3.1434  -3.1270
    -3.0834  -3.0481  -3.0008  -2.9185  -2.8538  -2.8099  -2.7951  -2.7590
    -2.7494  -2.6752  -2.3835  -2.3809  -2.3790  -2.3771  -2.3743  -2.3738
    -2.3417  -2.3154  -2.2831  -2.2629  -2.2374  -2.1592  -2.1510  -2.1494
    -2.1479  -2.1225  -2.1028  -2.1020  -2.1006  -2.0977  -2.0467  -1.9977
    -1.9944  -1.9876  -1.9874  -1.9493  -1.9206  -1.9184  -1.9133  -1.9093
    -1.8983  -1.8730  -1.8669  -1.8610  -1.8544  -1.8524  -1.8490  -1.8470
    -1.8419  -1.8398  -1.8182  -1.7967  -1.7945  -1.7922  -1.7866  -1.7704
    -1.7689  -1.7642  -1.7635  -1.7426  -1.7136  -1.7039  -1.7026  -1.6861
    -1.6832  -1.6801  -1.6783  -1.6587  -1.6528  -1.6476  -1.6359  -1.6325
    -1.6324  -1.6109  -1.6084  -1.6047  -1.6026  -1.5854  -1.5828  -1.5762
    -1.5690  -1.5555  -1.5529  -1.5303  -1.5152  -1.5065  -1.4885  -1.4823
    -1.4791  -1.4778  -1.4696  -1.4534  -1.4487  -1.4433  -1.4371  -1.4339
    -1.4284  -1.4266  -1.4226  -1.4163  -1.4094  -1.4055  -1.3977  -1.3781
    -1.3486  -1.3399  -1.3385  -1.3359  -1.3270  -1.2949  -1.2916  -1.2174
    -1.2104  -1.2091  -1.2056  -1.1851  -1.1776  -1.1741  -1.1727  -1.1678
    -1.1648  -1.1592  -1.1432  -1.1350  -1.1314  -1.1270  -1.1146  -1.1089
    -1.1063  -1.1043  -1.0996  -1.0783  -1.0753  -1.0625  -1.0581  -1.0333
    -0.9780  -0.9722  -0.9588  -0.9573  -0.9531  -0.9422  -0.9346  -0.9273
    -0.9247  -0.9126  -0.9089  -0.9048  -0.8962  -0.8799  -0.8689  -0.8681
    -0.8660  -0.8650  -0.8521  -0.8345  -0.8329  -0.8313  -0.8272  -0.8191
    -0.8140  -0.8031  -0.7993  -0.7955  -0.7913  -0.7852  -0.7840  -0.7837
    -0.7771  -0.7695  -0.7510  -0.7477  -0.7475  -0.7463  -0.7208  -0.7099
    -0.7037  -0.7008  -0.6434  -0.6398  -0.6359  -0.6338  -0.6308  -0.6294
    -0.6271  -0.6226  -0.6042  -0.5969  -0.5882  -0.5839  -0.5784  -0.5591
    -0.5441  -0.5307  -0.5301  -0.5273  -0.5255  -0.5228  -0.5213  -0.5187
    -0.5170  -0.5160  -0.5137  -0.5128  -0.4943  -0.4775  -0.4660  -0.4593
    -0.4531  -0.4430  -0.4339  -0.4328  -0.4321  -0.4283  -0.4283  -0.4238
    -0.4203  -0.4195  -0.4147  -0.4116  -0.4079  -0.4051  -0.4024  -0.3997
    -0.3956  -0.3852  -0.3832  -0.3819  -0.3782  -0.3777  -0.3761  -0.3750
    -0.3739  -0.3721  -0.3681  -0.3675  -0.3618  -0.3546  -0.3478  -0.3458
    -0.3450  -0.3428  -0.3405  -0.3360  -0.3268  -0.3186  -0.3104  -0.2867
    -0.2681  -0.2296  -0.2243  -0.2183  -0.2136  -0.1898  -0.1849  -0.1829
    -0.1810  -0.1774  -0.1724  -0.1697  -0.1682  -0.1657  -0.1638  -0.1607
    -0.1581  -0.1557  -0.1450  -0.1440  -0.1429  -0.1397  -0.1377  -0.1325
    -0.1275  -0.1258  -0.1239  -0.1220  -0.1128  -0.1079  -0.1025  -0.0997
    -0.0986  -0.0924  -0.0912  -0.0762  -0.0391  -0.0306  -0.0200  -0.0089
    -0.0087  -0.0062   0.0079   0.0111   0.0151   0.0171   0.0227   0.0259
     0.0268   0.0284   0.0309   0.0316   0.0352   0.0381   0.0399   0.0448
     0.0458   0.0480   0.0494   0.0553   0.0643   0.0665   0.0790   0.0822
     0.0881   0.0946   0.0982   0.1035   0.1190   0.1249   0.1285   0.1320
     0.1337   0.1357   0.1363   0.1412   0.1457   0.1488   0.1507   0.1524
     0.1628   0.1650   0.1654   0.1692   0.1770   0.1818   0.1917   0.2034
     0.2081   0.2083   0.2098   0.2124   0.2151   0.2246   0.2339   0.2411
     0.2511   0.2526   0.2653   0.2664   0.2865   0.2960   0.3028   0.3091
     0.3223   0.3306   0.3367   0.3397   0.3414   0.3430   0.3432   0.3460
     0.3485   0.3509   0.3559   0.3581   0.3681   0.3704   0.3819   0.3836
     0.3866   0.3899   0.3928   0.4011   0.4035   0.4039   0.4077   0.4104
     0.4172   0.4246   0.4435   0.4465   0.4558   0.4567   0.4732   0.4948
     0.5101   0.5105   0.5132   0.5177   0.5226   0.5268   0.5381   0.5407
     0.5449   0.5520   0.5561   0.5705   0.5745   0.5792   0.5808   0.5875
     0.5979   0.6046   0.6076   0.6114   0.6139   0.6156   0.6179   0.6210
     0.6221   0.6255   0.6285   0.6295   0.6349   0.6376   0.6380   0.6381
     0.6424   0.6431   0.6468   0.6520   0.6715   0.6772   0.6776   0.6786
     0.6873   0.6926   0.6960   0.7010   0.7100   0.7127   0.7145   0.7192
     0.7263   0.7318   0.7384   0.7407   0.7421   0.7435   0.7449   0.7462
     0.7494   0.7506   0.7577   0.7645   0.7679   0.7846   0.7920   0.7964
     0.8001   0.8040   0.8080   0.8150   0.8157   0.8181   0.8185   0.8199
     0.8232   0.8256   0.8274   0.8285   0.8296   0.8325   0.8337   0.8348
     0.8360   0.8376   0.8382   0.8397   0.8422   0.8442   0.8462   0.8551
     0.8572   0.8648   0.8668   0.8739   0.8798   0.8822   0.8887   0.8951
     0.9010   0.9044   0.9138   0.9159   0.9161   0.9171   0.9213   0.9301
     0.9316   0.9343   0.9396   0.9423   0.9469   0.9494   0.9514   0.9635
     0.9677   0.9703   0.9716   0.9727   0.9757   0.9770   0.9811   0.9859
     0.9916   0.9961   1.0040   1.0111   1.0144   1.0150   1.0157   1.0162
     1.0187   1.0247   1.0327   1.0477   1.0701   1.0746   1.0835   1.0952
     1.1080   1.1102   1.1121   1.1144   1.5236   1.5287   1.5353   1.5846
     1.6146   1.6923   1.7656   1.7755   1.7847   1.7866   1.7972   1.8195
     1.8943   2.0845   2.0915   2.1583   2.2425   2.3211   2.3276   2.3341
     2.3453   2.3750   2.6807   2.6835   2.6998   2.7110   2.9747   3.0085
     3.1364   3.2006   3.2318   3.3049   3.3902   3.4079   3.4280   3.4459
     3.4874   3.5657   3.5727   3.6103   3.6316   3.7715   3.8111   4.0062
     4.1495   4.2164   4.2477   4.2916   4.3165   4.3288   4.3362   4.4038
     4.4356   4.4720   4.4929   4.5082   4.5187   4.5306   4.5448   4.5692
     4.5915   4.6157   4.6642   4.6969   4.8085   4.8482   4.8895   4.9940
     5.0090   5.0723   5.1270   5.1618   5.2099   5.4621   5.4798   5.4939
     5.5092   5.5602   5.6272   5.6345   5.6951   5.8136   5.8780   6.0562
     6.1196   6.1706   6.2529   6.5570   6.6011   6.6412   6.6787   6.7238
     6.7378   7.0199   7.0458   7.0900   7.1054   7.1236   7.1270   7.1502
     7.1905   7.2284   7.3072   7.3222   7.3521   7.3824   7.4249   7.4283
     7.4745   7.4884   7.5082   7.5647   7.5959   7.6068   7.6975   7.7503
     7.8252   7.9487   8.0116   8.0461   8.1470   8.2610   8.2871   8.3324
     8.3553   8.4252   8.5213   8.5288   8.5376   8.5474   8.5841   8.6071
     8.6533   8.7602   8.7769   8.8506   8.8918   8.9559   8.9769   9.0116
     9.0249   9.0433   9.0570   9.0687   9.1202   9.1642   9.1867   9.2905
     9.3606

          k =-0.5000-0.2165 0.0000 (256328 PWs)   bands (ev):

   -20.9853 -18.4770 -17.1952 -16.1827 -15.9582 -15.6291 -15.0833 -14.7170
   -13.8353 -13.4976 -12.8313 -12.5122 -12.3535 -12.1217 -12.0736 -11.9285
   -11.4370 -10.7991 -10.4178 -10.0218  -9.7494  -9.4649  -9.0286  -8.6845
    -8.4825  -7.9155  -7.6302  -6.8117  -6.3025  -6.1334  -5.8588  -5.8458
    -5.7102  -5.7013  -5.6807  -5.6630  -5.6251  -5.4263  -5.2633  -5.2371
    -5.0992  -4.9825  -4.8495  -4.8150  -4.7640  -4.7130  -4.6989  -4.6885
    -4.6648  -4.6232  -4.5271  -4.5137  -4.4649  -4.3494  -4.2642  -4.2421
    -4.1220  -4.0992  -4.0478  -3.8739  -3.8002  -3.7647  -3.7244  -3.6840
    -3.6103  -3.5081  -3.3348  -3.2355  -3.1256  -3.0832  -3.0781  -3.0740
    -3.0593  -3.0488  -3.0343  -3.0160  -2.9462  -2.9351  -2.8449  -2.6993
    -2.5947  -2.5823  -2.5707  -2.5644  -2.5401  -2.5160  -2.4826  -2.4499
    -2.3110  -2.3063  -2.2994  -2.2911  -2.2842  -2.1918  -2.1439  -2.1122
    -2.0846  -2.0768  -2.0091  -1.9979  -1.9961  -1.9913  -1.9887  -1.9723
    -1.9674  -1.9504  -1.9401  -1.9358  -1.9277  -1.9273  -1.8946  -1.8935
    -1.8906  -1.8861  -1.8801  -1.8791  -1.8786  -1.8698  -1.8652  -1.8595
    -1.8576  -1.8575  -1.8550  -1.8140  -1.8112  -1.8044  -1.8019  -1.7781
    -1.7624  -1.7381  -1.7312  -1.7304  -1.6930  -1.6918  -1.6891  -1.6864
    -1.6803  -1.6772  -1.6732  -1.6659  -1.6517  -1.6369  -1.6317  -1.6223
    -1.6197  -1.6185  -1.6177  -1.6166  -1.6119  -1.6108  -1.6080  -1.5656
    -1.5631  -1.5595  -1.5558  -1.5512  -1.5486  -1.5467  -1.5435  -1.5397
    -1.5383  -1.5341  -1.5324  -1.5286  -1.5213  -1.4962  -1.4300  -1.3912
    -1.3877  -1.3772  -1.3666  -1.3545  -1.3520  -1.3513  -1.3469  -1.3024
    -1.2857  -1.2755  -1.2732  -1.2675  -1.2648  -1.2628  -1.2605  -1.2581
    -1.2551  -1.2513  -1.2356  -1.2056  -1.2026  -1.2012  -1.1959  -1.1932
    -1.1876  -1.1795  -1.1789  -1.1739  -1.1684  -1.1603  -1.1481  -1.1232
    -1.0924  -1.0785  -1.0750  -1.0643  -1.0499  -1.0392  -1.0376  -1.0073
    -1.0003  -0.9977  -0.9900  -0.9716  -0.9520  -0.9477  -0.9459  -0.9360
    -0.9329  -0.9320  -0.9242  -0.9217  -0.9041  -0.8970  -0.8948  -0.8927
    -0.8898  -0.8882  -0.8871  -0.8574  -0.8375  -0.8337  -0.8264  -0.7986
    -0.7817  -0.7796  -0.7693  -0.7676  -0.7580  -0.7564  -0.7534  -0.7516
    -0.7418  -0.7392  -0.7367  -0.7327  -0.6882  -0.6770  -0.6666  -0.6603
    -0.6561  -0.6540  -0.6508  -0.6499  -0.6482  -0.6465  -0.6448  -0.6356
    -0.6128  -0.6120  -0.6107  -0.6093  -0.6022  -0.6016  -0.5986  -0.5976
    -0.5948  -0.5927  -0.5902  -0.5897  -0.5784  -0.5372  -0.5316  -0.5279
    -0.5218  -0.5123  -0.5099  -0.5005  -0.4903  -0.4650  -0.4610  -0.4518
    -0.4421  -0.4393  -0.4360  -0.4219  -0.4210  -0.4196  -0.4186  -0.4161
    -0.4104  -0.4090  -0.4082  -0.4071  -0.4037  -0.4006  -0.3984  -0.3956
    -0.3944  -0.3915  -0.3912  -0.3874  -0.3845  -0.3824  -0.3793  -0.3739
    -0.3722  -0.3661  -0.3626  -0.3524  -0.3509  -0.3503  -0.3494  -0.3407
    -0.3373  -0.3342  -0.3320  -0.3272  -0.3250  -0.2928  -0.2895  -0.2852
    -0.2839  -0.2766  -0.2586  -0.2561  -0.2527  -0.2509  -0.2361  -0.1859
    -0.1808  -0.1791  -0.1755  -0.1732  -0.1697  -0.1603  -0.1595  -0.1557
    -0.1520  -0.1495  -0.1460  -0.1403  -0.1382  -0.1343  -0.1323  -0.1278
    -0.1259  -0.1235  -0.1228  -0.1202  -0.1157  -0.1110  -0.0771  -0.0715
    -0.0641  -0.0540  -0.0484  -0.0466  -0.0433  -0.0329  -0.0299  -0.0289
    -0.0286  -0.0224  -0.0119  -0.0058  -0.0021  -0.0016   0.0032   0.0057
     0.0090   0.0119   0.0206   0.0332   0.0357   0.0429   0.0457   0.0503
     0.0519   0.0553   0.0620   0.0635   0.0645   0.0669   0.0705   0.0721
     0.0754   0.0779   0.0787   0.0828   0.0867   0.0948   0.0976   0.1043
     0.1149   0.1167   0.1349   0.1430   0.1462   0.1526   0.1593   0.1660
     0.1740   0.1792   0.1824   0.1858   0.1865   0.1868   0.1925   0.1953
     0.2081   0.2164   0.2214   0.2254   0.2287   0.2290   0.2295   0.2310
     0.2331   0.2354   0.2528   0.2648   0.2775   0.2805   0.2818   0.2873
     0.2941   0.3095   0.3130   0.3145   0.3166   0.3269   0.3437   0.3442
     0.3499   0.3545   0.3701   0.3777   0.3821   0.3857   0.4210   0.4240
     0.4243   0.4268   0.4315   0.4437   0.4503   0.4538   0.4593   0.4649
     0.4759   0.4882   0.4950   0.4982   0.5031   0.5049   0.5145   0.5177
     0.5216   0.5324   0.5361   0.5380   0.5413   0.5427   0.5438   0.5454
     0.5459   0.5466   0.5481   0.5503   0.5512   0.5536   0.5582   0.5624
     0.5664   0.5687   0.5728   0.5777   0.5808   0.5882   0.5916   0.5979
     0.5994   0.6044   0.6107   0.6131   0.6171   0.6227   0.6254   0.6288
     0.6326   0.6375   0.6422   0.6451   0.6477   0.6539   0.6719   0.6775
     0.6796   0.6862   0.6892   0.6905   0.6937   0.6948   0.7051   0.7147
     0.7167   0.7227   0.7231   0.7257   0.7319   0.7481   0.7501   0.7586
     0.7609   0.7647   0.7665   0.7684   0.7722   0.7768   0.7801   0.7834
     0.7843   0.7863   0.7872   0.7879   0.7908   0.7949   0.8166   0.8285
     0.8352   0.8381   0.8409   0.8452   0.8455   0.8499   0.8518   0.8540
     0.8550   0.8565   0.8590   0.8657   0.8674   0.8705   0.8774   0.8783
     0.8820   0.8850   0.8867   0.8901   0.8910   0.8919   0.8943   0.8973
     0.8986   0.8993   0.9021   0.9044   0.9069   0.9107   0.9127   0.9192
     0.9236   0.9247   0.9418   0.9511   0.9550   0.9560   0.9606   0.9629
     0.9681   0.9702   0.9778   0.9799   0.9809   0.9845   0.9878   0.9975
     1.0056   1.0096   1.0241   1.0313   1.0443   1.0672   1.0705   1.0728
     1.0737   1.0763   1.0945   1.0979   1.0992   1.1066   1.1123   1.1151
     1.1161   1.1178   1.1210   1.1339   1.1679   1.2008   1.3299   1.3387
     1.3419   1.3549   1.6940   1.8187   1.8686   1.8910   1.9446   1.9969
     2.0557   2.0658   2.1074   2.2643   2.2778   2.3081   2.3214   2.3573
     2.5556   2.6051   2.6509   2.7279   2.9439   2.9471   2.9537   2.9576
     3.1035   3.1450   3.1692   3.1948   3.3649   3.4301   3.4312   3.4364
     3.4569   3.6830   3.6961   3.7279   3.7360   3.7525   3.8305   3.9152
     3.9259   3.9627   4.0263   4.0559   4.1056   4.1311   4.1805   4.2066
     4.2157   4.2633   4.4274   4.5389   4.6067   4.6511   4.6605   4.6620
     4.6872   4.7282   4.7394   4.7976   4.8147   4.8525   4.8734   4.8913
     4.9916   5.1039   5.1775   5.2258   5.2362   5.2443   5.2632   5.4170
     5.4518   5.5409   5.5676   6.0591   6.1596   6.2977   6.3197   6.3251
     6.3771   6.4716   6.5578   6.5635   6.6082   6.6491   6.6661   6.6842
     6.7171   6.7354   6.7656   6.8468   6.8668   6.8715   6.8755   6.8779
     6.9600   6.9979   7.1213   7.1472   7.2416   7.3832   7.4490   7.5025
     7.5614   7.6139   7.6692   7.7239   7.7478   7.7618   7.7786   7.9511
     7.9771   8.1001   8.3313   8.3411   8.3449   8.3650   8.3891   8.3914
     8.4082   8.4385   8.4595   8.4688   8.4736   8.4825   8.5151   8.5537
     8.6183   8.6553   8.6671   8.6691   8.6868   8.7022   8.8104   8.8540
     8.8958   8.9350   8.9930   9.1109   9.1328   9.1464   9.2469   9.3187
     9.3798

     the Fermi energy is     2.8237 ev

!    total energy              =  -12583.74961860 Ry
     Harris-Foulkes estimate   =  -12583.74961857 Ry
     estimated scf accuracy    <          4.8E-09 Ry

     The total energy is the sum of the following terms:

     one-electron contribution = -110478.00030152 Ry
     hartree contribution      =   56561.54479456 Ry
     xc contribution           =   -4405.86619362 Ry
     ewald contribution        =   45744.70978307 Ry
     Dispersion Correction     =      -2.82763875 Ry
     smearing contrib. (-TS)   =      -3.31006234 Ry

     convergence has been achieved in  67 iterations

     Writing output data file gc.save
 
     init_run     :    174.84s CPU    186.44s WALL (       1 calls)
     electrons    :  27911.05s CPU  29842.49s WALL (       1 calls)

     Called by init_run:
     wfcinit      :    171.87s CPU    182.67s WALL (       1 calls)
     potinit      :      0.98s CPU      1.06s WALL (       1 calls)

     Called by electrons:
     c_bands      :  24709.04s CPU  26391.38s WALL (      67 calls)
     sum_band     :   2550.77s CPU   2705.24s WALL (      67 calls)
     v_of_rho     :      8.49s CPU     10.72s WALL (      68 calls)
     newd         :     24.12s CPU     44.44s WALL (      68 calls)
     mix_rho      :    618.49s CPU    690.78s WALL (      67 calls)

     Called by c_bands:
     init_us_2    :    124.09s CPU    125.97s WALL (     810 calls)
     cegterg      :  24204.65s CPU  25867.17s WALL (     402 calls)

     Called by sum_band:
     sum_band:bec :      7.16s CPU      8.09s WALL (     402 calls)
     addusdens    :     35.20s CPU     53.48s WALL (      67 calls)

     Called by *egterg:
     h_psi        :  10255.04s CPU  11043.33s WALL (    2030 calls)
     s_psi        :   2507.96s CPU   2523.18s WALL (    2030 calls)
     g_psi        :     25.68s CPU     25.71s WALL (    1622 calls)
     cdiaghg      :   5375.13s CPU   5664.24s WALL (    2024 calls)

     Called by h_psi:
     add_vuspsi   :   2511.12s CPU   2528.52s WALL (    2030 calls)

     General routines
     calbec       :   3555.54s CPU   3582.76s WALL (    2432 calls)
     fft          :      7.58s CPU      8.79s WALL (     883 calls)
     ffts         :    266.95s CPU    319.88s WALL (   38320 calls)
     fftw         :   5278.33s CPU   6079.52s WALL ( 1694848 calls)
     davcio       :      0.18s CPU      8.21s WALL (       6 calls)
 
     Parallel routines
     fft_scatter  :   2851.90s CPU   3218.57s WALL ( 1734051 calls)
 
     PWSCF        :     7h48m CPU        8h20m WALL

 
   This run was terminated on:   2:45:27  17Sep2017            

=------------------------------------------------------------------------------=
   JOB DONE.
=------------------------------------------------------------------------------=
