
     Program PWSCF v.5.4.0 starts on 16Nov2016 at 17:57:34 

     This program is part of the open-source Quantum ESPRESSO suite
     for quantum simulation of materials; please cite
         "P. Giannozzi et al., J. Phys.:Condens. Matter 21 395502 (2009);
          URL http://www.quantum-espresso.org", 
     in publications or presentations arising from this work. More details at
     http://www.quantum-espresso.org/quote

     Parallel version (MPI & OpenMP), running on      16 processor cores
     Number of MPI processes:                16
     Threads/MPI process:                     1
     R & G space division:  proc/nbgrp/npool/nimage =      16
     Waiting for input...
     Reading input from standard input

     Current dimensions of program PWSCF are:
     Max number of different atomic species (ntypx) = 10
     Max number of k-points (npk) =  40000
     Max angular momentum in pseudopotentials (lmaxx) =  3

     -------------------------------------
     Parameters for Dispersion Correction:
     -------------------------------------
       atom      VdW radius       C_6     

        C          2.744         60.710

     Subspace diagonalization in iterative solution of the eigenvalue problem:
     one sub-group per band group will be used
     scalapack distributed-memory algorithm (size of sub-group:  2*  2 procs)

     Found symmetry operation: I + ( -0.5000 -0.5000  0.0000)
     This is a supercell, fractional translations are disabled
 
     Parallelization info
     --------------------
     sticks:   dense  smooth     PW     G-vecs:    dense   smooth      PW
     Min          33      33     17                 1795     1795     679
     Max          34      34     18                 1804     1804     688
     Sum         533     533    279                28785    28785   10949
 


     bravais-lattice index     =            0
     lattice parameter (alat)  =       4.6478  a.u.
     unit-cell volume          =     707.0582 (a.u.)^3
     number of atoms/cell      =            4
     number of atomic types    =            1
     number of electrons       =        16.00
     number of Kohn-Sham states=           12
     kinetic-energy cutoff     =      80.0000  Ry
     charge density cutoff     =     180.0000  Ry
     convergence threshold     =      1.0E-10
     mixing beta               =       0.7000
     number of iterations used =            8  plain     mixing
     Exchange-correlation      =  SLA  PW   PBX  PBC ( 1  4  3  4 0 0)
     nstep                     =           50


     celldm(1)=   4.647804  celldm(2)=   0.000000  celldm(3)=   0.000000
     celldm(4)=   0.000000  celldm(5)=   0.000000  celldm(6)=   0.000000

     crystal axes: (cart. coord. in units of alat)
               a(1) = (   1.000000   0.000000   0.000000 )  
               a(2) = (   0.000000   1.732051   0.000000 )  
               a(3) = (   0.000000   0.000000   4.065847 )  

     reciprocal axes: (cart. coord. in units 2 pi/alat)
               b(1) = (  1.000000  0.000000  0.000000 )  
               b(2) = (  0.000000  0.577350  0.000000 )  
               b(3) = (  0.000000  0.000000  0.245951 )  


     PseudoPot. # 1 for C  read from file:
     /home/549/hxw549/Short/pseudopotentials/C.pbe-mt_gipaw.UPF
     MD5 check sum: 5ac2f21f2c440b14befe521540822c15
     Pseudo is Norm-conserving, Zval =  4.0
     Generated by new atomic code, or converted to UPF format
     Using radial grid of 1073 points,  1 beta functions with: 
                l(1) =   0

     atomic species   valence    mass     pseudopotential
        C              4.00    12.01070     C ( 1.00)

      4 Sym. Ops. (no inversion) found



   Cartesian axes

     site n.     atom                  positions (alat units)
         1           C   tau(   1) = (   0.0000000   0.2886751   2.0329235  )
         2           C   tau(   2) = (   0.0000000   0.8660254   2.0329235  )
         3           C   tau(   3) = (   0.5000000   0.0000000   2.0329235  )
         4           C   tau(   4) = (   0.5000000   1.1547005   2.0329235  )

     number of k points=    25  gaussian smearing, width (Ry)=  0.1000
                       cart. coord. in units 2pi/alat
        k(    1) = (   0.0000000   0.0000000   0.0000000), wk =   0.0312500
        k(    2) = (   0.0000000   0.0721688   0.0000000), wk =   0.0625000
        k(    3) = (   0.0000000   0.1443376   0.0000000), wk =   0.0625000
        k(    4) = (   0.0000000   0.2165064   0.0000000), wk =   0.0625000
        k(    5) = (   0.0000000  -0.2886751   0.0000000), wk =   0.0312500
        k(    6) = (   0.1250000   0.0000000   0.0000000), wk =   0.0625000
        k(    7) = (   0.1250000   0.0721688   0.0000000), wk =   0.1250000
        k(    8) = (   0.1250000   0.1443376   0.0000000), wk =   0.1250000
        k(    9) = (   0.1250000   0.2165064   0.0000000), wk =   0.1250000
        k(   10) = (   0.1250000  -0.2886751   0.0000000), wk =   0.0625000
        k(   11) = (   0.2500000   0.0000000   0.0000000), wk =   0.0625000
        k(   12) = (   0.2500000   0.0721688   0.0000000), wk =   0.1250000
        k(   13) = (   0.2500000   0.1443376   0.0000000), wk =   0.1250000
        k(   14) = (   0.2500000   0.2165064   0.0000000), wk =   0.1250000
        k(   15) = (   0.2500000  -0.2886751   0.0000000), wk =   0.0625000
        k(   16) = (   0.3750000   0.0000000   0.0000000), wk =   0.0625000
        k(   17) = (   0.3750000   0.0721688   0.0000000), wk =   0.1250000
        k(   18) = (   0.3750000   0.1443376   0.0000000), wk =   0.1250000
        k(   19) = (   0.3750000   0.2165064   0.0000000), wk =   0.1250000
        k(   20) = (   0.3750000  -0.2886751   0.0000000), wk =   0.0625000
        k(   21) = (  -0.5000000   0.0000000   0.0000000), wk =   0.0312500
        k(   22) = (  -0.5000000   0.0721688   0.0000000), wk =   0.0625000
        k(   23) = (  -0.5000000   0.1443376   0.0000000), wk =   0.0625000
        k(   24) = (  -0.5000000   0.2165064   0.0000000), wk =   0.0625000
        k(   25) = (  -0.5000000  -0.2886751   0.0000000), wk =   0.0312500

     Dense  grid:    28785 G-vectors     FFT dimensions: (  20,  36,  81)

     Largest allocated arrays     est. size (Mb)     dimensions
        Kohn-Sham Wavefunctions         0.10 Mb     (     549,   12)
        NL pseudopotentials             0.03 Mb     (     549,    4)
        Each V/rho on FFT grid          0.07 Mb     (    4320)
        Each G-vector array             0.01 Mb     (    1797)
        G-vector shells                 0.01 Mb     (     805)
     Largest temporary arrays     est. size (Mb)     dimensions
        Auxiliary wavefunctions         0.40 Mb     (     549,   48)
        Each subspace H/S matrix        0.01 Mb     (      24,   24)
        Each <psi_i|beta_j> matrix      0.00 Mb     (       4,   12)
        Arrays for rho mixing           0.53 Mb     (    4320,    8)

     Initial potential from superposition of free atoms
     Check: negative starting charge=   -0.000159

     starting charge   13.99999, renormalised to   16.00000

     negative rho (up, down):  1.819E-04 0.000E+00
     Starting wfc are   32 randomized atomic wfcs

     total cpu time spent up to now is        1.6 secs

     Self-consistent Calculation

     iteration #  1     ecut=    80.00 Ry     beta=0.70
     Davidson diagonalization with overlap
     ethr =  1.00E-04,  avg # of iterations =  8.5

     negative rho (up, down):  5.524E-05 0.000E+00

     total cpu time spent up to now is        3.1 secs

     total energy              =     -45.63427450 Ry
     Harris-Foulkes estimate   =     -45.66648251 Ry
     estimated scf accuracy    <       0.09787230 Ry

     iteration #  2     ecut=    80.00 Ry     beta=0.70
     Davidson diagonalization with overlap
     ethr =  6.12E-04,  avg # of iterations =  2.1

     negative rho (up, down):  1.380E-05 0.000E+00

     total cpu time spent up to now is        3.6 secs

     total energy              =     -45.64377079 Ry
     Harris-Foulkes estimate   =     -45.64339989 Ry
     estimated scf accuracy    <       0.00432890 Ry

     iteration #  3     ecut=    80.00 Ry     beta=0.70
     Davidson diagonalization with overlap
     ethr =  2.71E-05,  avg # of iterations =  2.0

     negative rho (up, down):  9.829E-06 0.000E+00

     total cpu time spent up to now is        4.1 secs

     total energy              =     -45.64402220 Ry
     Harris-Foulkes estimate   =     -45.64397659 Ry
     estimated scf accuracy    <       0.00017840 Ry

     iteration #  4     ecut=    80.00 Ry     beta=0.70
     Davidson diagonalization with overlap
     ethr =  1.12E-06,  avg # of iterations =  3.8

     negative rho (up, down):  1.073E-05 0.000E+00

     total cpu time spent up to now is        4.8 secs

     total energy              =     -45.64404388 Ry
     Harris-Foulkes estimate   =     -45.64404427 Ry
     estimated scf accuracy    <       0.00000197 Ry

     iteration #  5     ecut=    80.00 Ry     beta=0.70
     Davidson diagonalization with overlap
     ethr =  1.23E-08,  avg # of iterations =  2.5

     negative rho (up, down):  1.074E-05 0.000E+00

     total cpu time spent up to now is        5.4 secs

     total energy              =     -45.64404493 Ry
     Harris-Foulkes estimate   =     -45.64404509 Ry
     estimated scf accuracy    <       0.00000031 Ry

     iteration #  6     ecut=    80.00 Ry     beta=0.70
     Davidson diagonalization with overlap
     ethr =  1.93E-09,  avg # of iterations =  2.0

     negative rho (up, down):  1.075E-05 0.000E+00

     total cpu time spent up to now is        5.9 secs

     total energy              =     -45.64404497 Ry
     Harris-Foulkes estimate   =     -45.64404498 Ry
     estimated scf accuracy    <       0.00000002 Ry

     iteration #  7     ecut=    80.00 Ry     beta=0.70
     Davidson diagonalization with overlap
     ethr =  1.27E-10,  avg # of iterations =  2.0

     negative rho (up, down):  1.075E-05 0.000E+00

     total cpu time spent up to now is        6.4 secs

     total energy              =     -45.64404497 Ry
     Harris-Foulkes estimate   =     -45.64404497 Ry
     estimated scf accuracy    <          9.2E-10 Ry

     iteration #  8     ecut=    80.00 Ry     beta=0.70
     Davidson diagonalization with overlap
     ethr =  5.72E-12,  avg # of iterations =  2.1

     negative rho (up, down):  1.076E-05 0.000E+00

     total cpu time spent up to now is        6.8 secs

     total energy              =     -45.64404497 Ry
     Harris-Foulkes estimate   =     -45.64404497 Ry
     estimated scf accuracy    <          2.2E-10 Ry

     iteration #  9     ecut=    80.00 Ry     beta=0.70
     Davidson diagonalization with overlap
     ethr =  1.41E-12,  avg # of iterations =  2.0

     negative rho (up, down):  1.076E-05 0.000E+00

     total cpu time spent up to now is        7.3 secs

     End of self-consistent calculation

          k = 0.0000 0.0000 0.0000 (  8551 PWs)   bands (ev):

   -19.9555 -14.6658 -13.6717  -8.0855  -6.8973  -3.5044  -3.5042  -2.8058
     1.2606   2.6700   4.2532   5.4715

          k = 0.0000 0.0722 0.0000 (  8575 PWs)   bands (ev):

   -19.8625 -15.5656 -12.6368  -7.9748  -6.8053  -3.8737  -3.7009  -3.3289
     1.9273   2.7963   4.3785   5.5958

          k = 0.0000 0.1443 0.0000 (  8583 PWs)   bands (ev):

   -19.5839 -16.6818 -11.1223  -7.6440  -6.5335  -4.8699  -4.3627  -4.2093
     3.1753   3.3781   4.7534   5.9688

          k = 0.0000 0.2165 0.0000 (  8559 PWs)   bands (ev):

   -19.1217 -17.6627  -9.5032  -7.0987  -6.2639  -6.0964  -5.4205  -4.8634
     3.8067   5.0782   5.3744   5.8193

          k = 0.0000-0.2887 0.0000 (  8546 PWs)   bands (ev):

   -18.4794 -18.4794  -7.8540  -7.8540  -6.3500  -6.3500  -5.5223  -5.5223
     4.6892   4.6892   6.1927   6.1927

          k = 0.1250 0.0000 0.0000 (  8555 PWs)   bands (ev):

   -19.6767 -14.4290 -13.4393  -7.9906  -7.7540  -4.5158  -4.0946  -2.4675
     1.1520   3.0490   4.6286   5.8447

          k = 0.1250 0.0722 0.0000 (  8566 PWs)   bands (ev):

   -19.5839 -15.3146 -12.4295  -7.8941  -7.6440  -4.8698  -4.2094  -3.0096
     1.8143   3.1753   4.7534   5.9688

          k = 0.1250 0.1443 0.0000 (  8566 PWs)   bands (ev):

   -19.3063 -16.4200 -10.9631  -7.6057  -7.3158  -5.6371  -4.7507  -4.0532
     3.2044   3.5544   5.1272   6.3428

          k = 0.1250 0.2165 0.0000 (  8561 PWs)   bands (ev):

   -18.8459 -17.3941  -9.4309  -7.1275  -6.7746  -6.6557  -5.6121  -5.1080
     4.1861   4.7902   5.7474   6.2002

          k = 0.1250-0.2887 0.0000 (  8530 PWs)   bands (ev):

   -18.2064 -18.2064  -7.9467  -7.9467  -6.4587  -6.4587  -6.0314  -6.0314
     5.0689   5.0689   6.3509   6.3509

          k = 0.2500 0.0000 0.0000 (  8555 PWs)   bands (ev):

   -18.8459 -13.7205 -12.8677 -10.1973  -6.7746  -6.6557  -5.6121  -1.4613
     0.5207   4.1861   5.7474   6.9675

          k = 0.2500 0.0722 0.0000 (  8543 PWs)   bands (ev):

   -18.7541 -14.5760 -11.9828 -10.0252  -7.0770  -6.6680  -5.4603  -2.1102
     1.2082   4.3117   5.8656   7.0849

          k = 0.2500 0.1443 0.0000 (  8546 PWs)   bands (ev):

   -18.4794 -15.6452 -10.9325  -9.4190  -7.8539  -6.3500  -5.5224  -3.1835
     2.3962   4.6892   6.1927   6.9135

          k = 0.2500 0.2165 0.0000 (  8552 PWs)   bands (ev):

   -18.0245 -16.5961 -10.1429  -8.6675  -8.3424  -6.1061  -5.8263  -4.2147
     3.6197   5.3192   5.8545   6.9090

          k = 0.2500-0.2887 0.0000 (  8548 PWs)   bands (ev):

   -17.3941 -17.3940  -9.4308  -9.4308  -7.1276  -7.1275  -5.1080  -5.1080
     4.7902   4.7902   6.2002   6.2002

          k = 0.3750 0.0000 0.0000 (  8549 PWs)   bands (ev):

   -17.4841 -13.5443 -12.5483 -10.8582  -8.9236  -7.5367  -5.2039  -1.0570
     0.1822   5.0404   6.0756   7.5695

          k = 0.3750 0.0722 0.0000 (  8542 PWs)   bands (ev):

   -17.3940 -13.7204 -12.8678 -10.1973  -9.4309  -7.1275  -5.1080  -1.4613
     0.5206   4.7902   6.2002   7.7140

          k = 0.3750 0.1443 0.0000 (  8507 PWs)   bands (ev):

   -17.1252 -14.4570 -12.8197 -10.2867  -9.0410  -6.6265  -4.8238  -2.2132
     1.1280   4.1656   6.5709   7.8279

          k = 0.3750 0.2165 0.0000 (  8527 PWs)   bands (ev):

   -16.6818 -15.3146 -12.4295 -11.1223  -7.8942  -6.5337  -4.3627  -3.0096
     1.8143   3.3781   7.1356   7.3955

          k = 0.3750-0.2887 0.0000 (  8522 PWs)   bands (ev):

   -16.0722 -16.0722 -11.8501 -11.8501  -6.9880  -6.9880  -3.7458  -3.7458
     2.5710   2.5710   7.6279   7.6279

          k =-0.5000 0.0000 0.0000 (  8546 PWs)   bands (ev):

   -15.6451 -15.6451 -10.9326 -10.9326  -9.4190  -9.4190  -3.1835  -3.1835
     2.3962   2.3962   8.6905   8.6905

          k =-0.5000 0.0722 0.0000 (  8542 PWs)   bands (ev):

   -15.5609 -15.5609 -11.5162 -11.5162  -8.8185  -8.8185  -3.1350  -3.1350
     2.2208   2.2208   8.8131   8.8131

          k =-0.5000 0.1443 0.0000 (  8510 PWs)   bands (ev):

   -15.3145 -15.3145 -12.4295 -12.4295  -7.8942  -7.8942  -3.0096  -3.0096
     1.8143   1.8143   8.6892   8.6892

          k =-0.5000 0.2165 0.0000 (  8502 PWs)   bands (ev):

   -14.9411 -14.9411 -13.2447 -13.2447  -7.1727  -7.1727  -2.8694  -2.8693
     1.4217   1.4217   7.5586   7.5586

          k =-0.5000-0.2887 0.0000 (  8452 PWs)   bands (ev):

   -14.6657 -14.6657 -13.6717 -13.6717  -6.8974  -6.8974  -2.8058  -2.8058
     1.2605   1.2605   7.1411   7.1411

     the Fermi energy is    -0.5064 ev

!    total energy              =     -45.64404497 Ry
     Harris-Foulkes estimate   =     -45.64404497 Ry
     estimated scf accuracy    <          3.3E-12 Ry

     The total energy is the sum of the following terms:

     one-electron contribution =    -182.44502405 Ry
     hartree contribution      =      94.73919230 Ry
     xc contribution           =     -14.04923690 Ry
     ewald contribution        =      56.14278971 Ry
     Dispersion Correction     =      -0.01617539 Ry
     smearing contrib. (-TS)   =      -0.01559064 Ry

     convergence has been achieved in   9 iterations

     Forces acting on atoms (Ry/au):

     atom    1 type  1   force =     0.00000000    0.00008340    0.00000000
     atom    2 type  1   force =     0.00000000   -0.00008341    0.00000000
     atom    3 type  1   force =     0.00000000   -0.00008369    0.00000000
     atom    4 type  1   force =     0.00000000    0.00008370    0.00000000

     Total force =     0.000167     Total SCF correction =     0.000002

     BFGS Geometry Optimization

     number of scf cycles    =   1
     number of bfgs steps    =   0

     energy   new            =     -45.6440449721 Ry

     new trust radius        =       0.0000837032 bohr
     new conv_thr            =            1.0E-10 Ry


ATOMIC_POSITIONS (crystal)
C        0.000000000   0.166677026   0.500000000
C        0.000000000   0.499989639   0.500000000
C        0.500000000  -0.000010396   0.500000000
C        0.500000000   0.666677065   0.500000000



     Writing output data file graphene.save
     Check: negative starting charge=   -0.000159
     NEW-OLD atomic charge density approx. for the potential
     Check: negative starting charge=   -0.000159

     negative rho (up, down):  1.075E-05 0.000E+00

     total cpu time spent up to now is        7.7 secs

     Self-consistent Calculation

     iteration #  1     ecut=    80.00 Ry     beta=0.70
     Davidson diagonalization with overlap
     ethr =  1.00E-06,  avg # of iterations =  1.0

     Threshold (ethr) on eigenvalues was too large:
     Diagonalizing with lowered threshold

     Davidson diagonalization with overlap
     ethr =  1.63E-11,  avg # of iterations =  3.7

     negative rho (up, down):  1.075E-05 0.000E+00

     total cpu time spent up to now is        8.8 secs

     total energy              =     -45.64404497 Ry
     Harris-Foulkes estimate   =     -45.64404497 Ry
     estimated scf accuracy    <          8.1E-09 Ry

     iteration #  2     ecut=    80.00 Ry     beta=0.70
     Davidson diagonalization with overlap
     ethr =  5.08E-11,  avg # of iterations =  2.0

     negative rho (up, down):  1.075E-05 0.000E+00

     total cpu time spent up to now is        9.3 secs

     End of self-consistent calculation

          k = 0.0000 0.0000 0.0000 (  8551 PWs)   bands (ev):

   -19.9555 -14.6655 -13.6724  -8.0855  -6.8966  -3.5057  -3.5028  -2.8052
     1.2595   2.6700   4.2532   5.4715

          k = 0.0000 0.0722 0.0000 (  8575 PWs)   bands (ev):

   -19.8625 -15.5655 -12.6373  -7.9748  -6.8047  -3.8750  -3.6997  -3.3285
     1.9265   2.7963   4.3785   5.5958

          k = 0.0000 0.1443 0.0000 (  8583 PWs)   bands (ev):

   -19.5839 -16.6818 -11.1227  -7.6440  -6.5329  -4.8710  -4.3624  -4.2081
     3.1753   3.3775   4.7534   5.9688

          k = 0.0000 0.2165 0.0000 (  8559 PWs)   bands (ev):

   -19.1218 -17.6627  -9.5038  -7.0987  -6.2647  -6.0957  -5.4204  -4.8624
     3.8067   5.0777   5.3744   5.8193

          k = 0.0000-0.2887 0.0000 (  8546 PWs)   bands (ev):

   -18.4794 -18.4794  -7.8546  -7.8546  -6.3499  -6.3499  -5.5215  -5.5215
     4.6892   4.6892   6.1927   6.1927

          k = 0.1250 0.0000 0.0000 (  8555 PWs)   bands (ev):

   -19.6767 -14.4286 -13.4401  -7.9900  -7.7540  -4.5146  -4.0958  -2.4669
     1.1510   3.0490   4.6286   5.8447

          k = 0.1250 0.0722 0.0000 (  8566 PWs)   bands (ev):

   -19.5839 -15.3146 -12.4299  -7.8935  -7.6441  -4.8693  -4.2099  -3.0092
     1.8136   3.1753   4.7534   5.9688

          k = 0.1250 0.1443 0.0000 (  8566 PWs)   bands (ev):

   -19.3063 -16.4200 -10.9635  -7.6051  -7.3158  -5.6371  -4.7507  -4.0530
     3.2038   3.5544   5.1272   6.3428

          k = 0.1250 0.2165 0.0000 (  8561 PWs)   bands (ev):

   -18.8459 -17.3941  -9.4314  -7.1268  -6.7746  -6.6562  -5.6116  -5.1079
     4.1861   4.7898   5.7474   6.2002

          k = 0.1250-0.2887 0.0000 (  8530 PWs)   bands (ev):

   -18.2064 -18.2064  -7.9473  -7.9473  -6.4580  -6.4580  -6.0314  -6.0314
     5.0689   5.0689   6.3507   6.3507

          k = 0.2500 0.0000 0.0000 (  8555 PWs)   bands (ev):

   -18.8459 -13.7201 -12.8685 -10.1968  -6.7747  -6.6547  -5.6132  -1.4607
     0.5198   4.1861   5.7474   6.9675

          k = 0.2500 0.0722 0.0000 (  8543 PWs)   bands (ev):

   -18.7541 -14.5759 -11.9832 -10.0247  -7.0764  -6.6680  -5.4609  -2.1099
     1.2077   4.3117   5.8655   7.0849

          k = 0.2500 0.1443 0.0000 (  8546 PWs)   bands (ev):

   -18.4794 -15.6452 -10.9328  -9.4187  -7.8536  -6.3500  -5.5229  -3.1834
     2.3960   4.6892   6.1926   6.9137

          k = 0.2500 0.2165 0.0000 (  8552 PWs)   bands (ev):

   -18.0245 -16.5962 -10.1430  -8.6673  -8.3423  -6.1063  -5.8263  -4.2146
     3.6195   5.3192   5.8545   6.9090

          k = 0.2500-0.2887 0.0000 (  8548 PWs)   bands (ev):

   -17.3941 -17.3941  -9.4307  -9.4307  -7.1277  -7.1277  -5.1080  -5.1080
     4.7902   4.7902   6.2002   6.2002

          k = 0.3750 0.0000 0.0000 (  8549 PWs)   bands (ev):

   -17.4840 -13.5445 -12.5478 -10.8585  -8.9229  -7.5375  -5.2040  -1.0574
     0.1828   5.0409   6.0756   7.5694

          k = 0.3750 0.0722 0.0000 (  8542 PWs)   bands (ev):

   -17.3940 -13.7206 -12.8674 -10.1976  -9.4304  -7.1281  -5.1081  -1.4616
     0.5210   4.7906   6.2002   7.7139

          k = 0.3750 0.1443 0.0000 (  8507 PWs)   bands (ev):

   -17.1252 -14.4570 -12.8194 -10.2864  -9.0413  -6.6269  -4.8240  -2.2134
     1.1283   4.1659   6.5709   7.8276

          k = 0.3750 0.2165 0.0000 (  8527 PWs)   bands (ev):

   -16.6817 -15.3146 -12.4293 -11.1220  -7.8944  -6.5340  -4.3628  -3.0097
     1.8146   3.3784   7.1355   7.3954

          k = 0.3750-0.2887 0.0000 (  8522 PWs)   bands (ev):

   -16.0722 -16.0722 -11.8499 -11.8499  -6.9883  -6.9883  -3.7459  -3.7459
     2.5713   2.5713   7.6279   7.6279

          k =-0.5000 0.0000 0.0000 (  8546 PWs)   bands (ev):

   -15.6451 -15.6451 -10.9320 -10.9320  -9.4197  -9.4197  -3.1837  -3.1837
     2.3967   2.3967   8.6905   8.6905

          k =-0.5000 0.0722 0.0000 (  8542 PWs)   bands (ev):

   -15.5609 -15.5609 -11.5159 -11.5159  -8.8190  -8.8190  -3.1353  -3.1353
     2.2213   2.2213   8.8130   8.8130

          k =-0.5000 0.1443 0.0000 (  8510 PWs)   bands (ev):

   -15.3145 -15.3145 -12.4293 -12.4293  -7.8945  -7.8945  -3.0098  -3.0098
     1.8148   1.8148   8.6889   8.6889

          k =-0.5000 0.2165 0.0000 (  8502 PWs)   bands (ev):

   -14.9412 -14.9412 -13.2445 -13.2445  -7.1730  -7.1730  -2.8697  -2.8696
     1.4222   1.4222   7.5585   7.5585

          k =-0.5000-0.2887 0.0000 (  8452 PWs)   bands (ev):

   -14.6659 -14.6659 -13.6714 -13.6714  -6.8977  -6.8977  -2.8061  -2.8061
     1.2610   1.2610   7.1410   7.1410

     the Fermi energy is    -0.5064 ev

!    total energy              =     -45.64404497 Ry
     Harris-Foulkes estimate   =     -45.64404497 Ry
     estimated scf accuracy    <          5.4E-11 Ry

     The total energy is the sum of the following terms:

     one-electron contribution =    -182.44502358 Ry
     hartree contribution      =      94.73919150 Ry
     xc contribution           =     -14.04923688 Ry
     ewald contribution        =      56.14278981 Ry
     Dispersion Correction     =      -0.01617539 Ry
     smearing contrib. (-TS)   =      -0.01559043 Ry

     convergence has been achieved in   2 iterations

     Forces acting on atoms (Ry/au):

     atom    1 type  1   force =     0.00000000   -0.00010201    0.00000000
     atom    2 type  1   force =     0.00000000    0.00010167    0.00000000
     atom    3 type  1   force =     0.00000000    0.00010161    0.00000000
     atom    4 type  1   force =     0.00000000   -0.00010127    0.00000000

     Total force =     0.000203     Total SCF correction =     0.000003

     number of scf cycles    =   2
     number of bfgs steps    =   1

     energy   old            =     -45.6440449721 Ry
     energy   new            =     -45.6440449695 Ry

     CASE: energy  _new > energy  _old

     new trust radius        =       0.0000382612 bohr

     trust_radius < trust_radius_min

     resetting bfgs history

     new conv_thr            =            1.0E-10 Ry


ATOMIC_POSITIONS (crystal)
C        0.000000000   0.166677026   0.500000000
C        0.000000000   0.499989639   0.500000000
C        0.500000000  -0.000010396   0.500000000
C        0.500000000   0.666677065   0.500000000



     Writing output data file graphene.save
     Check: negative starting charge=   -0.000159
     NEW-OLD atomic charge density approx. for the potential
     Check: negative starting charge=   -0.000159

     negative rho (up, down):  1.075E-05 0.000E+00

     total cpu time spent up to now is        9.6 secs

     Self-consistent Calculation

     iteration #  1     ecut=    80.00 Ry     beta=0.70
     Davidson diagonalization with overlap
     ethr =  1.00E-06,  avg # of iterations =  1.0

     Threshold (ethr) on eigenvalues was too large:
     Diagonalizing with lowered threshold

     Davidson diagonalization with overlap
     ethr =  4.26E-14,  avg # of iterations =  3.0

     negative rho (up, down):  1.075E-05 0.000E+00

     total cpu time spent up to now is       10.7 secs

     End of self-consistent calculation

          k = 0.0000 0.0000 0.0000 (  8551 PWs)   bands (ev):

   -19.9555 -14.6655 -13.6724  -8.0855  -6.8966  -3.5057  -3.5028  -2.8052
     1.2596   2.6700   4.2532   5.4715

          k = 0.0000 0.0722 0.0000 (  8575 PWs)   bands (ev):

   -19.8625 -15.5655 -12.6373  -7.9748  -6.8047  -3.8750  -3.6997  -3.3284
     1.9265   2.7963   4.3785   5.5958

          k = 0.0000 0.1443 0.0000 (  8583 PWs)   bands (ev):

   -19.5839 -16.6818 -11.1227  -7.6440  -6.5329  -4.8710  -4.3624  -4.2081
     3.1753   3.3775   4.7534   5.9688

          k = 0.0000 0.2165 0.0000 (  8559 PWs)   bands (ev):

   -19.1218 -17.6627  -9.5038  -7.0987  -6.2647  -6.0957  -5.4204  -4.8624
     3.8067   5.0777   5.3744   5.8193

          k = 0.0000-0.2887 0.0000 (  8546 PWs)   bands (ev):

   -18.4794 -18.4794  -7.8546  -7.8546  -6.3499  -6.3499  -5.5215  -5.5215
     4.6892   4.6892   6.1927   6.1927

          k = 0.1250 0.0000 0.0000 (  8555 PWs)   bands (ev):

   -19.6767 -14.4286 -13.4401  -7.9900  -7.7540  -4.5146  -4.0958  -2.4669
     1.1510   3.0490   4.6286   5.8447

          k = 0.1250 0.0722 0.0000 (  8566 PWs)   bands (ev):

   -19.5839 -15.3146 -12.4299  -7.8935  -7.6441  -4.8693  -4.2099  -3.0092
     1.8136   3.1753   4.7534   5.9688

          k = 0.1250 0.1443 0.0000 (  8566 PWs)   bands (ev):

   -19.3063 -16.4200 -10.9635  -7.6051  -7.3158  -5.6371  -4.7507  -4.0530
     3.2038   3.5544   5.1272   6.3428

          k = 0.1250 0.2165 0.0000 (  8561 PWs)   bands (ev):

   -18.8459 -17.3941  -9.4314  -7.1268  -6.7746  -6.6562  -5.6116  -5.1079
     4.1861   4.7898   5.7474   6.2002

          k = 0.1250-0.2887 0.0000 (  8530 PWs)   bands (ev):

   -18.2064 -18.2064  -7.9473  -7.9473  -6.4580  -6.4580  -6.0314  -6.0314
     5.0689   5.0689   6.3507   6.3507

          k = 0.2500 0.0000 0.0000 (  8555 PWs)   bands (ev):

   -18.8459 -13.7201 -12.8685 -10.1968  -6.7747  -6.6547  -5.6132  -1.4607
     0.5199   4.1861   5.7474   6.9675

          k = 0.2500 0.0722 0.0000 (  8543 PWs)   bands (ev):

   -18.7541 -14.5759 -11.9832 -10.0247  -7.0764  -6.6680  -5.4609  -2.1099
     1.2077   4.3117   5.8655   7.0849

          k = 0.2500 0.1443 0.0000 (  8546 PWs)   bands (ev):

   -18.4794 -15.6452 -10.9328  -9.4187  -7.8536  -6.3500  -5.5229  -3.1834
     2.3960   4.6892   6.1926   6.9137

          k = 0.2500 0.2165 0.0000 (  8552 PWs)   bands (ev):

   -18.0245 -16.5962 -10.1430  -8.6673  -8.3423  -6.1063  -5.8263  -4.2146
     3.6195   5.3192   5.8546   6.9090

          k = 0.2500-0.2887 0.0000 (  8548 PWs)   bands (ev):

   -17.3941 -17.3940  -9.4307  -9.4307  -7.1277  -7.1277  -5.1080  -5.1080
     4.7902   4.7902   6.2002   6.2002

          k = 0.3750 0.0000 0.0000 (  8549 PWs)   bands (ev):

   -17.4840 -13.5445 -12.5478 -10.8585  -8.9229  -7.5375  -5.2040  -1.0574
     0.1828   5.0409   6.0756   7.5694

          k = 0.3750 0.0722 0.0000 (  8542 PWs)   bands (ev):

   -17.3940 -13.7206 -12.8674 -10.1976  -9.4304  -7.1281  -5.1081  -1.4616
     0.5210   4.7906   6.2002   7.7139

          k = 0.3750 0.1443 0.0000 (  8507 PWs)   bands (ev):

   -17.1252 -14.4570 -12.8194 -10.2864  -9.0413  -6.6269  -4.8240  -2.2134
     1.1283   4.1659   6.5709   7.8276

          k = 0.3750 0.2165 0.0000 (  8527 PWs)   bands (ev):

   -16.6817 -15.3146 -12.4293 -11.1220  -7.8944  -6.5340  -4.3628  -3.0097
     1.8146   3.3784   7.1355   7.3954

          k = 0.3750-0.2887 0.0000 (  8522 PWs)   bands (ev):

   -16.0722 -16.0722 -11.8499 -11.8499  -6.9883  -6.9883  -3.7459  -3.7459
     2.5713   2.5713   7.6279   7.6279

          k =-0.5000 0.0000 0.0000 (  8546 PWs)   bands (ev):

   -15.6451 -15.6451 -10.9320 -10.9320  -9.4197  -9.4197  -3.1837  -3.1837
     2.3967   2.3968   8.6905   8.6905

          k =-0.5000 0.0722 0.0000 (  8542 PWs)   bands (ev):

   -15.5609 -15.5609 -11.5159 -11.5159  -8.8189  -8.8189  -3.1353  -3.1353
     2.2213   2.2213   8.8130   8.8130

          k =-0.5000 0.1443 0.0000 (  8510 PWs)   bands (ev):

   -15.3145 -15.3145 -12.4293 -12.4293  -7.8945  -7.8945  -3.0098  -3.0098
     1.8148   1.8148   8.6889   8.6889

          k =-0.5000 0.2165 0.0000 (  8502 PWs)   bands (ev):

   -14.9412 -14.9412 -13.2445 -13.2445  -7.1730  -7.1730  -2.8697  -2.8696
     1.4222   1.4222   7.5585   7.5585

          k =-0.5000-0.2887 0.0000 (  8452 PWs)   bands (ev):

   -14.6659 -14.6659 -13.6714 -13.6714  -6.8977  -6.8977  -2.8061  -2.8061
     1.2610   1.2610   7.1410   7.1410

     the Fermi energy is    -0.5064 ev

!    total energy              =     -45.64404497 Ry
     Harris-Foulkes estimate   =     -45.64404497 Ry
     estimated scf accuracy    <          1.3E-11 Ry

     The total energy is the sum of the following terms:

     one-electron contribution =    -182.44501978 Ry
     hartree contribution      =      94.73918703 Ry
     xc contribution           =     -14.04923620 Ry
     ewald contribution        =      56.14278981 Ry
     Dispersion Correction     =      -0.01617539 Ry
     smearing contrib. (-TS)   =      -0.01559043 Ry

     convergence has been achieved in   1 iterations

     Forces acting on atoms (Ry/au):

     atom    1 type  1   force =     0.00000000   -0.00009866    0.00000000
     atom    2 type  1   force =     0.00000000    0.00009951    0.00000000
     atom    3 type  1   force =     0.00000000    0.00010056    0.00000000
     atom    4 type  1   force =     0.00000000   -0.00010140    0.00000000

     Total force =     0.000200     Total SCF correction =     0.000007

     number of scf cycles    =   3
     number of bfgs steps    =   1

     energy   old            =     -45.6440449721 Ry
     energy   new            =     -45.6440449695 Ry

     CASE: energy  _new > energy  _old

     new trust radius        =       0.0000381974 bohr

     trust_radius < trust_radius_min

     resetting bfgs history

     Message from routine bfgs:
     history already reset at previous step: stopping
     new conv_thr            =            1.0E-10 Ry


ATOMIC_POSITIONS (crystal)
C        0.000000000   0.166677026   0.500000000
C        0.000000000   0.499989639   0.500000000
C        0.500000000  -0.000010396   0.500000000
C        0.500000000   0.666677065   0.500000000



     Writing output data file graphene.save
     Check: negative starting charge=   -0.000159
     NEW-OLD atomic charge density approx. for the potential
     Check: negative starting charge=   -0.000159

     negative rho (up, down):  1.075E-05 0.000E+00

     total cpu time spent up to now is       10.9 secs

     Self-consistent Calculation

     iteration #  1     ecut=    80.00 Ry     beta=0.70
     Davidson diagonalization with overlap
     ethr =  1.00E-06,  avg # of iterations =  1.4

     Threshold (ethr) on eigenvalues was too large:
     Diagonalizing with lowered threshold

     Davidson diagonalization with overlap
     ethr =  1.75E-13,  avg # of iterations =  2.1

     negative rho (up, down):  1.076E-05 0.000E+00

     total cpu time spent up to now is       11.8 secs

     End of self-consistent calculation

          k = 0.0000 0.0000 0.0000 (  8551 PWs)   bands (ev):

   -19.9555 -14.6655 -13.6724  -8.0855  -6.8966  -3.5057  -3.5028  -2.8052
     1.2595   2.6700   4.2532   5.4715

          k = 0.0000 0.0722 0.0000 (  8575 PWs)   bands (ev):

   -19.8625 -15.5655 -12.6373  -7.9748  -6.8047  -3.8750  -3.6997  -3.3285
     1.9265   2.7963   4.3785   5.5958

          k = 0.0000 0.1443 0.0000 (  8583 PWs)   bands (ev):

   -19.5839 -16.6818 -11.1227  -7.6440  -6.5329  -4.8710  -4.3624  -4.2081
     3.1753   3.3775   4.7534   5.9688

          k = 0.0000 0.2165 0.0000 (  8559 PWs)   bands (ev):

   -19.1218 -17.6627  -9.5038  -7.0987  -6.2647  -6.0957  -5.4204  -4.8624
     3.8067   5.0777   5.3744   5.8193

          k = 0.0000-0.2887 0.0000 (  8546 PWs)   bands (ev):

   -18.4795 -18.4794  -7.8546  -7.8546  -6.3499  -6.3499  -5.5215  -5.5215
     4.6892   4.6892   6.1927   6.1927

          k = 0.1250 0.0000 0.0000 (  8555 PWs)   bands (ev):

   -19.6767 -14.4286 -13.4401  -7.9900  -7.7540  -4.5146  -4.0958  -2.4669
     1.1510   3.0490   4.6286   5.8447

          k = 0.1250 0.0722 0.0000 (  8566 PWs)   bands (ev):

   -19.5839 -15.3146 -12.4299  -7.8935  -7.6441  -4.8693  -4.2099  -3.0092
     1.8136   3.1753   4.7534   5.9688

          k = 0.1250 0.1443 0.0000 (  8566 PWs)   bands (ev):

   -19.3063 -16.4200 -10.9635  -7.6051  -7.3158  -5.6371  -4.7507  -4.0530
     3.2038   3.5544   5.1272   6.3428

          k = 0.1250 0.2165 0.0000 (  8561 PWs)   bands (ev):

   -18.8459 -17.3941  -9.4314  -7.1268  -6.7746  -6.6562  -5.6116  -5.1079
     4.1861   4.7898   5.7474   6.2002

          k = 0.1250-0.2887 0.0000 (  8530 PWs)   bands (ev):

   -18.2064 -18.2064  -7.9473  -7.9473  -6.4580  -6.4580  -6.0314  -6.0314
     5.0689   5.0689   6.3507   6.3507

          k = 0.2500 0.0000 0.0000 (  8555 PWs)   bands (ev):

   -18.8459 -13.7201 -12.8685 -10.1968  -6.7747  -6.6547  -5.6132  -1.4607
     0.5198   4.1861   5.7474   6.9675

          k = 0.2500 0.0722 0.0000 (  8543 PWs)   bands (ev):

   -18.7541 -14.5760 -11.9832 -10.0247  -7.0764  -6.6680  -5.4609  -2.1099
     1.2077   4.3117   5.8655   7.0849

          k = 0.2500 0.1443 0.0000 (  8546 PWs)   bands (ev):

   -18.4794 -15.6452 -10.9328  -9.4187  -7.8536  -6.3500  -5.5229  -3.1834
     2.3960   4.6892   6.1926   6.9137

          k = 0.2500 0.2165 0.0000 (  8552 PWs)   bands (ev):

   -18.0245 -16.5962 -10.1430  -8.6673  -8.3423  -6.1063  -5.8263  -4.2146
     3.6195   5.3192   5.8545   6.9090

          k = 0.2500-0.2887 0.0000 (  8548 PWs)   bands (ev):

   -17.3941 -17.3940  -9.4307  -9.4307  -7.1277  -7.1277  -5.1080  -5.1080
     4.7902   4.7902   6.2002   6.2002

          k = 0.3750 0.0000 0.0000 (  8549 PWs)   bands (ev):

   -17.4840 -13.5445 -12.5478 -10.8585  -8.9229  -7.5375  -5.2040  -1.0574
     0.1828   5.0409   6.0756   7.5694

          k = 0.3750 0.0722 0.0000 (  8542 PWs)   bands (ev):

   -17.3940 -13.7206 -12.8674 -10.1976  -9.4304  -7.1281  -5.1081  -1.4616
     0.5210   4.7906   6.2002   7.7139

          k = 0.3750 0.1443 0.0000 (  8507 PWs)   bands (ev):

   -17.1252 -14.4570 -12.8194 -10.2864  -9.0413  -6.6269  -4.8240  -2.2134
     1.1283   4.1659   6.5709   7.8276

          k = 0.3750 0.2165 0.0000 (  8527 PWs)   bands (ev):

   -16.6817 -15.3146 -12.4293 -11.1221  -7.8944  -6.5340  -4.3628  -3.0097
     1.8146   3.3784   7.1355   7.3954

          k = 0.3750-0.2887 0.0000 (  8522 PWs)   bands (ev):

   -16.0723 -16.0722 -11.8499 -11.8499  -6.9883  -6.9883  -3.7459  -3.7459
     2.5713   2.5713   7.6279   7.6279

          k =-0.5000 0.0000 0.0000 (  8546 PWs)   bands (ev):

   -15.6451 -15.6451 -10.9320 -10.9320  -9.4197  -9.4197  -3.1838  -3.1837
     2.3967   2.3968   8.6905   8.6905

          k =-0.5000 0.0722 0.0000 (  8542 PWs)   bands (ev):

   -15.5609 -15.5609 -11.5159 -11.5159  -8.8190  -8.8189  -3.1353  -3.1353
     2.2213   2.2213   8.8130   8.8130

          k =-0.5000 0.1443 0.0000 (  8510 PWs)   bands (ev):

   -15.3145 -15.3145 -12.4293 -12.4293  -7.8945  -7.8945  -3.0099  -3.0098
     1.8148   1.8148   8.6889   8.6889

          k =-0.5000 0.2165 0.0000 (  8502 PWs)   bands (ev):

   -14.9412 -14.9412 -13.2445 -13.2445  -7.1730  -7.1730  -2.8697  -2.8696
     1.4222   1.4222   7.5585   7.5585

          k =-0.5000-0.2887 0.0000 (  8452 PWs)   bands (ev):

   -14.6659 -14.6659 -13.6714 -13.6714  -6.8977  -6.8977  -2.8061  -2.8061
     1.2610   1.2610   7.1410   7.1410

     the Fermi energy is    -0.5064 ev

!    total energy              =     -45.64404497 Ry
     Harris-Foulkes estimate   =     -45.64404497 Ry
     estimated scf accuracy    <          4.5E-11 Ry

     The total energy is the sum of the following terms:

     one-electron contribution =    -182.44502198 Ry
     hartree contribution      =      94.73918955 Ry
     xc contribution           =     -14.04923653 Ry
     ewald contribution        =      56.14278981 Ry
     Dispersion Correction     =      -0.01617539 Ry
     smearing contrib. (-TS)   =      -0.01559043 Ry

     convergence has been achieved in   1 iterations

     Forces acting on atoms (Ry/au):

     atom    1 type  1   force =     0.00000000   -0.00010134    0.00000000
     atom    2 type  1   force =     0.00000000    0.00009983    0.00000000
     atom    3 type  1   force =     0.00000000    0.00009925    0.00000000
     atom    4 type  1   force =     0.00000000   -0.00009774    0.00000000

     Total force =     0.000199     Total SCF correction =     0.000013

     bfgs converged in   4 scf cycles and   1 bfgs steps
     (criteria: energy <  1.0E-06, force <  1.0E-05)

     End of BFGS Geometry Optimization

     Final energy   =     -45.6440449695 Ry
Begin final coordinates

ATOMIC_POSITIONS (crystal)
C        0.000000000   0.166677026   0.500000000
C        0.000000000   0.499989639   0.500000000
C        0.500000000  -0.000010396   0.500000000
C        0.500000000   0.666677065   0.500000000
End final coordinates



     Writing output data file graphene.save
