
     Program PWSCF v.5.4.0 starts on 12Apr2017 at  0:16:23 

     This program is part of the open-source Quantum ESPRESSO suite
     for quantum simulation of materials; please cite
         "P. Giannozzi et al., J. Phys.:Condens. Matter 21 395502 (2009);
          URL http://www.quantum-espresso.org", 
     in publications or presentations arising from this work. More details at
     http://www.quantum-espresso.org/quote

     Parallel version (MPI & OpenMP), running on      56 processor cores
     Number of MPI processes:                56
     Threads/MPI process:                     1
     R & G space division:  proc/nbgrp/npool/nimage =      56
     Waiting for input...
     Reading input from standard input

     Current dimensions of program PWSCF are:
     Max number of different atomic species (ntypx) = 10
     Max number of k-points (npk) =  40000
     Max angular momentum in pseudopotentials (lmaxx) =  3

     -------------------------------------
     Parameters for Dispersion Correction:
     -------------------------------------
       atom      VdW radius       C_6     

        Cu         2.952        374.666
        C          2.744         60.710
        H          1.892          4.857

     Subspace diagonalization in iterative solution of the eigenvalue problem:
     one sub-group per band group will be used
     scalapack distributed-memory algorithm (size of sub-group:  5*  5 procs)

 
     Parallelization info
     --------------------
     sticks:   dense  smooth     PW     G-vecs:    dense   smooth      PW
     Min         204     204     54                36612    36612    4962
     Max         205     205     55                36617    36617    4968
     Sum       11433   11433   3039              2050409  2050409  278033
 
     Generating pointlists ...
     new r_m :   0.1385 (alat units)  1.9312 (a.u.) for type    1
     new r_m :   0.0559 (alat units)  0.7795 (a.u.) for type    2
     new r_m :   0.0559 (alat units)  0.7795 (a.u.) for type    3


     bravais-lattice index     =            0
     lattice parameter (alat)  =      13.9425  a.u.
     unit-cell volume          =   21209.0878 (a.u.)^3
     number of atoms/cell      =          150
     number of atomic types    =            3
     number of electrons       =      1294.00
     number of Kohn-Sham states=          776
     kinetic-energy cutoff     =      80.0000  Ry
     charge density cutoff     =     320.0000  Ry
     convergence threshold     =      1.0E-08
     mixing beta               =       0.7000
     number of iterations used =            8  local-TF  mixing
     Exchange-correlation      =  SLA  PW   PBE  PBE ( 1  4  3  4 0 0)
     nstep                     =           50


     celldm(1)=  13.942539  celldm(2)=   0.000000  celldm(3)=   0.000000
     celldm(4)=   0.000000  celldm(5)=   0.000000  celldm(6)=   0.000000

     crystal axes: (cart. coord. in units of alat)
               a(1) = (   1.000000   0.000000   0.000000 )  
               a(2) = (   0.000000   2.309401   0.000000 )  
               a(3) = (   0.000000   0.000000   3.388418 )  

     reciprocal axes: (cart. coord. in units 2 pi/alat)
               b(1) = (  1.000000  0.000000  0.000000 )  
               b(2) = (  0.000000  0.433013  0.000000 )  
               b(3) = (  0.000000  0.000000  0.295123 )  


     PseudoPot. # 1 for Cu read from file:
     /home/549/hxw549/Short/pseudopotentials/Cu.pbe-n-van_ak.UPF
     MD5 check sum: 601f7c30f7467666bec936e0661ce3e1
     Pseudo is Ultrasoft + core correction, Zval = 11.0
     Generated by new atomic code, or converted to UPF format
     Using radial grid of  867 points,  6 beta functions with: 
                l(1) =   0
                l(2) =   0
                l(3) =   1
                l(4) =   1
                l(5) =   2
                l(6) =   2
     Q(r) pseudized with  8 coefficients,  rinner =    1.400   1.400   1.400
                                                       1.400   1.400

     PseudoPot. # 2 for C  read from file:
     /home/549/hxw549/Short/pseudopotentials/C.pbe-mt_gipaw.UPF
     MD5 check sum: 5ac2f21f2c440b14befe521540822c15
     Pseudo is Norm-conserving, Zval =  4.0
     Generated by new atomic code, or converted to UPF format
     Using radial grid of 1073 points,  1 beta functions with: 
                l(1) =   0

     PseudoPot. # 3 for H  read from file:
     /home/549/hxw549/Short/pseudopotentials/H.pbe-van_ak.UPF
     MD5 check sum: 077eb6d537518a38cb46c6de387227b7
     Pseudo is Ultrasoft, Zval =  1.0
     Generated by new atomic code, or converted to UPF format
     Using radial grid of  615 points,  1 beta functions with: 
                l(1) =   0
     Q(r) pseudized with  8 coefficients,  rinner =    0.800

     atomic species   valence    mass     pseudopotential
        Cu            11.00    63.54600     Cu( 1.00)
        C              4.00    12.01070     C ( 1.00)
        H              1.00     1.00783     H ( 1.00)

     Starting magnetic structure 
     atomic species   magnetization
        Cu           0.000
        C            0.000
        H            1.000

     No symmetry found



   Cartesian axes

     site n.     atom                  positions (alat units)
         1           Cu  tau(   1) = (  -0.0000238   0.0002260   0.9981099  )
         2           Cu  tau(   2) = (   0.2499947   0.2311897   0.9981251  )
         3           Cu  tau(   3) = (   0.4999831   0.0002149   0.9981112  )
         4           Cu  tau(   4) = (   0.7499867   0.2311755   0.9980969  )
         5           Cu  tau(   5) = (   0.0000096   0.4619621   0.9979929  )
         6           Cu  tau(   6) = (   0.2499866   0.6927622   0.9976668  )
         7           Cu  tau(   7) = (   0.4999954   0.4619607   0.9978826  )
         8           Cu  tau(   8) = (   0.7500352   0.6927595   0.9976649  )
         9           Cu  tau(   9) = (   0.0000207   0.9236739   0.9975506  )
        10           Cu  tau(  10) = (   0.2500191   1.1545746   0.9977166  )
        11           Cu  tau(  11) = (   0.5000073   0.9236479   0.9975325  )
        12           Cu  tau(  12) = (   0.7500006   1.1545685   0.9977093  )
        13           Cu  tau(  13) = (  -0.0000077   1.3853811   0.9980180  )
        14           Cu  tau(  14) = (   0.2499983   1.6161561   0.9982689  )
        15           Cu  tau(  15) = (   0.5000058   1.3853977   0.9980617  )
        16           Cu  tau(  16) = (   0.7499748   1.6162250   0.9982107  )
        17           Cu  tau(  17) = (   0.0000111   1.8471800   0.9982106  )
        18           Cu  tau(  18) = (   0.2499546   2.0784395   0.9981263  )
        19           Cu  tau(  19) = (   0.4999426   1.8471932   0.9981807  )
        20           Cu  tau(  20) = (   0.7499939   2.0783919   0.9980742  )
        21           Cu  tau(  21) = (   0.0000246   0.2312923   1.2465770  )
        22           Cu  tau(  22) = (   0.2500152   0.0001959   1.2463274  )
        23           Cu  tau(  23) = (   0.5000376   0.2314189   1.2465958  )
        24           Cu  tau(  24) = (   0.7500000   0.0001950   1.2463142  )
        25           Cu  tau(  25) = (   0.0000827   0.6931388   1.2463864  )
        26           Cu  tau(  26) = (   0.2500664   0.4623549   1.2466171  )
        27           Cu  tau(  27) = (   0.5000572   0.6930470   1.2462509  )
        28           Cu  tau(  28) = (   0.7500411   0.4623422   1.2465521  )
        29           Cu  tau(  29) = (   0.0000681   1.1542431   1.2462983  )
        30           Cu  tau(  30) = (   0.2500759   0.9236520   1.2461665  )
        31           Cu  tau(  31) = (   0.5000727   1.1541906   1.2462971  )
        32           Cu  tau(  32) = (   0.7500739   0.9236488   1.2461145  )
        33           Cu  tau(  33) = (   0.0000255   1.6159538   1.2466510  )
        34           Cu  tau(  34) = (   0.2500808   1.3849494   1.2466751  )
        35           Cu  tau(  35) = (   0.5000239   1.6159648   1.2467738  )
        36           Cu  tau(  36) = (   0.7500209   1.3849686   1.2466224  )
        37           Cu  tau(  37) = (  -0.0000006   2.0784084   1.2462016  )
        38           Cu  tau(  38) = (   0.2500070   1.8471735   1.2464092  )
        39           Cu  tau(  39) = (   0.4999934   2.0783847   1.2461611  )
        40           Cu  tau(  40) = (   0.7499989   1.8471657   1.2463958  )
        41           Cu  tau(  41) = (   0.0000727  -0.0000699   1.4957572  )
        42           Cu  tau(  42) = (   0.2501971   0.2312781   1.4959154  )
        43           Cu  tau(  43) = (   0.5000731  -0.0000326   1.4956150  )
        44           Cu  tau(  44) = (   0.7500313   0.2313791   1.4959792  )
        45           Cu  tau(  45) = (   0.0001223   0.4626521   1.4961335  )
        46           Cu  tau(  46) = (   0.2502671   0.6936639   1.4965887  )
        47           Cu  tau(  47) = (   0.5001834   0.4629489   1.4965587  )
        48           Cu  tau(  48) = (   0.7500912   0.6936629   1.4965339  )
        49           Cu  tau(  49) = (   0.0001477   0.9239200   1.4966566  )
        50           Cu  tau(  50) = (   0.2502448   1.1537321   1.4966077  )
        51           Cu  tau(  51) = (   0.5002303   0.9236122   1.4966541  )
        52           Cu  tau(  52) = (   0.7501356   1.1536869   1.4966011  )
        53           Cu  tau(  53) = (   0.0001578   1.3844686   1.4964117  )
        54           Cu  tau(  54) = (   0.2501253   1.6158314   1.4960637  )
        55           Cu  tau(  55) = (   0.5001704   1.3841729   1.4966340  )
        56           Cu  tau(  56) = (   0.7501021   1.6157601   1.4960776  )
        57           Cu  tau(  57) = (   0.0000507   1.8472305   1.4956921  )
        58           Cu  tau(  58) = (   0.2500430   2.0783767   1.4956521  )
        59           Cu  tau(  59) = (   0.5000853   1.8474164   1.4957796  )
        60           Cu  tau(  60) = (   0.7500622   2.0783804   1.4956079  )
        61           Cu  tau(  61) = (   0.0001758   0.2310631   1.7443204  )
        62           Cu  tau(  62) = (   0.2502701  -0.0002760   1.7450507  )
        63           Cu  tau(  63) = (   0.5002205   0.2306708   1.7449083  )
        64           Cu  tau(  64) = (   0.7500503  -0.0002822   1.7449479  )
        65           Cu  tau(  65) = (   0.0001734   0.6935574   1.7460313  )
        66           Cu  tau(  66) = (   0.2508141   0.4625860   1.7451573  )
        67           Cu  tau(  67) = (   0.5003470   0.6943495   1.7480244  )
        68           Cu  tau(  68) = (   0.7496512   0.4627947   1.7454468  )
        69           Cu  tau(  69) = (   0.0002508   1.1538224   1.7475279  )
        70           Cu  tau(  70) = (   0.2506815   0.9239401   1.7478873  )
        71           Cu  tau(  71) = (   0.5003652   1.1528240   1.7479385  )
        72           Cu  tau(  72) = (   0.7498723   0.9238599   1.7482008  )
        73           Cu  tau(  73) = (   0.0002104   1.6161280   1.7449434  )
        74           Cu  tau(  74) = (   0.2501998   1.3842922   1.7457316  )
        75           Cu  tau(  75) = (   0.5002703   1.6161325   1.7443434  )
        76           Cu  tau(  76) = (   0.7504093   1.3841599   1.7457932  )
        77           Cu  tau(  77) = (   0.0001506   2.0781311   1.7452865  )
        78           Cu  tau(  78) = (   0.2500097   1.8474974   1.7448616  )
        79           Cu  tau(  79) = (   0.5001324   2.0785967   1.7453644  )
        80           Cu  tau(  80) = (   0.7503294   1.8475096   1.7448333  )
        81           Cu  tau(  81) = (   0.0002518   0.0002436   1.9906255  )
        82           Cu  tau(  82) = (   0.2500314   0.2307221   1.9904158  )
        83           Cu  tau(  83) = (   0.5001560   0.0000089   1.9925585  )
        84           Cu  tau(  84) = (   0.7503877   0.2307906   1.9902625  )
        85           Cu  tau(  85) = (   0.0003474   0.4618961   1.9891037  )
        86           Cu  tau(  86) = (   0.2523131   0.6922172   1.9929625  )
        87           Cu  tau(  87) = (   0.5000719   0.4597816   1.9923649  )
        88           Cu  tau(  88) = (   0.7480671   0.6920637   1.9937815  )
        89           Cu  tau(  89) = (   0.0002096   0.9219937   1.9931446  )
        90           Cu  tau(  90) = (   0.2502604   1.1549268   1.9950080  )
        91           Cu  tau(  91) = (   0.5003003   0.9247802   2.0010315  )
        92           Cu  tau(  92) = (   0.7503717   1.1550813   1.9953115  )
        93           Cu  tau(  93) = (   0.0004663   1.3862293   1.9924773  )
        94           Cu  tau(  94) = (   0.2499331   1.6166027   1.9901566  )
        95           Cu  tau(  95) = (   0.5002923   1.3862627   1.9904135  )
        96           Cu  tau(  96) = (   0.7507311   1.6164302   1.9900510  )
        97           Cu  tau(  97) = (   0.0001748   1.8473016   1.9922058  )
        98           Cu  tau(  98) = (   0.2502041   2.0781745   1.9915883  )
        99           Cu  tau(  99) = (   0.5003262   1.8468119   1.9903860  )
       100           Cu  tau( 100) = (   0.7502108   2.0783129   1.9914789  )
       101           C   tau( 101) = (  -0.0003149   0.0965100   2.3881220  )
       102           C   tau( 102) = (  -0.0001965   0.2887396   2.3863387  )
       103           C   tau( 103) = (   0.1663155   0.0004359   2.3886855  )
       104           C   tau( 104) = (   0.1662439   0.3848407   2.3828061  )
       105           C   tau( 105) = (   0.3328713   0.0965696   2.3863787  )
       106           C   tau( 106) = (   0.3328917   0.2888101   2.3828783  )
       107           C   tau( 107) = (   0.4996643   0.0002673   2.3855551  )
       108           C   tau( 108) = (   0.4998058   0.3856635   2.3806266  )
       109           C   tau( 109) = (   0.6665294   0.0965879   2.3852494  )
       110           C   tau( 110) = (   0.6666849   0.2888526   2.3822988  )
       111           C   tau( 111) = (   0.8330068   0.0004097   2.3879424  )
       112           C   tau( 112) = (   0.8334435   0.3848189   2.3826253  )
       113           C   tau( 113) = (  -0.0000108   0.6734180   2.3761591  )
       114           C   tau( 114) = (  -0.0000193   0.8659152   2.3711379  )
       115           C   tau( 115) = (   0.1661894   0.5770487   2.3775110  )
       116           C   tau( 116) = (   0.1669571   0.9618721   2.3771840  )
       117           C   tau( 117) = (   0.3326286   0.6740461   2.3782287  )
       118           C   tau( 118) = (   0.3309500   0.8648892   2.4649430  )
       119           H   tau( 119) = (   0.3309500   0.8648892   2.6004797  )
       120           C   tau( 120) = (   0.4999201   0.5773268   2.3803618  )
       121           C   tau( 121) = (   0.5001047   0.9620977   2.4655164  )
       122           H   tau( 122) = (   0.5017283   0.9601426   2.6017006  )
       123           C   tau( 123) = (   0.6672628   0.6739780   2.3777119  )
       124           C   tau( 124) = (   0.6689827   0.8649033   2.3825772  )
       125           C   tau( 125) = (   0.8337206   0.5770576   2.3773198  )
       126           C   tau( 126) = (   0.8330459   0.9619034   2.3767209  )
       127           C   tau( 127) = (  -0.0000747   1.2509098   2.3791404  )
       128           C   tau( 128) = (  -0.0002185   1.4440550   2.3780961  )
       129           C   tau( 129) = (   0.1666185   1.1551756   2.3797271  )
       130           C   tau( 130) = (   0.1664632   1.5404836   2.3809450  )
       131           C   tau( 131) = (   0.3338644   1.2520710   2.3821606  )
       132           C   tau( 132) = (   0.3332198   1.4446490   2.3817343  )
       133           C   tau( 133) = (   0.4998777   1.1584205   2.3884480  )
       134           C   tau( 134) = (   0.4997169   1.5406150   2.3848059  )
       135           C   tau( 135) = (   0.6658678   1.2520782   2.3823541  )
       136           C   tau( 136) = (   0.6662775   1.4446333   2.3815164  )
       137           C   tau( 137) = (   0.8332462   1.1551883   2.3796632  )
       138           C   tau( 138) = (   0.8329891   1.5405003   2.3802353  )
       139           C   tau( 139) = (  -0.0003525   1.8290905   2.3841460  )
       140           C   tau( 140) = (  -0.0003780   2.0214157   2.3874067  )
       141           C   tau( 141) = (   0.1664672   1.7328546   2.3846486  )
       142           C   tau( 142) = (   0.1662477   2.1174983   2.3880837  )
       143           C   tau( 143) = (   0.3330006   1.8289262   2.3877366  )
       144           C   tau( 144) = (   0.3330139   2.0212634   2.3883003  )
       145           C   tau( 145) = (   0.4996241   1.7329494   2.3871833  )
       146           C   tau( 146) = (   0.4996037   2.1173492   2.3885064  )
       147           C   tau( 147) = (   0.6662286   1.8289388   2.3873898  )
       148           C   tau( 148) = (   0.6661888   2.0212694   2.3879381  )
       149           C   tau( 149) = (   0.8328102   1.7328971   2.3841097  )
       150           C   tau( 150) = (   0.8329945   2.1174691   2.3877494  )

     number of k points=     6  gaussian smearing, width (Ry)=  0.1000
                       cart. coord. in units 2pi/alat
        k(    1) = (   0.0000000   0.0000000   0.0000000), wk =   0.1250000
        k(    2) = (   0.0000000  -0.2165064   0.0000000), wk =   0.1250000
        k(    3) = (   0.2500000   0.0000000   0.0000000), wk =   0.2500000
        k(    4) = (   0.2500000  -0.2165064   0.0000000), wk =   0.2500000
        k(    5) = (  -0.5000000   0.0000000   0.0000000), wk =   0.1250000
        k(    6) = (  -0.5000000  -0.2165064   0.0000000), wk =   0.1250000

     Dense  grid:  2050409 G-vectors     FFT dimensions: (  80, 192, 270)

     Largest allocated arrays     est. size (Mb)     dimensions
        Kohn-Sham Wavefunctions        54.52 Mb     (    4604,  776)
        NL pseudopotentials           129.97 Mb     (    4604, 1850)
        Each V/rho on FFT grid          2.34 Mb     (   76800,   2)
        Each G-vector array             0.28 Mb     (   36616)
        G-vector shells                 0.14 Mb     (   17932)
     Largest temporary arrays     est. size (Mb)     dimensions
        Auxiliary wavefunctions       218.06 Mb     (    4604, 3104)
        Each subspace H/S matrix        5.87 Mb     (     620,  620)
        Each <psi_i|beta_j> matrix     21.91 Mb     (    1850,  776)
        Arrays for rho mixing           9.38 Mb     (   76800,    8)

     Initial potential from superposition of free atoms
     Check: negative starting charge=(component1):   -0.001042
     Check: negative starting charge=(component2):   -0.000920

     starting charge 1268.81749, renormalised to 1294.00000

     negative rho (up, down):  1.063E-03 9.386E-04
     Starting wfc are 1286 randomized atomic wfcs

     total cpu time spent up to now is      209.8 secs

     Self-consistent Calculation

     iteration #  1     ecut=    80.00 Ry     beta=0.70
     Davidson diagonalization with overlap
     c_bands:  5 eigenvalues not converged
     c_bands:  3 eigenvalues not converged
     c_bands:  2 eigenvalues not converged
     c_bands:  4 eigenvalues not converged
     c_bands:  2 eigenvalues not converged
     ethr =  1.00E-04,  avg # of iterations = 20.6

     negative rho (up, down):  1.285E+01 1.376E+01

     total cpu time spent up to now is     3628.0 secs

     total energy              =   -9495.93679899 Ry
     Harris-Foulkes estimate   =  -17090.82031896 Ry
     estimated scf accuracy    <  177911.14718702 Ry

     total magnetization       =     2.17 Bohr mag/cell
     absolute magnetization    =     2.40 Bohr mag/cell

     iteration #  2     ecut=    80.00 Ry     beta=0.70
     Davidson diagonalization with overlap
     ethr =  1.00E-02,  avg # of iterations = 11.3

     negative rho (up, down):  1.399E+01 1.423E+01

     total cpu time spent up to now is     5479.6 secs

     total energy              =  -12319.07423434 Ry
     Harris-Foulkes estimate   =  -13584.09164534 Ry
     estimated scf accuracy    <   17067.78727018 Ry

     total magnetization       =     0.26 Bohr mag/cell
     absolute magnetization    =     0.68 Bohr mag/cell

     iteration #  3     ecut=    80.00 Ry     beta=0.70
     Davidson diagonalization with overlap
     ethr =  1.00E-02,  avg # of iterations =  7.0

     negative rho (up, down):  1.515E+01 1.514E+01

     total cpu time spent up to now is     6676.2 secs

     total energy              =  -12469.25503693 Ry
     Harris-Foulkes estimate   =  -13309.11022596 Ry
     estimated scf accuracy    <    6092.37264578 Ry

     total magnetization       =     0.02 Bohr mag/cell
     absolute magnetization    =     0.25 Bohr mag/cell

     iteration #  4     ecut=    80.00 Ry     beta=0.70
     Davidson diagonalization with overlap
     ethr =  1.00E-02,  avg # of iterations =  5.1

     negative rho (up, down):  1.368E+01 1.361E+01

     total cpu time spent up to now is     7723.5 secs

     total energy              =  -12809.06814168 Ry
     Harris-Foulkes estimate   =  -13119.47721922 Ry
     estimated scf accuracy    <    6406.34122673 Ry

     total magnetization       =     0.02 Bohr mag/cell
     absolute magnetization    =     0.12 Bohr mag/cell

     iteration #  5     ecut=    80.00 Ry     beta=0.70
     Davidson diagonalization with overlap
     ethr =  1.00E-02,  avg # of iterations =  5.0

     negative rho (up, down):  9.407E+00 9.417E+00

     total cpu time spent up to now is     8472.5 secs

     total energy              =  -12833.67529716 Ry
     Harris-Foulkes estimate   =  -13011.07912459 Ry
     estimated scf accuracy    <     965.04381535 Ry

     total magnetization       =    -0.02 Bohr mag/cell
     absolute magnetization    =     0.07 Bohr mag/cell

     iteration #  6     ecut=    80.00 Ry     beta=0.70
     Davidson diagonalization with overlap
     ethr =  1.00E-02,  avg # of iterations =  3.0

     negative rho (up, down):  5.585E+00 5.607E+00

     total cpu time spent up to now is     8954.2 secs

     total energy              =  -12823.65459598 Ry
     Harris-Foulkes estimate   =  -12894.58893638 Ry
     estimated scf accuracy    <     640.31047464 Ry

     total magnetization       =     0.00 Bohr mag/cell
     absolute magnetization    =     0.04 Bohr mag/cell

     iteration #  7     ecut=    80.00 Ry     beta=0.70
     Davidson diagonalization with overlap
     ethr =  1.00E-02,  avg # of iterations =  2.0

     negative rho (up, down):  4.061E+00 4.072E+00

     total cpu time spent up to now is     9316.6 secs

     total energy              =  -12802.56397615 Ry
     Harris-Foulkes estimate   =  -12835.23238411 Ry
     estimated scf accuracy    <     802.04040891 Ry

     total magnetization       =    -0.00 Bohr mag/cell
     absolute magnetization    =     0.05 Bohr mag/cell

     iteration #  8     ecut=    80.00 Ry     beta=0.70
     Davidson diagonalization with overlap
     ethr =  1.00E-02,  avg # of iterations =  1.3

     negative rho (up, down):  2.237E+00 2.237E+00

     total cpu time spent up to now is     9652.0 secs

     total energy              =  -12769.94630391 Ry
     Harris-Foulkes estimate   =  -12807.41403960 Ry
     estimated scf accuracy    <     296.11271927 Ry

     total magnetization       =    -0.00 Bohr mag/cell
     absolute magnetization    =     0.05 Bohr mag/cell

     iteration #  9     ecut=    80.00 Ry     beta=0.70
     Davidson diagonalization with overlap
     ethr =  1.00E-02,  avg # of iterations =  1.9

     negative rho (up, down):  8.808E-01 8.808E-01

     total cpu time spent up to now is     9998.8 secs

     total energy              =  -12749.58530396 Ry
     Harris-Foulkes estimate   =  -12783.80960514 Ry
     estimated scf accuracy    <     965.13133929 Ry

     total magnetization       =     0.00 Bohr mag/cell
     absolute magnetization    =     0.05 Bohr mag/cell

     iteration # 10     ecut=    80.00 Ry     beta=0.70
     Davidson diagonalization with overlap
     ethr =  1.00E-02,  avg # of iterations =  2.8

     negative rho (up, down):  5.457E-01 5.458E-01

     total cpu time spent up to now is    10367.8 secs

     total energy              =  -12721.70389785 Ry
     Harris-Foulkes estimate   =  -12759.22695269 Ry
     estimated scf accuracy    <     615.35517315 Ry

     total magnetization       =    -0.02 Bohr mag/cell
     absolute magnetization    =     0.07 Bohr mag/cell

     iteration # 11     ecut=    80.00 Ry     beta=0.70
     Davidson diagonalization with overlap
     ethr =  1.00E-02,  avg # of iterations =  2.2

     negative rho (up, down):  1.931E-01 1.932E-01

     total cpu time spent up to now is    10728.9 secs

     total energy              =  -12716.14005586 Ry
     Harris-Foulkes estimate   =  -12747.39338979 Ry
     estimated scf accuracy    <     364.21518526 Ry

     total magnetization       =    -0.00 Bohr mag/cell
     absolute magnetization    =     0.05 Bohr mag/cell

     iteration # 12     ecut=    80.00 Ry     beta=0.70
     Davidson diagonalization with overlap
     ethr =  1.00E-02,  avg # of iterations =  2.5

     negative rho (up, down):  1.839E-01 1.844E-01

     total cpu time spent up to now is    11098.5 secs

     total energy              =  -12721.57674206 Ry
     Harris-Foulkes estimate   =  -12741.11539293 Ry
     estimated scf accuracy    <     157.31052035 Ry

     total magnetization       =     0.02 Bohr mag/cell
     absolute magnetization    =     0.07 Bohr mag/cell

     iteration # 13     ecut=    80.00 Ry     beta=0.70
     Davidson diagonalization with overlap
     ethr =  1.00E-02,  avg # of iterations =  1.8

     negative rho (up, down):  2.040E+00 2.041E+00

     total cpu time spent up to now is    11445.5 secs

     total energy              =  -12710.49459190 Ry
     Harris-Foulkes estimate   =  -12736.55742992 Ry
     estimated scf accuracy    <     115.42341545 Ry

     total magnetization       =     0.01 Bohr mag/cell
     absolute magnetization    =     0.04 Bohr mag/cell

     iteration # 14     ecut=    80.00 Ry     beta=0.70
     Davidson diagonalization with overlap
     ethr =  8.92E-03,  avg # of iterations =  1.5

     negative rho (up, down):  1.507E+00 1.509E+00

     total cpu time spent up to now is    11785.8 secs

     total energy              =  -12713.63917611 Ry
     Harris-Foulkes estimate   =  -12719.53977256 Ry
     estimated scf accuracy    <     102.29203441 Ry

     total magnetization       =     0.01 Bohr mag/cell
     absolute magnetization    =     0.04 Bohr mag/cell

     iteration # 15     ecut=    80.00 Ry     beta=0.70
     Davidson diagonalization with overlap
     ethr =  7.91E-03,  avg # of iterations =  1.2

     negative rho (up, down):  2.407E+00 2.408E+00

     total cpu time spent up to now is    12118.2 secs

     total energy              =  -12710.42669903 Ry
     Harris-Foulkes estimate   =  -12715.09417226 Ry
     estimated scf accuracy    <      52.33947981 Ry

     total magnetization       =     0.00 Bohr mag/cell
     absolute magnetization    =     0.02 Bohr mag/cell

     iteration # 16     ecut=    80.00 Ry     beta=0.70
     Davidson diagonalization with overlap
     ethr =  4.04E-03,  avg # of iterations =  1.2

     negative rho (up, down):  2.055E+00 2.056E+00

     total cpu time spent up to now is    12449.9 secs

     total energy              =  -12708.06941046 Ry
     Harris-Foulkes estimate   =  -12711.31407518 Ry
     estimated scf accuracy    <      31.09810556 Ry

     total magnetization       =     0.00 Bohr mag/cell
     absolute magnetization    =     0.02 Bohr mag/cell

     iteration # 17     ecut=    80.00 Ry     beta=0.70
     Davidson diagonalization with overlap
     ethr =  2.40E-03,  avg # of iterations =  2.9

     negative rho (up, down):  1.533E+00 1.534E+00

     total cpu time spent up to now is    12821.4 secs

     total energy              =  -12706.50286982 Ry
     Harris-Foulkes estimate   =  -12708.74743173 Ry
     estimated scf accuracy    <      17.98295740 Ry

     total magnetization       =     0.00 Bohr mag/cell
     absolute magnetization    =     0.02 Bohr mag/cell

     iteration # 18     ecut=    80.00 Ry     beta=0.70
     Davidson diagonalization with overlap
     ethr =  1.39E-03,  avg # of iterations =  8.0

     negative rho (up, down):  1.252E+00 1.252E+00

     total cpu time spent up to now is    13330.1 secs

     total energy              =  -12706.23270866 Ry
     Harris-Foulkes estimate   =  -12706.91917802 Ry
     estimated scf accuracy    <       8.73757646 Ry

     total magnetization       =    -0.00 Bohr mag/cell
     absolute magnetization    =     0.02 Bohr mag/cell

     iteration # 19     ecut=    80.00 Ry     beta=0.70
     Davidson diagonalization with overlap
     ethr =  6.75E-04,  avg # of iterations =  5.4

     negative rho (up, down):  9.698E-01 9.699E-01

     total cpu time spent up to now is    13758.2 secs

     total energy              =  -12705.02452463 Ry
     Harris-Foulkes estimate   =  -12706.34430385 Ry
     estimated scf accuracy    <       7.03979419 Ry

     total magnetization       =    -0.00 Bohr mag/cell
     absolute magnetization    =     0.01 Bohr mag/cell

     iteration # 20     ecut=    80.00 Ry     beta=0.70
     Davidson diagonalization with overlap
     ethr =  5.44E-04,  avg # of iterations =  5.0

     negative rho (up, down):  9.874E-01 9.876E-01

     total cpu time spent up to now is    14178.2 secs

     total energy              =  -12705.29612053 Ry
     Harris-Foulkes estimate   =  -12705.22014731 Ry
     estimated scf accuracy    <      11.45934012 Ry

     total magnetization       =    -0.00 Bohr mag/cell
     absolute magnetization    =     0.01 Bohr mag/cell

     iteration # 21     ecut=    80.00 Ry     beta=0.70
     Davidson diagonalization with overlap
     ethr =  5.44E-04,  avg # of iterations =  1.1

     negative rho (up, down):  1.039E+00 1.039E+00

     total cpu time spent up to now is    14508.8 secs

     total energy              =  -12705.14104277 Ry
     Harris-Foulkes estimate   =  -12705.52425364 Ry
     estimated scf accuracy    <       7.20866331 Ry

     total magnetization       =    -0.00 Bohr mag/cell
     absolute magnetization    =     0.01 Bohr mag/cell

     iteration # 22     ecut=    80.00 Ry     beta=0.70
     Davidson diagonalization with overlap
     ethr =  5.44E-04,  avg # of iterations =  1.5

     negative rho (up, down):  5.777E-01 5.773E-01

     total cpu time spent up to now is    14848.6 secs

     total energy              =  -12702.87700984 Ry
     Harris-Foulkes estimate   =  -12705.20057880 Ry
     estimated scf accuracy    <       6.06920803 Ry

     total magnetization       =     0.00 Bohr mag/cell
     absolute magnetization    =     0.00 Bohr mag/cell

     iteration # 23     ecut=    80.00 Ry     beta=0.70
     Davidson diagonalization with overlap
     ethr =  4.69E-04,  avg # of iterations =  2.5

     negative rho (up, down):  7.108E-01 7.104E-01

     total cpu time spent up to now is    15209.8 secs

     total energy              =  -12701.71253780 Ry
     Harris-Foulkes estimate   =  -12703.03182470 Ry
     estimated scf accuracy    <       4.93153689 Ry

     total magnetization       =    -0.00 Bohr mag/cell
     absolute magnetization    =     0.01 Bohr mag/cell

     iteration # 24     ecut=    80.00 Ry     beta=0.70
     Davidson diagonalization with overlap
     ethr =  3.81E-04,  avg # of iterations =  7.4

     negative rho (up, down):  6.124E-01 6.122E-01

     total cpu time spent up to now is    15729.4 secs

     total energy              =  -12701.24911017 Ry
     Harris-Foulkes estimate   =  -12701.87297102 Ry
     estimated scf accuracy    <       3.17587604 Ry

     total magnetization       =     0.00 Bohr mag/cell
     absolute magnetization    =     0.01 Bohr mag/cell

     iteration # 25     ecut=    80.00 Ry     beta=0.70
     Davidson diagonalization with overlap
     ethr =  2.45E-04,  avg # of iterations =  5.3

     negative rho (up, down):  6.073E-01 6.073E-01

     total cpu time spent up to now is    16172.1 secs

     total energy              =  -12701.18114651 Ry
     Harris-Foulkes estimate   =  -12701.42037015 Ry
     estimated scf accuracy    <       0.97790165 Ry

     total magnetization       =     0.00 Bohr mag/cell
     absolute magnetization    =     0.01 Bohr mag/cell

     iteration # 26     ecut=    80.00 Ry     beta=0.70
     Davidson diagonalization with overlap
     ethr =  7.56E-05,  avg # of iterations =  6.0

     negative rho (up, down):  4.226E-01 4.227E-01

     total cpu time spent up to now is    16654.1 secs

     total energy              =  -12701.08858353 Ry
     Harris-Foulkes estimate   =  -12701.23267599 Ry
     estimated scf accuracy    <       0.49934874 Ry

     total magnetization       =     0.00 Bohr mag/cell
     absolute magnetization    =     0.00 Bohr mag/cell

     iteration # 27     ecut=    80.00 Ry     beta=0.70
     Davidson diagonalization with overlap
     ethr =  3.86E-05,  avg # of iterations =  6.3

     negative rho (up, down):  2.442E-01 2.442E-01

     total cpu time spent up to now is    17127.8 secs

     total energy              =  -12700.99739111 Ry
     Harris-Foulkes estimate   =  -12701.11350419 Ry
     estimated scf accuracy    <       0.27758584 Ry

     total magnetization       =     0.00 Bohr mag/cell
     absolute magnetization    =     0.00 Bohr mag/cell

     iteration # 28     ecut=    80.00 Ry     beta=0.70
     Davidson diagonalization with overlap
     ethr =  2.15E-05,  avg # of iterations =  7.7

     negative rho (up, down):  1.566E-01 1.566E-01

     total cpu time spent up to now is    17678.8 secs

     total energy              =  -12700.99245780 Ry
     Harris-Foulkes estimate   =  -12701.01951156 Ry
     estimated scf accuracy    <       0.11670015 Ry

     total magnetization       =    -0.00 Bohr mag/cell
     absolute magnetization    =     0.00 Bohr mag/cell

     iteration # 29     ecut=    80.00 Ry     beta=0.70
     Davidson diagonalization with overlap
     ethr =  9.02E-06,  avg # of iterations = 10.6

     negative rho (up, down):  1.254E-01 1.254E-01

     total cpu time spent up to now is    18269.9 secs

     total energy              =  -12700.99569720 Ry
     Harris-Foulkes estimate   =  -12700.99967540 Ry
     estimated scf accuracy    <       0.03497240 Ry

     total magnetization       =    -0.00 Bohr mag/cell
     absolute magnetization    =     0.00 Bohr mag/cell

     iteration # 30     ecut=    80.00 Ry     beta=0.70
     Davidson diagonalization with overlap
     c_bands:  1 eigenvalues not converged
     c_bands:  1 eigenvalues not converged
     c_bands:  1 eigenvalues not converged
     ethr =  2.70E-06,  avg # of iterations =  9.2

     negative rho (up, down):  4.925E-02 4.925E-02

     total cpu time spent up to now is    18805.5 secs

     total energy              =  -12700.99327757 Ry
     Harris-Foulkes estimate   =  -12700.99753300 Ry
     estimated scf accuracy    <       0.01268923 Ry

     total magnetization       =    -0.00 Bohr mag/cell
     absolute magnetization    =     0.00 Bohr mag/cell

     iteration # 31     ecut=    80.00 Ry     beta=0.70
     Davidson diagonalization with overlap
     ethr =  9.81E-07,  avg # of iterations = 14.0

     negative rho (up, down):  3.208E-02 3.207E-02

     total cpu time spent up to now is    19529.8 secs

     total energy              =  -12700.99322397 Ry
     Harris-Foulkes estimate   =  -12700.99446388 Ry
     estimated scf accuracy    <       0.01093543 Ry

     total magnetization       =     0.00 Bohr mag/cell
     absolute magnetization    =     0.00 Bohr mag/cell

     iteration # 32     ecut=    80.00 Ry     beta=0.70
     Davidson diagonalization with overlap
     ethr =  8.45E-07,  avg # of iterations =  5.8

     negative rho (up, down):  2.391E-02 2.391E-02

     total cpu time spent up to now is    20005.7 secs

     total energy              =  -12700.99320882 Ry
     Harris-Foulkes estimate   =  -12700.99387341 Ry
     estimated scf accuracy    <       0.00212817 Ry

     total magnetization       =     0.00 Bohr mag/cell
     absolute magnetization    =     0.00 Bohr mag/cell

     iteration # 33     ecut=    80.00 Ry     beta=0.70
     Davidson diagonalization with overlap
     ethr =  1.64E-07,  avg # of iterations =  6.2

     negative rho (up, down):  1.740E-02 1.740E-02

     total cpu time spent up to now is    20482.7 secs

     total energy              =  -12700.99285685 Ry
     Harris-Foulkes estimate   =  -12700.99331085 Ry
     estimated scf accuracy    <       0.00064344 Ry

     total magnetization       =     0.00 Bohr mag/cell
     absolute magnetization    =     0.00 Bohr mag/cell

     iteration # 34     ecut=    80.00 Ry     beta=0.70
     Davidson diagonalization with overlap
     ethr =  4.97E-08,  avg # of iterations =  6.8

     negative rho (up, down):  1.508E-02 1.508E-02

     total cpu time spent up to now is    20958.8 secs

     total energy              =  -12700.99272234 Ry
     Harris-Foulkes estimate   =  -12700.99289810 Ry
     estimated scf accuracy    <       0.00041067 Ry

     total magnetization       =     0.00 Bohr mag/cell
     absolute magnetization    =     0.00 Bohr mag/cell

     iteration # 35     ecut=    80.00 Ry     beta=0.70
     Davidson diagonalization with overlap
     ethr =  3.17E-08,  avg # of iterations =  6.6

     negative rho (up, down):  8.619E-03 8.619E-03

     total cpu time spent up to now is    21436.7 secs

     total energy              =  -12700.99239403 Ry
     Harris-Foulkes estimate   =  -12700.99275491 Ry
     estimated scf accuracy    <       0.00025510 Ry

     total magnetization       =     0.00 Bohr mag/cell
     absolute magnetization    =     0.00 Bohr mag/cell

     iteration # 36     ecut=    80.00 Ry     beta=0.70
     Davidson diagonalization with overlap
     ethr =  1.97E-08,  avg # of iterations = 10.3

     negative rho (up, down):  3.944E-03 3.944E-03

     total cpu time spent up to now is    22009.0 secs

     total energy              =  -12700.99222207 Ry
     Harris-Foulkes estimate   =  -12700.99241303 Ry
     estimated scf accuracy    <       0.00011233 Ry

     total magnetization       =    -0.00 Bohr mag/cell
     absolute magnetization    =     0.00 Bohr mag/cell

     iteration # 37     ecut=    80.00 Ry     beta=0.70
     Davidson diagonalization with overlap
     c_bands:  2 eigenvalues not converged
     c_bands:  2 eigenvalues not converged
     ethr =  8.68E-09,  avg # of iterations = 11.3

     negative rho (up, down):  2.048E-03 2.048E-03

     total cpu time spent up to now is    22609.6 secs

     total energy              =  -12700.99217524 Ry
     Harris-Foulkes estimate   =  -12700.99223256 Ry
     estimated scf accuracy    <       0.00003741 Ry

     total magnetization       =    -0.00 Bohr mag/cell
     absolute magnetization    =     0.00 Bohr mag/cell

     iteration # 38     ecut=    80.00 Ry     beta=0.70
     Davidson diagonalization with overlap
     c_bands:  1 eigenvalues not converged
     c_bands:  1 eigenvalues not converged
     ethr =  2.89E-09,  avg # of iterations =  8.8

     negative rho (up, down):  1.063E-03 1.063E-03

     total cpu time spent up to now is    23141.1 secs

     total energy              =  -12700.99216146 Ry
     Harris-Foulkes estimate   =  -12700.99217957 Ry
     estimated scf accuracy    <       0.00001899 Ry

     total magnetization       =     0.00 Bohr mag/cell
     absolute magnetization    =     0.00 Bohr mag/cell

     iteration # 39     ecut=    80.00 Ry     beta=0.70
     Davidson diagonalization with overlap
     ethr =  1.47E-09,  avg # of iterations =  3.5

     negative rho (up, down):  8.187E-04 8.187E-04

     total cpu time spent up to now is    23544.6 secs

     total energy              =  -12700.99215905 Ry
     Harris-Foulkes estimate   =  -12700.99216354 Ry
     estimated scf accuracy    <       0.00000860 Ry

     total magnetization       =     0.00 Bohr mag/cell
     absolute magnetization    =     0.00 Bohr mag/cell

     iteration # 40     ecut=    80.00 Ry     beta=0.70
     Davidson diagonalization with overlap
     ethr =  6.65E-10,  avg # of iterations =  2.5

     negative rho (up, down):  7.999E-04 7.999E-04

     total cpu time spent up to now is    23918.1 secs

     total energy              =  -12700.99215966 Ry
     Harris-Foulkes estimate   =  -12700.99215964 Ry
     estimated scf accuracy    <       0.00000108 Ry

     total magnetization       =     0.00 Bohr mag/cell
     absolute magnetization    =     0.00 Bohr mag/cell

     iteration # 41     ecut=    80.00 Ry     beta=0.70
     Davidson diagonalization with overlap
     ethr =  8.31E-11,  avg # of iterations =  3.0

     negative rho (up, down):  8.468E-04 8.468E-04

     total cpu time spent up to now is    24349.9 secs

     total energy              =  -12700.99216118 Ry
     Harris-Foulkes estimate   =  -12700.99215983 Ry
     estimated scf accuracy    <       0.00000069 Ry

     total magnetization       =     0.00 Bohr mag/cell
     absolute magnetization    =     0.00 Bohr mag/cell

     iteration # 42     ecut=    80.00 Ry     beta=0.70
     Davidson diagonalization with overlap
     ethr =  5.35E-11,  avg # of iterations =  2.5

     negative rho (up, down):  9.009E-04 9.009E-04

     total cpu time spent up to now is    24723.1 secs

     total energy              =  -12700.99216213 Ry
     Harris-Foulkes estimate   =  -12700.99216122 Ry
     estimated scf accuracy    <       0.00000019 Ry

     total magnetization       =     0.00 Bohr mag/cell
     absolute magnetization    =     0.00 Bohr mag/cell

     iteration # 43     ecut=    80.00 Ry     beta=0.70
     Davidson diagonalization with overlap
     ethr =  1.48E-11,  avg # of iterations =  3.0

     negative rho (up, down):  9.299E-04 9.299E-04

     total cpu time spent up to now is    25114.4 secs

     total energy              =  -12700.99216255 Ry
     Harris-Foulkes estimate   =  -12700.99216214 Ry
     estimated scf accuracy    <       0.00000007 Ry

     total magnetization       =    -0.00 Bohr mag/cell
     absolute magnetization    =     0.00 Bohr mag/cell

     iteration # 44     ecut=    80.00 Ry     beta=0.70
     Davidson diagonalization with overlap
     ethr =  5.34E-12,  avg # of iterations =  2.8

     negative rho (up, down):  9.406E-04 9.406E-04

     total cpu time spent up to now is    25494.0 secs

     total energy              =  -12700.99216276 Ry
     Harris-Foulkes estimate   =  -12700.99216255 Ry
     estimated scf accuracy    <       0.00000004 Ry

     total magnetization       =    -0.00 Bohr mag/cell
     absolute magnetization    =     0.00 Bohr mag/cell

     iteration # 45     ecut=    80.00 Ry     beta=0.70
     Davidson diagonalization with overlap
     ethr =  3.35E-12,  avg # of iterations =  2.7

     negative rho (up, down):  9.487E-04 9.487E-04
 
     Magnetic moment per site:
     atom:    1    charge:    9.6035    magn:   -0.0000    constr:    0.0000
     atom:    2    charge:    9.6036    magn:    0.0000    constr:    0.0000
     atom:    3    charge:    9.6034    magn:   -0.0000    constr:    0.0000
     atom:    4    charge:    9.6036    magn:    0.0000    constr:    0.0000
     atom:    5    charge:    9.6036    magn:    0.0000    constr:    0.0000
     atom:    6    charge:    9.6035    magn:    0.0000    constr:    0.0000
     atom:    7    charge:    9.6035    magn:   -0.0000    constr:    0.0000
     atom:    8    charge:    9.6035    magn:    0.0000    constr:    0.0000
     atom:    9    charge:    9.6036    magn:    0.0000    constr:    0.0000
     atom:   10    charge:    9.6037    magn:    0.0000    constr:    0.0000
     atom:   11    charge:    9.6036    magn:    0.0000    constr:    0.0000
     atom:   12    charge:    9.6038    magn:    0.0000    constr:    0.0000
     atom:   13    charge:    9.6037    magn:    0.0000    constr:    0.0000
     atom:   14    charge:    9.6036    magn:   -0.0000    constr:    0.0000
     atom:   15    charge:    9.6038    magn:   -0.0000    constr:    0.0000
     atom:   16    charge:    9.6034    magn:   -0.0000    constr:    0.0000
     atom:   17    charge:    9.6032    magn:    0.0000    constr:    0.0000
     atom:   18    charge:    9.6032    magn:   -0.0000    constr:    0.0000
     atom:   19    charge:    9.6031    magn:   -0.0000    constr:    0.0000
     atom:   20    charge:    9.6031    magn:    0.0000    constr:    0.0000
     atom:   21    charge:    9.6794    magn:   -0.0000    constr:    0.0000
     atom:   22    charge:    9.6797    magn:   -0.0000    constr:    0.0000
     atom:   23    charge:    9.6792    magn:   -0.0000    constr:    0.0000
     atom:   24    charge:    9.6796    magn:   -0.0000    constr:    0.0000
     atom:   25    charge:    9.6795    magn:   -0.0000    constr:    0.0000
     atom:   26    charge:    9.6793    magn:    0.0000    constr:    0.0000
     atom:   27    charge:    9.6797    magn:    0.0000    constr:    0.0000
     atom:   28    charge:    9.6793    magn:   -0.0000    constr:    0.0000
     atom:   29    charge:    9.6797    magn:   -0.0000    constr:    0.0000
     atom:   30    charge:    9.6797    magn:   -0.0000    constr:    0.0000
     atom:   31    charge:    9.6797    magn:   -0.0000    constr:    0.0000
     atom:   32    charge:    9.6798    magn:    0.0000    constr:    0.0000
     atom:   33    charge:    9.6793    magn:    0.0000    constr:    0.0000
     atom:   34    charge:    9.6794    magn:   -0.0000    constr:    0.0000
     atom:   35    charge:    9.6790    magn:   -0.0000    constr:    0.0000
     atom:   36    charge:    9.6793    magn:   -0.0000    constr:    0.0000
     atom:   37    charge:    9.6797    magn:    0.0000    constr:    0.0000
     atom:   38    charge:    9.6796    magn:    0.0000    constr:    0.0000
     atom:   39    charge:    9.6798    magn:   -0.0000    constr:    0.0000
     atom:   40    charge:    9.6795    magn:   -0.0000    constr:    0.0000
     atom:   41    charge:    9.6813    magn:    0.0000    constr:    0.0000
     atom:   42    charge:    9.6809    magn:   -0.0000    constr:    0.0000
     atom:   43    charge:    9.6816    magn:    0.0000    constr:    0.0000
     atom:   44    charge:    9.6807    magn:   -0.0000    constr:    0.0000
     atom:   45    charge:    9.6808    magn:    0.0000    constr:    0.0000
     atom:   46    charge:    9.6804    magn:    0.0000    constr:    0.0000
     atom:   47    charge:    9.6802    magn:   -0.0000    constr:    0.0000
     atom:   48    charge:    9.6804    magn:   -0.0000    constr:    0.0000
     atom:   49    charge:    9.6804    magn:    0.0000    constr:    0.0000
     atom:   50    charge:    9.6805    magn:   -0.0000    constr:    0.0000
     atom:   51    charge:    9.6807    magn:    0.0000    constr:    0.0000
     atom:   52    charge:    9.6804    magn:   -0.0000    constr:    0.0000
     atom:   53    charge:    9.6801    magn:   -0.0000    constr:    0.0000
     atom:   54    charge:    9.6806    magn:    0.0000    constr:    0.0000
     atom:   55    charge:    9.6799    magn:    0.0000    constr:    0.0000
     atom:   56    charge:    9.6806    magn:    0.0000    constr:    0.0000
     atom:   57    charge:    9.6814    magn:   -0.0000    constr:    0.0000
     atom:   58    charge:    9.6815    magn:    0.0000    constr:    0.0000
     atom:   59    charge:    9.6813    magn:   -0.0000    constr:    0.0000
     atom:   60    charge:    9.6816    magn:    0.0000    constr:    0.0000
     atom:   61    charge:    9.6850    magn:    0.0000    constr:    0.0000
     atom:   62    charge:    9.6840    magn:   -0.0000    constr:    0.0000
     atom:   63    charge:    9.6844    magn:    0.0000    constr:    0.0000
     atom:   64    charge:    9.6841    magn:   -0.0000    constr:    0.0000
     atom:   65    charge:    9.6832    magn:   -0.0000    constr:    0.0000
     atom:   66    charge:    9.6837    magn:   -0.0000    constr:    0.0000
     atom:   67    charge:    9.6811    magn:   -0.0000    constr:    0.0000
     atom:   68    charge:    9.6837    magn:    0.0000    constr:    0.0000
     atom:   69    charge:    9.6815    magn:   -0.0000    constr:    0.0000
     atom:   70    charge:    9.6816    magn:    0.0000    constr:    0.0000
     atom:   71    charge:    9.6809    magn:    0.0000    constr:    0.0000
     atom:   72    charge:    9.6810    magn:    0.0000    constr:    0.0000
     atom:   73    charge:    9.6838    magn:   -0.0000    constr:    0.0000
     atom:   74    charge:    9.6827    magn:   -0.0000    constr:    0.0000
     atom:   75    charge:    9.6850    magn:   -0.0000    constr:    0.0000
     atom:   76    charge:    9.6830    magn:   -0.0000    constr:    0.0000
     atom:   77    charge:    9.6838    magn:   -0.0000    constr:    0.0000
     atom:   78    charge:    9.6842    magn:   -0.0000    constr:    0.0000
     atom:   79    charge:    9.6835    magn:    0.0000    constr:    0.0000
     atom:   80    charge:    9.6843    magn:   -0.0000    constr:    0.0000
     atom:   81    charge:    9.6189    magn:   -0.0000    constr:    0.0000
     atom:   82    charge:    9.6204    magn:    0.0000    constr:    0.0000
     atom:   83    charge:    9.6157    magn:    0.0000    constr:    0.0000
     atom:   84    charge:    9.6202    magn:   -0.0000    constr:    0.0000
     atom:   85    charge:    9.6207    magn:   -0.0000    constr:    0.0000
     atom:   86    charge:    9.6129    magn:   -0.0000    constr:    0.0000
     atom:   87    charge:    9.6200    magn:    0.0000    constr:    0.0000
     atom:   88    charge:    9.6161    magn:    0.0000    constr:    0.0000
     atom:   89    charge:    9.6155    magn:    0.0000    constr:    0.0000
     atom:   90    charge:    9.6116    magn:   -0.0000    constr:    0.0000
     atom:   91    charge:    9.6052    magn:    0.0000    constr:    0.0000
     atom:   92    charge:    9.6131    magn:   -0.0000    constr:    0.0000
     atom:   93    charge:    9.6190    magn:   -0.0000    constr:    0.0000
     atom:   94    charge:    9.6207    magn:   -0.0000    constr:    0.0000
     atom:   95    charge:    9.6202    magn:    0.0000    constr:    0.0000
     atom:   96    charge:    9.6209    magn:   -0.0000    constr:    0.0000
     atom:   97    charge:    9.6172    magn:    0.0000    constr:    0.0000
     atom:   98    charge:    9.6170    magn:   -0.0000    constr:    0.0000
     atom:   99    charge:    9.6186    magn:    0.0000    constr:    0.0000
     atom:  100    charge:    9.6173    magn:   -0.0000    constr:    0.0000
     atom:  101    charge:    0.6751    magn:   -0.0000    constr:    0.0000
     atom:  102    charge:    0.6753    magn:   -0.0000    constr:    0.0000
     atom:  103    charge:    0.6742    magn:    0.0000    constr:    0.0000
     atom:  104    charge:    0.6749    magn:    0.0000    constr:    0.0000
     atom:  105    charge:    0.6741    magn:   -0.0000    constr:    0.0000
     atom:  106    charge:    0.6737    magn:    0.0000    constr:    0.0000
     atom:  107    charge:    0.6739    magn:    0.0000    constr:    0.0000
     atom:  108    charge:    0.6740    magn:   -0.0000    constr:    0.0000
     atom:  109    charge:    0.6743    magn:   -0.0000    constr:    0.0000
     atom:  110    charge:    0.6737    magn:    0.0000    constr:    0.0000
     atom:  111    charge:    0.6742    magn:    0.0000    constr:    0.0000
     atom:  112    charge:    0.6752    magn:    0.0000    constr:    0.0000
     atom:  113    charge:    0.6760    magn:    0.0000    constr:    0.0000
     atom:  114    charge:    0.6729    magn:   -0.0000    constr:    0.0000
     atom:  115    charge:    0.6731    magn:   -0.0000    constr:    0.0000
     atom:  116    charge:    0.6576    magn:    0.0000    constr:    0.0000
     atom:  117    charge:    0.6584    magn:    0.0000    constr:    0.0000
     atom:  118    charge:    0.6834    magn:   -0.0000    constr:    0.0000
     atom:  119    charge:    0.4823    magn:    0.0000    constr:    0.0000
     atom:  120    charge:    0.6732    magn:   -0.0000    constr:    0.0000
     atom:  121    charge:    0.6798    magn:    0.0000    constr:    0.0000
     atom:  122    charge:    0.4802    magn:   -0.0000    constr:    0.0000
     atom:  123    charge:    0.6744    magn:    0.0000    constr:    0.0000
     atom:  124    charge:    0.6620    magn:    0.0000    constr:    0.0000
     atom:  125    charge:    0.6733    magn:   -0.0000    constr:    0.0000
     atom:  126    charge:    0.6736    magn:    0.0000    constr:    0.0000
     atom:  127    charge:    0.6724    magn:    0.0000    constr:    0.0000
     atom:  128    charge:    0.6726    magn:   -0.0000    constr:    0.0000
     atom:  129    charge:    0.6723    magn:   -0.0000    constr:    0.0000
     atom:  130    charge:    0.6739    magn:    0.0000    constr:    0.0000
     atom:  131    charge:    0.6747    magn:    0.0000    constr:    0.0000
     atom:  132    charge:    0.6742    magn:   -0.0000    constr:    0.0000
     atom:  133    charge:    0.6621    magn:   -0.0000    constr:    0.0000
     atom:  134    charge:    0.6743    magn:    0.0000    constr:    0.0000
     atom:  135    charge:    0.6742    magn:    0.0000    constr:    0.0000
     atom:  136    charge:    0.6742    magn:   -0.0000    constr:    0.0000
     atom:  137    charge:    0.6727    magn:   -0.0000    constr:    0.0000
     atom:  138    charge:    0.6738    magn:    0.0000    constr:    0.0000
     atom:  139    charge:    0.6735    magn:    0.0000    constr:    0.0000
     atom:  140    charge:    0.6749    magn:    0.0000    constr:    0.0000
     atom:  141    charge:    0.6744    magn:   -0.0000    constr:    0.0000
     atom:  142    charge:    0.6740    magn:    0.0000    constr:    0.0000
     atom:  143    charge:    0.6744    magn:    0.0000    constr:    0.0000
     atom:  144    charge:    0.6740    magn:   -0.0000    constr:    0.0000
     atom:  145    charge:    0.6753    magn:   -0.0000    constr:    0.0000
     atom:  146    charge:    0.6748    magn:   -0.0000    constr:    0.0000
     atom:  147    charge:    0.6743    magn:    0.0000    constr:    0.0000
     atom:  148    charge:    0.6740    magn:    0.0000    constr:    0.0000
     atom:  149    charge:    0.6741    magn:   -0.0000    constr:    0.0000
     atom:  150    charge:    0.6740    magn:   -0.0000    constr:    0.0000

     total cpu time spent up to now is    25859.7 secs

     End of self-consistent calculation

 ------ SPIN UP ------------


          k = 0.0000 0.0000 0.0000 (256287 PWs)   bands (ev):

   -15.9893 -15.6336 -15.5729 -14.5274 -14.4885 -14.0645 -14.0133 -13.7474
   -13.6843 -13.6739 -13.5472 -12.8564 -12.6892 -12.6667 -12.5865 -12.5351
   -12.4955 -11.1782 -10.8809 -10.8384 -10.8249 -10.7350  -9.6192  -9.3475
    -8.9781  -8.9763  -8.9621  -8.2800  -8.1392  -8.1056  -8.0855  -7.4448
    -7.1347  -7.1064  -7.0798  -7.0630  -6.9953  -6.9739  -6.8679  -6.1009
    -5.6493  -5.6264  -5.4916  -5.4830  -5.3685  -5.3458  -5.2451  -5.1355
    -5.1124  -5.1105  -4.8343  -4.6852  -4.3387  -4.2748  -4.2383  -4.1568
    -3.9650  -3.9193  -3.7436  -3.7251  -3.6235  -3.6194  -3.5605  -3.1181
    -3.0649  -3.0471  -3.0376  -3.0325  -2.9559  -2.9202  -2.8981  -2.8264
    -2.8036  -2.7433  -2.7374  -2.6394  -2.6382  -2.6367  -2.6325  -2.5675
    -2.4887  -2.4784  -2.3887  -2.3805  -2.3691  -2.3274  -2.2635  -2.2442
    -2.1807  -2.1203  -2.0854  -2.0649  -1.9854  -1.9814  -1.9786  -1.9236
    -1.8514  -1.8464  -1.8213  -1.8196  -1.7812  -1.7810  -1.7809  -1.7807
    -1.6854  -1.6523  -1.6520  -1.6480  -1.6479  -1.6284  -1.5904  -1.5188
    -1.4712  -1.4289  -1.4045  -1.3816  -1.3730  -1.3670  -1.3660  -1.3581
    -1.3266  -1.3057  -1.2998  -1.2871  -1.2836  -1.2821  -1.2288  -1.2145
    -1.1935  -1.1919  -1.1902  -1.1758  -1.1600  -1.1569  -1.1432  -1.1411
    -1.1322  -1.1264  -1.0669  -1.0594  -1.0444  -1.0233  -0.9976  -0.9862
    -0.9798  -0.9541  -0.9257  -0.8920  -0.8908  -0.8769  -0.8387  -0.8379
    -0.8191  -0.8158  -0.8094  -0.7942  -0.7932  -0.7908  -0.7530  -0.7429
    -0.6845  -0.6828  -0.6754  -0.6697  -0.6654  -0.6626  -0.6525  -0.6501
    -0.6494  -0.6489  -0.6480  -0.6412  -0.6407  -0.6264  -0.6248  -0.5936
    -0.5804  -0.5779  -0.5706  -0.5555  -0.5491  -0.5470  -0.5462  -0.5441
    -0.5271  -0.4874  -0.4869  -0.4841  -0.4832  -0.4825  -0.4821  -0.4817
    -0.4799  -0.4782  -0.4773  -0.4748  -0.4747  -0.4727  -0.4687  -0.4683
    -0.4587  -0.4574  -0.4130  -0.3874  -0.3174  -0.3173  -0.3097  -0.3091
    -0.3081  -0.2901  -0.2890  -0.2692  -0.2687  -0.2493  -0.2469  -0.2385
    -0.2376  -0.2279  -0.2274  -0.2166  -0.2107  -0.1929  -0.1921  -0.1880
    -0.1874  -0.1823  -0.1811  -0.1711  -0.1702  -0.1205  -0.1201  -0.1174
    -0.0657  -0.0654  -0.0573  -0.0567  -0.0560  -0.0524  -0.0496  -0.0395
    -0.0378  -0.0325  -0.0319  -0.0311  -0.0302  -0.0280  -0.0274  -0.0123
    -0.0122  -0.0096  -0.0029   0.0018   0.0219   0.0226   0.0602   0.0720
     0.0730   0.0806   0.0808   0.0816   0.1071   0.1072   0.1094   0.1098
     0.1146   0.1240   0.1284   0.1301   0.1304   0.1415   0.1518   0.1534
     0.1546   0.1571   0.1582   0.1586   0.1602   0.1624   0.1678   0.1739
     0.1806   0.1821   0.1843   0.1848   0.2058   0.2400   0.2519   0.2534
     0.2545   0.2556   0.2665   0.3008   0.3031   0.3032   0.3040   0.3098
     0.3107   0.3118   0.3122   0.3126   0.3296   0.3432   0.3610   0.3646
     0.3656   0.3667   0.3744   0.3911   0.3921   0.3947   0.3981   0.3988
     0.4056   0.4173   0.4185   0.4189   0.4191   0.4218   0.4262   0.4341
     0.4353   0.4360   0.4363   0.4429   0.4508   0.4550   0.4610   0.4717
     0.4772   0.4988   0.5080   0.5104   0.5193   0.5343   0.5372   0.5611
     0.5673   0.5687   0.6075   0.6086   0.6092   0.6141   0.6176   0.6192
     0.6428   0.6432   0.6441   0.6452   0.6497   0.6508   0.6551   0.6555
     0.6956   0.7010   0.7113   0.7118   0.7207   0.7233   0.7238   0.7423
     0.7500   0.7539   0.7551   0.7577   0.7612   0.7834   0.7902   0.7923
     0.8024   0.8048   0.8092   0.8139   0.8199   0.8264   0.8435   0.8519
     0.8634   0.8666   0.8686   0.8717   0.8725   0.8776   0.8821   0.8986
     0.9007   0.9029   0.9065   0.9076   0.9091   0.9104   0.9107   0.9156
     0.9174   0.9210   0.9268   0.9274   0.9314   0.9332   0.9385   0.9455
     0.9693   0.9757   0.9759   0.9824   0.9924   1.0194   1.0197   1.0214
     1.0238   1.0257   1.0261   1.0278   1.0283   1.0363   1.0378   1.0446
     1.0506   1.0522   1.0536   1.0547   1.0592   1.0598   1.0678   1.0705
     1.0881   1.0917   1.0933   1.0977   1.0984   1.1056   1.1104   1.1146
     1.1176   1.1177   1.1196   1.1236   1.1255   1.1276   1.1327   1.1396
     1.1736   1.1777   1.1783   1.1885   1.1927   1.1943   1.1946   1.1957
     1.1978   1.2266   1.2272   1.2403   1.2426   1.2487   1.2491   1.2550
     1.2617   1.2632   1.2674   1.2725   1.2734   1.2748   1.2811   1.2846
     1.2940   1.3098   1.3131   1.3138   1.3144   1.3159   1.3162   1.3326
     1.3438   1.3498   1.3560   1.3588   1.3593   1.3704   1.3819   1.3829
     1.3831   1.3855   1.3881   1.3934   1.3967   1.3992   1.4003   1.4012
     1.4016   1.4033   1.4129   1.4137   1.4197   1.4331   1.4361   1.4385
     1.4397   1.4425   1.4476   1.4576   1.4759   1.4771   1.4790   1.4831
     1.4841   1.4860   1.4872   1.4877   1.4884   1.4901   1.4912   1.4929
     1.4958   1.5064   1.5069   1.5212   1.5275   1.5410   1.5544   1.5609
     1.5719   1.5749   1.5762   1.5767   1.5778   1.5813   1.5872   1.5980
     1.6097   1.6114   1.6125   1.6131   1.6165   1.6169   1.6176   1.6188
     1.6279   1.6294   1.6444   1.6452   1.6466   1.6476   1.6489   1.6502
     1.6506   1.6516   1.6663   1.6668   1.6674   1.6703   1.6747   1.6817
     1.6825   1.6831   1.6839   1.6845   1.6928   1.6952   1.6972   1.7097
     1.7140   1.7253   1.7270   1.7272   1.7338   1.7357   1.7493   1.7552
     1.7559   1.7593   1.7613   1.7643   1.7712   1.7784   1.7871   1.7874
     1.7916   1.7950   1.7954   1.8064   1.8069   1.8074   1.8085   1.8091
     1.8107   1.8119   1.8162   1.8202   1.8211   1.8221   1.8376   1.8380
     1.8388   1.8402   1.8434   1.8498   1.8527   1.8532   1.8711   1.8902
     1.8918   1.9068   1.9277   1.9288   1.9352   1.9365   1.9511   1.9539
     1.9547   1.9596   1.9623   1.9797   1.9960   2.0007   2.0040   2.0047
     2.0060   2.0149   2.0151   2.0173   2.0766   2.2710   2.3267   2.4619
     2.4818   2.5022   2.5267   2.5681   2.5786   2.5794   2.5801   2.5897
     2.5983   2.6015   2.6155   2.7362   2.7776   2.7956   2.8394   2.8402
     2.8484   2.8494   2.8555   2.9588   3.0891   3.0936   3.1084   3.1250
     3.4696   3.5023   3.5225   3.8778   3.8921   3.9094   4.1708   4.1892
     4.2131   4.2195   4.2267   4.2419   4.2908   4.3092   4.3329   4.3384
     4.3716   4.3773   4.3781   4.3817   4.3875   4.3972   4.5339   4.6196
     4.6202   4.6312   4.7093   4.9098   4.9937   5.1355   5.2931   5.3447
     5.6682   5.7253   5.7649   5.7777   5.9347   6.0308   6.0673   6.0782
     6.1039   6.2774   6.3023   6.3860   6.7024   6.7192   6.7305   6.7794
     6.8369   6.8402   6.8534   6.8640   6.9410   6.9826   7.0396   7.0611
     7.0905   7.1362   7.1446   7.1528   7.1910   7.3669   7.3990   7.4256
     7.4486   7.4677   7.4921   7.6396   7.7200   7.7265   7.7358   7.8700
     7.8815   7.9095   7.9720   8.0430   8.0579   8.0673   8.0757   8.2569
     8.4238   8.4319   8.4955   8.5245   8.5656   8.6471   8.6574   8.7056
     8.7067   8.7088   8.7452   8.7664   8.7758   8.8144   8.8827   8.9239
     8.9397   9.0140   9.0189   9.0247   9.0306   9.0941   9.1291   9.1983
     9.2002   9.2028   9.2061   9.2158   9.2255   9.3936   9.4163   9.4424
     9.4520   9.4612   9.4878   9.5455   9.6658   9.6906   9.7118   9.7384
     9.7632   9.8184   9.9470   9.9496   9.9961  10.0319  10.1537  10.3047

          k = 0.0000-0.2165 0.0000 (256176 PWs)   bands (ev):

   -15.9340 -15.8434 -15.1512 -15.1367 -13.9907 -13.9738 -13.9710 -13.8424
   -13.7378 -13.6542 -13.3232 -13.2196 -13.1959 -13.1073 -12.0515 -11.8035
   -11.7720 -11.7349 -11.6446 -11.5283 -10.2048  -9.8812  -9.8511  -9.8381
    -8.8963  -8.6005  -8.5642  -8.4859  -8.4430  -8.4276  -7.8077  -7.6797
    -7.6454  -7.6303  -6.8413  -6.5212  -6.4363  -6.4236  -6.3956  -6.3625
    -6.2599  -6.1944  -5.6954  -5.5218  -5.5118  -5.5075  -5.2023  -4.7995
    -4.6786  -4.6645  -4.6184  -4.5633  -4.4710  -4.4684  -4.3205  -4.1579
    -4.1243  -4.0836  -4.0212  -3.9771  -3.7940  -3.6447  -3.5241  -3.2149
    -3.1179  -2.9368  -2.9360  -2.9345  -2.9250  -2.8583  -2.7529  -2.7097
    -2.7025  -2.6663  -2.6658  -2.6522  -2.5475  -2.5323  -2.5151  -2.4978
    -2.3968  -2.3843  -2.3623  -2.2977  -2.2534  -2.2209  -2.2165  -2.2103
    -2.2089  -2.2066  -2.2052  -2.1483  -2.1097  -2.0336  -1.9712  -1.9200
    -1.8915  -1.8838  -1.8770  -1.8746  -1.8360  -1.8103  -1.7823  -1.7777
    -1.7713  -1.7688  -1.6585  -1.6150  -1.6150  -1.5902  -1.5888  -1.5860
    -1.5334  -1.5209  -1.4960  -1.4806  -1.3978  -1.3947  -1.3844  -1.3787
    -1.3781  -1.3703  -1.3703  -1.3524  -1.3475  -1.3288  -1.2861  -1.2762
    -1.2750  -1.2699  -1.1723  -1.1118  -1.1008  -1.0999  -1.0930  -1.0841
    -1.0122  -1.0065  -0.9993  -0.9988  -0.9448  -0.9426  -0.9113  -0.9069
    -0.9025  -0.9018  -0.9017  -0.8963  -0.8912  -0.8787  -0.8656  -0.8601
    -0.8586  -0.8557  -0.8526  -0.8509  -0.8480  -0.8404  -0.8318  -0.7701
    -0.7654  -0.7651  -0.7556  -0.7352  -0.7158  -0.7155  -0.6774  -0.6773
    -0.6743  -0.6740  -0.6370  -0.6354  -0.6229  -0.6134  -0.6126  -0.6090
    -0.6070  -0.6050  -0.6010  -0.5566  -0.5537  -0.5512  -0.5466  -0.5454
    -0.5391  -0.5390  -0.5251  -0.5250  -0.5144  -0.4970  -0.4590  -0.4562
    -0.4469  -0.4466  -0.4411  -0.4338  -0.4258  -0.4247  -0.4156  -0.4076
    -0.3999  -0.3944  -0.3822  -0.3814  -0.3764  -0.3618  -0.2846  -0.2842
    -0.2777  -0.2767  -0.2597  -0.2593  -0.2350  -0.2333  -0.2321  -0.2316
    -0.2279  -0.2278  -0.2051  -0.2032  -0.1716  -0.1699  -0.1697  -0.1676
    -0.1657  -0.1642  -0.1636  -0.1613  -0.1326  -0.1316  -0.1161  -0.1126
    -0.1126  -0.1122  -0.0773  -0.0763  -0.0753  -0.0734  -0.0657  -0.0648
    -0.0603  -0.0599  -0.0524  -0.0211   0.0111   0.0114   0.0191   0.0197
     0.0324   0.0465   0.0541   0.0691   0.0694   0.0738   0.0763   0.0778
     0.0869   0.0979   0.1020   0.1024   0.1049   0.1055   0.1109   0.1211
     0.1220   0.1253   0.1275   0.1289   0.1291   0.1317   0.1368   0.1388
     0.1457   0.1644   0.1656   0.1665   0.1689   0.1693   0.2297   0.2301
     0.2311   0.2321   0.2379   0.2396   0.2408   0.2440   0.2546   0.2577
     0.2705   0.2795   0.2825   0.2838   0.2859   0.2869   0.2933   0.2942
     0.2961   0.2963   0.2977   0.2989   0.3019   0.3219   0.3543   0.3550
     0.3559   0.3564   0.3630   0.3711   0.3778   0.3781   0.3819   0.3881
     0.3891   0.3989   0.3996   0.4009   0.4067   0.4095   0.4131   0.4310
     0.4332   0.4467   0.4470   0.4485   0.4490   0.4658   0.4679   0.4839
     0.4844   0.4917   0.4939   0.5032   0.5041   0.5062   0.5069   0.5487
     0.5493   0.5511   0.5581   0.5615   0.5673   0.5707   0.5756   0.5760
     0.5993   0.6013   0.6312   0.6327   0.6384   0.6422   0.6682   0.6802
     0.6953   0.7118   0.7548   0.7554   0.7581   0.7609   0.7728   0.7769
     0.7829   0.7843   0.7854   0.7903   0.8091   0.8214   0.8234   0.8254
     0.8268   0.8285   0.8315   0.8325   0.8347   0.8414   0.8443   0.8486
     0.8500   0.8528   0.8551   0.8569   0.8612   0.8761   0.8815   0.8869
     0.8893   0.8974   0.8980   0.8988   0.8990   0.9057   0.9057   0.9262
     0.9276   0.9286   0.9297   0.9311   0.9317   0.9328   0.9339   0.9512
     0.9513   0.9530   0.9538   0.9547   0.9557   0.9601   0.9633   0.9697
     0.9766   0.9995   1.0134   1.0193   1.0244   1.0287   1.0294   1.0379
     1.0399   1.0407   1.0439   1.0448   1.0487   1.0501   1.0506   1.0524
     1.0528   1.0646   1.0677   1.0922   1.0966   1.0972   1.0983   1.1057
     1.1141   1.1144   1.1149   1.1197   1.1280   1.1291   1.1342   1.1456
     1.1475   1.1493   1.1534   1.1545   1.1675   1.2054   1.2071   1.2545
     1.2583   1.2626   1.2661   1.2664   1.2698   1.2748   1.2769   1.2813
     1.2834   1.2885   1.2890   1.2923   1.2972   1.2975   1.3024   1.3053
     1.3098   1.3110   1.3123   1.3138   1.3156   1.3242   1.3282   1.3358
     1.3359   1.3391   1.3397   1.3419   1.3423   1.3436   1.3472   1.3500
     1.3566   1.3584   1.3588   1.3632   1.3637   1.3691   1.3692   1.3829
     1.3840   1.3908   1.3983   1.4001   1.4028   1.4039   1.4063   1.4102
     1.4109   1.4113   1.4114   1.4122   1.4148   1.4567   1.4625   1.4950
     1.5001   1.5004   1.5051   1.5107   1.5161   1.5255   1.5262   1.5323
     1.5413   1.5431   1.5495   1.5550   1.5578   1.5606   1.5637   1.5661
     1.5676   1.5699   1.5706   1.5725   1.5740   1.5747   1.5749   1.5766
     1.5821   1.5833   1.5838   1.5930   1.5977   1.6019   1.6035   1.6049
     1.6102   1.6119   1.6158   1.6353   1.6408   1.6411   1.6424   1.6470
     1.6482   1.6490   1.6498   1.6688   1.6704   1.6720   1.6766   1.6826
     1.6832   1.6850   1.6861   1.6885   1.6919   1.7026   1.7035   1.7043
     1.7058   1.7221   1.7224   1.7251   1.7327   1.7417   1.7421   1.7510
     1.7513   1.7529   1.7561   1.7648   1.7651   1.7661   1.7682   1.7836
     1.7838   1.7970   1.7978   1.7984   1.7993   1.8173   1.8183   1.8194
     1.8205   1.8218   1.8219   1.8240   1.8242   1.8491   1.8502   1.8519
     1.8586   1.8621   1.8676   1.8733   1.8841   1.8901   1.8905   1.8910
     1.8944   1.8991   1.9062   1.9116   1.9172   1.9366   1.9580   1.9585
     1.9680   1.9949   2.0619   2.0657   2.0821   2.1042   2.1097   2.1123
     2.1236   2.1449   2.1618   2.1630   2.1660   2.1767   2.1853   2.1872
     2.1883   2.2234   2.2246   2.2493   2.5566   2.5998   2.7829   2.7872
     2.7894   2.7905   2.8670   2.8686   2.8811   2.9308   2.9353   2.9389
     2.9443   2.9543   3.0456   3.0776   3.0850   3.1258   3.1316   3.1471
     3.1574   3.2938   3.2947   3.5313   3.5313   3.5450   3.5998   3.6673
     3.7441   3.8778   4.0389   4.0595   4.3603   4.3834   4.4427   4.4510
     4.4936   4.5184   4.6859   4.6916   4.6997   4.7027   4.8436   4.8663
     4.8710   5.0343   5.0582   5.1087   5.1248   5.3969   5.4697   5.4769
     5.5057   5.6580   5.7266   5.7305   5.7315   5.7506   5.7870   5.8175
     6.0318   6.0495   6.1681   6.1844   6.7177   6.7355   6.7576   6.7783
     6.7810   6.7925   6.8811   6.8948   6.9381   7.0080   7.0346   7.0485
     7.1511   7.1666   7.2916   7.3952   7.4098   7.4222   7.4386   7.4447
     7.4569   7.4662   7.4846   7.4923   7.4942   7.5787   7.6982   7.7139
     7.7777   7.7981   7.8549   7.8818   8.0162   8.0311   8.0621   8.1511
     8.2636   8.2947   8.4119   8.5069   8.5083   8.6601   8.7234   8.7336
     8.7578   8.7597   8.7746   8.7866   8.8522   8.8564   8.9545   9.0531
     9.0711   9.0781   9.0812   9.0864   9.0886   9.1183   9.1284   9.1646
     9.2087   9.2896   9.3466   9.3850   9.4857   9.5080   9.5452   9.5696
     9.7114   9.7289   9.7506   9.7573   9.7777   9.7830   9.8146   9.8194
     9.8208   9.8372   9.8673   9.9017   9.9902  10.0300  10.1071  10.1279

          k = 0.2500 0.0000 0.0000 (256240 PWs)   bands (ev):

   -15.8653 -15.5100 -15.4507 -14.8812 -14.5289 -14.4886 -14.4056 -14.3622
   -13.4824 -13.4011 -12.9556 -12.7150 -12.6156 -12.5649 -12.5222 -11.8331
   -11.6286 -11.5439 -11.5176 -10.7311 -10.3581 -10.2982 -10.1620  -9.8146
    -9.5175  -9.3586  -9.2177  -8.8439  -8.6952  -8.5933  -8.1580  -7.4252
    -7.0765  -7.0343  -7.0136  -6.9649  -6.8756  -6.3976  -6.2311  -5.9962
    -5.6346  -5.4694  -5.4628  -5.4188  -5.3152  -4.9701  -4.9451  -4.9317
    -4.6209  -4.5743  -4.5267  -4.2079  -4.1331  -4.0974  -4.0812  -4.0661
    -3.9643  -3.8566  -3.7769  -3.7273  -3.6330  -3.6285  -3.6122  -3.5368
    -3.4732  -3.4702  -3.3915  -3.2693  -3.1347  -3.1009  -3.0784  -3.0592
    -3.0507  -2.9859  -2.9543  -2.8984  -2.8819  -2.7892  -2.7472  -2.7035
    -2.6658  -2.6293  -2.5871  -2.4893  -2.4298  -2.4289  -2.3824  -2.2940
    -2.2615  -2.2433  -2.1313  -2.0304  -1.9964  -1.9696  -1.9475  -1.8111
    -1.7366  -1.7290  -1.7177  -1.7123  -1.7073  -1.6376  -1.6338  -1.6159
    -1.5331  -1.5266  -1.4771  -1.4598  -1.4342  -1.4299  -1.4282  -1.4219
    -1.4211  -1.4025  -1.4003  -1.3731  -1.3547  -1.3440  -1.3256  -1.2834
    -1.2718  -1.2643  -1.2312  -1.2206  -1.2115  -1.2083  -1.2078  -1.2075
    -1.1933  -1.1738  -1.1515  -1.1442  -1.1319  -1.1292  -1.1194  -1.1165
    -1.0442  -1.0009  -0.9655  -0.9623  -0.9402  -0.9282  -0.9013  -0.8950
    -0.8730  -0.8721  -0.8705  -0.8646  -0.8492  -0.8414  -0.8354  -0.8312
    -0.8124  -0.8097  -0.8081  -0.7936  -0.7901  -0.7634  -0.7630  -0.7604
    -0.7571  -0.7416  -0.7396  -0.7387  -0.7307  -0.7082  -0.6992  -0.6849
    -0.6793  -0.6778  -0.6654  -0.6566  -0.6480  -0.6444  -0.6408  -0.6337
    -0.6300  -0.6229  -0.6190  -0.6112  -0.6104  -0.6085  -0.6069  -0.6044
    -0.6032  -0.5947  -0.5884  -0.5743  -0.5694  -0.5668  -0.5539  -0.5323
    -0.5282  -0.5245  -0.4856  -0.4817  -0.4794  -0.4438  -0.4432  -0.4245
    -0.4219  -0.4169  -0.4042  -0.3985  -0.3937  -0.3836  -0.3823  -0.3767
    -0.3758  -0.3702  -0.3663  -0.3511  -0.3083  -0.2376  -0.2300  -0.2282
    -0.2263  -0.1984  -0.1961  -0.1946  -0.1859  -0.1788  -0.1768  -0.1764
    -0.1758  -0.1558  -0.1551  -0.1533  -0.1474  -0.1337  -0.1276  -0.1141
    -0.1135  -0.1109  -0.1105  -0.1091  -0.0883  -0.0882  -0.0844  -0.0604
    -0.0300  -0.0269  -0.0267  -0.0254  -0.0193  -0.0156  -0.0086  -0.0041
     0.0031   0.0150   0.0154   0.0375   0.0384   0.0393   0.0442   0.0755
     0.0767   0.0796   0.0816   0.0894   0.0897   0.0993   0.1028   0.1056
     0.1135   0.1204   0.1298   0.1396   0.1415   0.1493   0.1683   0.1730
     0.1735   0.1758   0.1819   0.1895   0.1903   0.1915   0.1923   0.1982
     0.2199   0.2201   0.2313   0.2344   0.2505   0.2586   0.2604   0.2613
     0.2825   0.3039   0.3074   0.3084   0.3132   0.3166   0.3286   0.3321
     0.3435   0.3520   0.3532   0.3594   0.3607   0.3659   0.3719   0.3750
     0.3771   0.3779   0.3792   0.3806   0.3818   0.3849   0.3956   0.4042
     0.4053   0.4073   0.4113   0.4137   0.4288   0.4308   0.4368   0.4478
     0.4501   0.4686   0.4855   0.4863   0.4889   0.4893   0.4918   0.5064
     0.5095   0.5117   0.5127   0.5133   0.5152   0.5411   0.5495   0.5668
     0.5991   0.6225   0.6250   0.6258   0.6304   0.6413   0.6439   0.6458
     0.6468   0.6478   0.6546   0.6560   0.6585   0.6611   0.6623   0.6663
     0.6693   0.6785   0.6791   0.6823   0.6855   0.6931   0.6946   0.6988
     0.7032   0.7062   0.7088   0.7254   0.7279   0.7373   0.7415   0.7470
     0.7774   0.7785   0.7944   0.7954   0.8062   0.8135   0.8141   0.8149
     0.8183   0.8306   0.8349   0.8464   0.8489   0.8520   0.8576   0.8583
     0.8605   0.8621   0.8670   0.8693   0.8709   0.8886   0.8957   0.8993
     0.9117   0.9167   0.9187   0.9208   0.9227   0.9235   0.9267   0.9281
     0.9449   0.9504   0.9520   0.9577   0.9630   0.9659   0.9671   0.9699
     0.9762   0.9799   0.9816   0.9882   0.9904   0.9937   1.0079   1.0102
     1.0130   1.0295   1.0329   1.0357   1.0378   1.0415   1.0439   1.0514
     1.0689   1.0759   1.0855   1.0949   1.0999   1.1126   1.1134   1.1168
     1.1190   1.1233   1.1378   1.1423   1.1462   1.1469   1.1507   1.1558
     1.1653   1.1706   1.1758   1.1861   1.1870   1.1951   1.1966   1.2017
     1.2137   1.2264   1.2276   1.2289   1.2301   1.2414   1.2521   1.2537
     1.2621   1.2641   1.2649   1.2660   1.2712   1.2750   1.2756   1.2803
     1.2854   1.3171   1.3205   1.3234   1.3265   1.3276   1.3392   1.3416
     1.3450   1.3586   1.3595   1.3617   1.3653   1.3656   1.3718   1.3742
     1.3775   1.3874   1.3881   1.3903   1.3909   1.3930   1.3939   1.3956
     1.3972   1.4003   1.4039   1.4047   1.4078   1.4145   1.4192   1.4254
     1.4316   1.4333   1.4381   1.4390   1.4464   1.4474   1.4492   1.4614
     1.4625   1.4642   1.4761   1.4783   1.4788   1.4817   1.4825   1.4904
     1.4973   1.5049   1.5076   1.5134   1.5192   1.5245   1.5270   1.5298
     1.5396   1.5415   1.5537   1.5575   1.5603   1.5644   1.5672   1.5790
     1.6004   1.6052   1.6111   1.6163   1.6176   1.6223   1.6243   1.6257
     1.6268   1.6301   1.6345   1.6369   1.6475   1.6513   1.6514   1.6568
     1.6643   1.6701   1.6714   1.6728   1.6732   1.6771   1.6826   1.6849
     1.6854   1.6883   1.6897   1.6950   1.6955   1.7020   1.7033   1.7063
     1.7130   1.7203   1.7243   1.7260   1.7291   1.7295   1.7314   1.7346
     1.7498   1.7514   1.7525   1.7559   1.7739   1.7749   1.7831   1.7859
     1.7915   1.7947   1.7950   1.7969   1.7987   1.7992   1.8040   1.8059
     1.8067   1.8076   1.8116   1.8156   1.8226   1.8350   1.8355   1.8368
     1.8393   1.8407   1.8414   1.8461   1.8544   1.8546   1.8652   1.8667
     1.8754   1.8782   1.8799   1.8876   1.8890   1.8955   1.9148   1.9181
     1.9262   1.9392   1.9531   1.9814   1.9949   1.9953   1.9997   2.0152
     2.0364   2.0920   2.1283   2.1327   2.1340   2.1385   2.1529   2.1730
     2.2075   2.3551   2.4009   2.4300   2.4398   2.4522   2.4587   2.4941
     2.5478   2.6016   2.6241   2.6973   2.9305   2.9338   2.9369   2.9547
     3.3455   3.3463   3.3736   3.5593   3.5629   3.5870   3.5878   3.5974
     3.6494   3.7572   3.8349   3.8791   3.9502   3.9820   4.0016   4.0233
     4.0727   4.0843   4.0907   4.1202   4.1514   4.2410   4.2612   4.3407
     4.3726   4.4842   4.5372   4.5755   4.5892   4.6482   4.7532   4.8723
     5.0946   5.1468   5.1937   5.2360   5.4481   5.5440   5.5881   5.5924
     5.6012   5.7206   5.7436   5.8325   5.8488   5.8718   5.9291   5.9402
     5.9661   6.0276   6.0393   6.0764   6.1038   6.1415   6.1788   6.2194
     6.3506   6.3778   6.3842   6.4073   6.4741   6.8203   6.9826   7.0567
     7.0639   7.0955   7.1166   7.1621   7.2140   7.2279   7.2765   7.3750
     7.3917   7.3955   7.4034   7.4332   7.5041   7.6218   7.6400   7.6853
     7.7335   7.7670   7.8271   7.8539   7.9042   7.9218   7.9242   8.0051
     8.0847   8.0975   8.1231   8.1917   8.3611   8.3763   8.4177   8.4297
     8.5060   8.5777   8.6021   8.6121   8.6304   8.6411   8.6772   8.6777
     8.7224   8.7724   8.7959   8.8690   9.0033   9.0091   9.0941   9.1226
     9.2457   9.2816   9.3416   9.3667   9.3681   9.3832   9.4351   9.4855
     9.4997   9.5265   9.5432   9.5594   9.5651   9.5804   9.6218   9.6506
     9.7400   9.7752   9.8324   9.8411   9.8880   9.9740  10.0257  10.0794

          k = 0.2500-0.2165 0.0000 (256316 PWs)   bands (ev):

   -15.8099 -15.7203 -15.0293 -15.0155 -14.8235 -14.7436 -14.0694 -14.0500
   -13.6237 -13.5334 -12.8997 -12.8892 -12.6577 -12.5832 -12.1771 -12.1463
   -11.5994 -11.4405 -11.0002 -10.8211 -10.6250 -10.5568 -10.2624 -10.1597
    -9.2728  -9.1424  -8.8030  -8.6209  -8.5934  -8.4541  -8.0778  -7.9501
    -7.9295  -7.8341  -6.6928  -6.2540  -6.1826  -6.1421  -6.0809  -5.9685
    -5.8451  -5.6716  -5.5608  -5.4460  -5.3392  -5.3326  -5.0808  -4.6559
    -4.6302  -4.4563  -4.3949  -4.3086  -4.3029  -4.2512  -4.1893  -3.9813
    -3.9785  -3.9664  -3.8872  -3.7598  -3.6758  -3.6435  -3.5424  -3.4982
    -3.4472  -3.3746  -3.3146  -3.2156  -3.1626  -3.1142  -3.0943  -3.0900
    -3.0645  -3.0499  -2.9622  -2.7960  -2.7152  -2.6797  -2.6268  -2.6056
    -2.5831  -2.5567  -2.5497  -2.5397  -2.5323  -2.4260  -2.3764  -2.2989
    -2.2825  -2.1587  -2.0509  -2.0099  -1.9467  -1.9416  -1.8976  -1.8394
    -1.8261  -1.7995  -1.7979  -1.7975  -1.7529  -1.6394  -1.6391  -1.6138
    -1.6015  -1.5820  -1.5328  -1.4928  -1.4570  -1.4423  -1.4415  -1.4186
    -1.3858  -1.3797  -1.3619  -1.3488  -1.3396  -1.3359  -1.3292  -1.3138
    -1.3095  -1.3081  -1.3055  -1.3039  -1.2964  -1.2953  -1.2908  -1.2703
    -1.2124  -1.2065  -1.1640  -1.0974  -1.0965  -1.0644  -0.9916  -0.9840
    -0.9613  -0.9582  -0.9562  -0.9210  -0.9055  -0.9040  -0.8971  -0.8903
    -0.8902  -0.8779  -0.8774  -0.8641  -0.8614  -0.8546  -0.8523  -0.8427
    -0.8396  -0.8367  -0.8301  -0.8236  -0.8177  -0.8169  -0.8104  -0.8053
    -0.7612  -0.7587  -0.7546  -0.7501  -0.7488  -0.7409  -0.7407  -0.7122
    -0.7101  -0.6953  -0.6770  -0.6687  -0.6680  -0.6582  -0.6557  -0.6537
    -0.6367  -0.6234  -0.6233  -0.6053  -0.6010  -0.5901  -0.5894  -0.5851
    -0.5839  -0.5769  -0.5746  -0.5550  -0.5530  -0.5509  -0.5287  -0.5156
    -0.4981  -0.4914  -0.4897  -0.4894  -0.4193  -0.4093  -0.4060  -0.4041
    -0.3999  -0.3985  -0.3969  -0.3531  -0.3504  -0.3417  -0.3408  -0.3369
    -0.3333  -0.3301  -0.3248  -0.3212  -0.2899  -0.2828  -0.2758  -0.2577
    -0.2422  -0.2406  -0.2246  -0.1960  -0.1930  -0.1913  -0.1909  -0.1758
    -0.1628  -0.1618  -0.1532  -0.1460  -0.1381  -0.1301  -0.1285  -0.1201
    -0.1153  -0.1025  -0.0872  -0.0805  -0.0731  -0.0664  -0.0653  -0.0439
    -0.0366  -0.0364  -0.0237  -0.0221  -0.0175  -0.0046   0.0012   0.0027
     0.0061   0.0077   0.0094   0.0135   0.0164   0.0195   0.0216   0.0357
     0.0396   0.0533   0.0545   0.0591   0.0791   0.0825   0.0957   0.0980
     0.1109   0.1130   0.1258   0.1321   0.1325   0.1393   0.1533   0.1538
     0.1553   0.1606   0.1640   0.1864   0.2027   0.2178   0.2185   0.2538
     0.2548   0.2630   0.2632   0.2659   0.2677   0.2840   0.2842   0.2917
     0.2999   0.3024   0.3055   0.3192   0.3203   0.3252   0.3275   0.3295
     0.3310   0.3331   0.3398   0.3554   0.3585   0.3604   0.3678   0.3687
     0.3699   0.3701   0.3744   0.3746   0.3791   0.3817   0.3882   0.4020
     0.4025   0.4028   0.4031   0.4215   0.4366   0.4377   0.4453   0.4466
     0.4531   0.4627   0.4722   0.4744   0.4911   0.5021   0.5028   0.5114
     0.5146   0.5211   0.5221   0.5253   0.5288   0.5337   0.5400   0.5443
     0.5476   0.5542   0.5754   0.5797   0.6129   0.6373   0.6418   0.6521
     0.6529   0.6537   0.6549   0.6573   0.6587   0.6627   0.6652   0.6672
[...]
     smearing contrib. (-TS)   =      -3.35004487 Ry

     total magnetization       =     0.00 Bohr mag/cell
     absolute magnetization    =     0.00 Bohr mag/cell

     convergence has been achieved in  45 iterations

     negative rho (up, down):  9.487E-04 9.487E-04

     Forces acting on atoms (Ry/au):

     atom    1 type  1   force =    -0.00000273   -0.00004198    0.00006906
     atom    2 type  1   force =     0.00001226    0.00003262    0.00012006
     atom    3 type  1   force =     0.00002298    0.00000494    0.00010667
     atom    4 type  1   force =     0.00001009    0.00004273    0.00011414
     atom    5 type  1   force =     0.00000677    0.00006247    0.00014215
     atom    6 type  1   force =     0.00001433    0.00001017    0.00013124
     atom    7 type  1   force =     0.00001632    0.00005508    0.00013292
     atom    8 type  1   force =     0.00001017    0.00000918    0.00009959
     atom    9 type  1   force =     0.00001997   -0.00003167    0.00009530
     atom   10 type  1   force =     0.00000620   -0.00005023    0.00008379
     atom   11 type  1   force =    -0.00000004   -0.00003106    0.00006678
     atom   12 type  1   force =     0.00001687   -0.00005076    0.00005269
     atom   13 type  1   force =     0.00001212   -0.00005792    0.00008485
     atom   14 type  1   force =     0.00000437   -0.00003111    0.00007942
     atom   15 type  1   force =     0.00001294   -0.00006086    0.00007695
     atom   16 type  1   force =     0.00001929   -0.00006935    0.00010787
     atom   17 type  1   force =    -0.00000203   -0.00003820    0.00009682
     atom   18 type  1   force =     0.00001517   -0.00006842    0.00006731
     atom   19 type  1   force =     0.00002370   -0.00007723    0.00012910
     atom   20 type  1   force =     0.00000506   -0.00004059    0.00011906
     atom   21 type  1   force =     0.00000106    0.00003286    0.00015594
     atom   22 type  1   force =     0.00002728   -0.00001989    0.00010010
     atom   23 type  1   force =     0.00002045    0.00004496    0.00015955
     atom   24 type  1   force =     0.00000826    0.00000758    0.00011681
     atom   25 type  1   force =    -0.00001515    0.00004981    0.00018738
     atom   26 type  1   force =     0.00001300    0.00005638    0.00017349
     atom   27 type  1   force =     0.00003935    0.00007265    0.00026368
     atom   28 type  1   force =     0.00000678    0.00008515    0.00020693
     atom   29 type  1   force =     0.00000269   -0.00004007    0.00015213
     atom   30 type  1   force =     0.00001662    0.00002335    0.00020876
     atom   31 type  1   force =     0.00001260   -0.00006555    0.00021910
     atom   32 type  1   force =    -0.00002010    0.00000786    0.00016662
     atom   33 type  1   force =     0.00001266   -0.00008584    0.00017267
     atom   34 type  1   force =     0.00001032   -0.00008625    0.00015596
     atom   35 type  1   force =     0.00002366   -0.00010589    0.00022541
     atom   36 type  1   force =     0.00001551   -0.00012056    0.00022729
     atom   37 type  1   force =     0.00000764   -0.00005561    0.00008975
     atom   38 type  1   force =     0.00002006   -0.00005225    0.00014217
     atom   39 type  1   force =     0.00003286   -0.00003144    0.00008262
     atom   40 type  1   force =     0.00002133   -0.00006165    0.00014228
     atom   41 type  1   force =    -0.00000124   -0.00004682   -0.00001268
     atom   42 type  1   force =     0.00001881    0.00009232    0.00014265
     atom   43 type  1   force =     0.00003722   -0.00005671    0.00002303
     atom   44 type  1   force =    -0.00003486   -0.00001002    0.00006386
     atom   45 type  1   force =    -0.00001961    0.00007696    0.00009802
     atom   46 type  1   force =    -0.00001690    0.00002808    0.00002182
     atom   47 type  1   force =    -0.00003820   -0.00004834   -0.00002706
     atom   48 type  1   force =     0.00007703    0.00004796    0.00022005
     atom   49 type  1   force =    -0.00005142    0.00000765   -0.00001438
     atom   50 type  1   force =    -0.00006475   -0.00003400    0.00008989
     atom   51 type  1   force =    -0.00003917    0.00001864    0.00024508
     atom   52 type  1   force =     0.00003860   -0.00004688    0.00023245
     atom   53 type  1   force =    -0.00000825   -0.00013284    0.00019515
     atom   54 type  1   force =     0.00002991   -0.00012682    0.00014767
     atom   55 type  1   force =    -0.00001864   -0.00001843    0.00011269
     atom   56 type  1   force =    -0.00000089   -0.00002132    0.00010072
     atom   57 type  1   force =     0.00003915   -0.00002730    0.00002188
     atom   58 type  1   force =     0.00001911   -0.00000398    0.00002527
     atom   59 type  1   force =     0.00001961    0.00003146    0.00002903
     atom   60 type  1   force =     0.00004236   -0.00002001    0.00004697
     atom   61 type  1   force =    -0.00005275   -0.00009890   -0.00015150
     atom   62 type  1   force =    -0.00000156   -0.00003581   -0.00008256
     atom   63 type  1   force =    -0.00006153   -0.00012533   -0.00009069
     atom   64 type  1   force =    -0.00000815   -0.00001882    0.00001849
     atom   65 type  1   force =     0.00034856   -0.00003874    0.00020783
     atom   66 type  1   force =    -0.00008861    0.00035810    0.00037879
     atom   67 type  1   force =    -0.00005128   -0.00012290   -0.00039418
     atom   68 type  1   force =    -0.00016384   -0.00008485   -0.00010125
     atom   69 type  1   force =     0.00001488   -0.00004801    0.00028557
     atom   70 type  1   force =    -0.00003922   -0.00019570   -0.00064207
     atom   71 type  1   force =    -0.00010359    0.00005964   -0.00018055
     atom   72 type  1   force =     0.00016293   -0.00011573    0.00016730
     atom   73 type  1   force =     0.00000210    0.00000029   -0.00005344
     atom   74 type  1   force =    -0.00013452   -0.00037735    0.00043041
     atom   75 type  1   force =    -0.00004361    0.00006008   -0.00008382
     atom   76 type  1   force =    -0.00004982    0.00003524    0.00005555
     atom   77 type  1   force =     0.00002554    0.00001364   -0.00002775
     atom   78 type  1   force =     0.00000711    0.00003504   -0.00005404
     atom   79 type  1   force =     0.00001981   -0.00002009    0.00000303
     atom   80 type  1   force =     0.00003136    0.00003840   -0.00003832
     atom   81 type  1   force =    -0.00003826    0.00003581   -0.00010139
     atom   82 type  1   force =     0.00000328    0.00002934   -0.00029301
     atom   83 type  1   force =    -0.00000358   -0.00006426   -0.00022695
     atom   84 type  1   force =    -0.00008365   -0.00001769   -0.00000986
     atom   85 type  1   force =    -0.00051301   -0.00037200   -0.00055785
     atom   86 type  1   force =     0.00184038    0.00166597    0.00944552
     atom   87 type  1   force =     0.00034376   -0.00060618   -0.00102079
     atom   88 type  1   force =     0.00072971   -0.00028662   -0.00105390
     atom   89 type  1   force =     0.00206825   -0.00023281    0.00207642
     atom   90 type  1   force =     0.00046122   -0.00199962    0.00142883
     atom   91 type  1   force =    -0.00003785   -0.00032599    0.00272612
     atom   92 type  1   force =    -0.00012347   -0.00009601   -0.00085175
     atom   93 type  1   force =    -0.00011913    0.00001636   -0.00002956
     atom   94 type  1   force =    -0.00005817   -0.00002670   -0.00028906
     atom   95 type  1   force =    -0.00008096    0.00043033   -0.00067886
     atom   96 type  1   force =    -0.00005191   -0.00003489   -0.00021690
     atom   97 type  1   force =     0.00001610    0.00000266   -0.00022083
     atom   98 type  1   force =     0.00001982    0.00003372   -0.00013886
     atom   99 type  1   force =    -0.00002789   -0.00008458   -0.00019516
     atom  100 type  1   force =    -0.00001284   -0.00001168   -0.00011662
     atom  101 type  2   force =     0.00007962   -0.00022263    0.00143668
     atom  102 type  2   force =    -0.00079623    0.00013292   -0.00160119
     atom  103 type  2   force =     0.00076264   -0.00003860   -0.00028377
     atom  104 type  2   force =     0.00036288   -0.00382423   -0.00955453
     atom  105 type  2   force =    -0.00011013   -0.00146672    0.00009912
     atom  106 type  2   force =     0.00112331    0.00327001    0.00125361
     atom  107 type  2   force =    -0.00012694    0.00036764   -0.00014838
     atom  108 type  2   force =     0.00104398   -0.00950669   -0.00822378
     atom  109 type  2   force =     0.00003876   -0.00028556    0.00117869
     atom  110 type  2   force =    -0.00022219    0.00044007    0.00026702
     atom  111 type  2   force =     0.00009099    0.00008491    0.00003907
     atom  112 type  2   force =    -0.00052526   -0.00301749   -0.00160570
     atom  113 type  2   force =    -0.01347697   -0.00749347    0.01085790
     atom  114 type  2   force =     0.02372112    0.00750589   -0.00796135
     atom  115 type  2   force =     0.01882407    0.01201433   -0.00230930
     atom  116 type  2   force =     0.00879800    0.01974451    0.06288690
     atom  117 type  2   force =     0.01960471    0.00121352    0.05822379
     atom  118 type  2   force =    -0.12313795   -0.06876100   -0.26503856
     atom  119 type  3   force =    -0.10762158   -0.05976046    0.15997060
     atom  120 type  2   force =    -0.02468425    0.01153893   -0.00664547
     atom  121 type  2   force =     0.14135700    0.08280562   -0.23418227
     atom  122 type  3   force =     0.10276878    0.05521462    0.15101531
     atom  123 type  2   force =     0.00544479    0.00588626    0.00251926
     atom  124 type  2   force =    -0.04315984    0.00798413    0.04840759
     atom  125 type  2   force =     0.00616958    0.00379519   -0.00180196
     atom  126 type  2   force =    -0.00980748    0.00454840   -0.01256963
     atom  127 type  2   force =    -0.00626209    0.00568310   -0.00850604
     atom  128 type  2   force =    -0.00047720   -0.00094382    0.00051749
     atom  129 type  2   force =    -0.00465661   -0.02834487   -0.00546713
     atom  130 type  2   force =     0.00007423    0.00144003   -0.00114505
     atom  131 type  2   force =     0.01097535    0.00434492    0.00435759
     atom  132 type  2   force =    -0.00009171   -0.00054721   -0.00291861
     atom  133 type  2   force =    -0.01401002   -0.03852778    0.05017055
     atom  134 type  2   force =     0.00057836    0.00027678   -0.00003537
     atom  135 type  2   force =    -0.00263141   -0.00553442   -0.00340730
     atom  136 type  2   force =    -0.00056587    0.00242901   -0.00500378
     atom  137 type  2   force =     0.00419806    0.00046109    0.00881475
     atom  138 type  2   force =     0.00016024   -0.00044272    0.00072204
     atom  139 type  2   force =    -0.00016839    0.00044939   -0.00004978
     atom  140 type  2   force =     0.00008940    0.00011325    0.00101166
     atom  141 type  2   force =     0.00006272   -0.00073637   -0.00135542
     atom  142 type  2   force =     0.00007634    0.00035269   -0.00009789
     atom  143 type  2   force =     0.00019969    0.00057407    0.00015839
     atom  144 type  2   force =     0.00026287   -0.00003279   -0.00019454
     atom  145 type  2   force =     0.00025816   -0.00005121    0.00097204
     atom  146 type  2   force =     0.00018281    0.00014958    0.00000408
     atom  147 type  2   force =     0.00024505    0.00026183    0.00000854
     atom  148 type  2   force =     0.00011859   -0.00000987    0.00001473
     atom  149 type  2   force =     0.00019620   -0.00033811   -0.00085736
     atom  150 type  2   force =     0.00000966    0.00049702   -0.00035212

     Total force =     0.519763     Total SCF correction =     0.000485

     BFGS Geometry Optimization

     number of scf cycles    =   1
     number of bfgs steps    =   0

     energy   new            =  -12700.9921628675 Ry

     new trust radius        =       0.3002273651 bohr
     new conv_thr            =       0.0000000100 Ry


ATOMIC_POSITIONS (angstrom)
Cu      -0.000177212   0.001645102   7.364165131
Cu       1.844485572   1.705752253   7.364304296
Cu       3.688924534   0.001588151   7.364195064
Cu       5.533462823   1.705652315   7.364093463
Cu       0.000074169   3.408423311   7.363340860
Cu       1.844427348   5.111256237   7.360928648
Cu       3.689011693   3.408409190   7.362522232
Cu       5.533820377   5.111235733   7.360897868
Cu       0.000163304   6.814917905   7.360052611
Cu       1.844662355   8.518510433   7.361271050
Cu       3.689090820   6.814726154   7.359903876
Cu       5.533568797   8.518464624   7.361200561
Cu      -0.000050126  10.221413863   7.363495303
Cu       1.844508366  11.924102667   7.365344126
Cu       3.689086745  10.221534722   7.363814123
Cu       5.533379750  11.924590656   7.364929297
Cu       0.000080795  13.628610424   7.364922818
Cu       1.844191560  15.334844523   7.364285125
Cu       3.688625988  13.628686959   7.364719260
Cu       5.533513176  15.334507629   7.363928519
Cu       0.000181731   1.706509374   9.197419928
Cu       1.844645222   0.001434960   9.195548380
Cu       3.689325134   1.707449552   9.197560225
Cu       5.533560058   0.001442395   9.195460097
Cu       0.000602248   5.114055749   9.196030051
Cu       1.845015041   3.411318427   9.197725367
Cu       3.689480016   5.113390326   9.195071200
Cu       5.533862640   3.411240167   9.197263261
Cu       0.000503673   8.516069491   9.195361591
Cu       1.845087396   6.814785417   9.194419267
Cu       3.689580125   8.515669292   9.195388024
Cu       5.534090185   6.814753005   9.194013116
Cu       0.000194564  11.922581555   9.197974903
Cu       1.845120334  10.218213860   9.198143297
Cu       3.689225707  11.922652141   9.198908921
Cu       5.533718069  10.218337332   9.197792695
Cu      -0.000000618  15.334621834   9.194615168
Cu       1.844581025  13.628554816   9.196174612
Cu       3.689005455  15.334459104   9.194312198
Cu       5.533558749  13.628492353   9.196075892
Cu       0.000535955  -0.000540191  11.035800258
Cu       1.845982805   1.706436023  11.037050329
Cu       3.689596063  -0.000270816  11.034770268
Cu       5.533767639   1.707126581  11.037479034
Cu       0.000892328   3.413522387  11.038635864
Cu       1.846480279   5.117918095  11.041953603
Cu       3.690369887   3.415645667  11.041706854
Cu       5.534269116   5.117921735  11.041654199
Cu       0.001062486   6.816754129  11.042435743
Cu       1.846290139   8.512302647  11.042129579
Cu       3.690715691   6.814488861  11.042554637
Cu       5.534576269   8.511962637  11.042156415
Cu       0.001159977  10.214641568  11.040739487
Cu       1.845458904  11.921656611  11.038146531
Cu       3.690284367  10.212520498  11.042336202
Cu       5.534308315  11.921186532  11.038224369
Cu       0.000394988  13.628988706  11.035338879
Cu       1.844846162  15.334414777  11.035045137
Cu       3.689676725  13.630391554  11.035987680
Cu       5.534036856  15.334433987  11.034730374
Cu       0.001268889   1.704748025  12.869644682
Cu       1.846510557  -0.002055133  12.875069119
Cu       3.690631251   1.701839765  12.874014373
Cu       5.533922217  -0.002092008  12.874364714
Cu       0.001463497   5.117097145  12.882458169
Cu       1.850477942   3.413182890  12.876100411
Cu       3.691570271   5.122896833  12.896844882
Cu       5.530895389   3.414488656  12.877982008
Cu       0.001858654   8.512961377  12.893541450
Cu       1.849525544   6.816794601  12.895701817
Cu       3.691676691   8.505652057  12.896323899
Cu       5.532699811   6.816245640  12.898443297
Cu       0.001553712  11.923911868  12.874293532
Cu       1.845921347  10.213210611  12.880364357
Cu       3.691008235  11.923976635  12.869850232
Cu       5.536549016  10.212452456  12.880621127
Cu       0.001124955  15.332611918  12.876838587
Cu       1.844593797  13.630991332  12.873689553
Cu       3.690024661  15.336029927  12.877429156
Cu       5.536002493  13.631083194  12.873488871
Cu       0.001837603   0.001816255  14.686928609
Cu       1.844751986   1.702300470  14.685279939
Cu       3.690185756   0.000032007  14.701124043
Cu       5.536371646   1.702781101  14.684299042
Cu       0.002291910   3.407706722  14.675459224
Cu       1.862558953   5.108111270  14.709223083
Cu       3.689749530   3.391982105  14.699275428
Cu       5.519680764   5.105945561  14.709709368
Cu       0.002641098   6.802414714  14.706667363
Cu       1.846684021   8.520077237  14.720072991
Cu       3.691232335   6.822924320  14.765201288
Cu       5.536232358   8.522224843  14.721104827
Cu       0.003377408  10.227710770  14.700629029
Cu       1.843994420  11.927399883  14.683369435
Cu       3.691150743  10.228176293  14.685058471
Cu       5.538922052  11.926123214  14.682628779
Cu       0.001297898  13.629529326  14.698524640
Cu       1.846034807  15.332942743  14.694012271
Cu       3.691428821  13.625869751  14.685111746
Cu       5.535103623  15.333939865  14.693216882
C       -0.002281382   0.711940071  17.620500779
C       -0.001870804   2.130412168  17.605736141
C        1.227491884   0.003195658  17.623747888
C        1.226751578   2.837359207  17.575463512
C        2.455890701   0.711721848  17.606930871
C        2.456693686   2.132592894  17.581716031
C        3.686493310   0.002166838  17.600723237
C        3.688156360   2.840423258  17.560087308
C        4.917723440   0.712481833  17.599170620
C        4.918732709   2.131408569  17.576917812
C        6.146034156   0.003067492  17.618436414
C        6.148929975   2.837625791  17.578336273
C       -0.007211088   4.964562589  17.537223388
C        0.012410589   6.392758529  17.490217865
C        1.236118721   4.263865981  17.540230155
C        1.236477836   7.107212001  17.572317599
C        2.464532630   4.973804414  17.577558258
C        2.376611425   6.344830055  18.046279585
H        2.384822336   6.349592932  19.271184746
C        3.675384950   4.265665619  17.558968553
C        3.764612395   7.142246638  18.066838139
H        3.756171735   7.113221785  19.275453098
C        4.925995280   4.975774573  17.544267256
C        4.912964441   6.385545301  17.604447262
C        6.154516870   4.259581799  17.539087944
C        6.141084266   7.099401531  17.528971104
C       -0.003864889   9.232312519  17.548972513
C       -0.001864356  10.653845209  17.546042815
C        1.226859192   8.507971257  17.554909726
C        1.228217171  11.366563782  17.566182559
C        2.469084443   9.240171783  17.578062833
C        2.458472095  10.658437655  17.571067736
C        3.680721013   8.526524379  17.648694898
C        3.687254555  11.366917720  17.595255987
C        4.911429147   9.234997270  17.575381801
C        4.915544893  10.659897037  17.568356331
C        6.149973419   8.523308876  17.561995795
C        6.145939657  11.365691238  17.561934115
C       -0.002689696  13.495402631  17.590379136
C       -0.002741449  14.914214357  17.614998692
C        1.228240166  12.784739446  17.593396607
C        1.226628474  15.623245583  17.619406729
C        2.457008523  13.494256364  17.616981195
C        2.457140383  14.913013714  17.620953235
C        3.686400511  12.785801911  17.613329474
C        3.686209530  15.622037969  17.622579178
C        4.915613507  13.494184352  17.614343412
C        4.915253062  14.913069666  17.618392098
C        6.144639163  12.785264417  17.589684398
C        6.145900279  15.623106349  17.616805621



     Writing output data file gc.save
     Check: negative starting charge=(component1):   -0.001846
     NEW-OLD atomic charge density approx. for the potential
     Check: negative starting charge=(component1):   -0.001839

     negative rho (up, down):  9.466E-04 9.466E-04

     total cpu time spent up to now is    25941.5 secs

     Self-consistent Calculation

     iteration #  1     ecut=    80.00 Ry     beta=0.70
     Davidson diagonalization with overlap
     c_bands:  1 eigenvalues not converged
     ethr =  1.00E-06,  avg # of iterations = 12.5
