
     Program PWSCF v.5.4.0 starts on  7Apr2017 at 16:17:41 

     This program is part of the open-source Quantum ESPRESSO suite
     for quantum simulation of materials; please cite
         "P. Giannozzi et al., J. Phys.:Condens. Matter 21 395502 (2009);
          URL http://www.quantum-espresso.org", 
     in publications or presentations arising from this work. More details at
     http://www.quantum-espresso.org/quote

     Parallel version (MPI & OpenMP), running on      56 processor cores
     Number of MPI processes:                56
     Threads/MPI process:                     1
     R & G space division:  proc/nbgrp/npool/nimage =      56
     Waiting for input...
     Reading input from standard input
Warning: card &IONS ignored
Warning: card / ignored

     Current dimensions of program PWSCF are:
     Max number of different atomic species (ntypx) = 10
     Max number of k-points (npk) =  40000
     Max angular momentum in pseudopotentials (lmaxx) =  3
     WARNING: atomic wfc #  2 for atom type 4 has zero norm
     WARNING: atomic wfc #  4 for atom type 4 has zero norm
     WARNING: atomic wfc #  5 for atom type 4 has zero norm

     -------------------------------------
     Parameters for Dispersion Correction:
     -------------------------------------
       atom      VdW radius       C_6     

        Cu         2.952        374.666
        C_h        2.744         60.710
        C          2.744         60.710
        O          2.536         24.284
        H          1.892          4.857

     Subspace diagonalization in iterative solution of the eigenvalue problem:
     one sub-group per band group will be used
     scalapack distributed-memory algorithm (size of sub-group:  5*  5 procs)

 
     Parallelization info
     --------------------
     sticks:   dense  smooth     PW     G-vecs:    dense   smooth      PW
     Min         204     204     54                36612    36612    4962
     Max         205     205     55                36617    36617    4968
     Sum       11433   11433   3039              2050409  2050409  278033
 
     Generating pointlists ...
     new r_m :   0.1101 (alat units)  1.5347 (a.u.) for type    1
     new r_m :   0.0797 (alat units)  1.1117 (a.u.) for type    2
     new r_m :   0.0792 (alat units)  1.1036 (a.u.) for type    3
     new r_m :   0.0563 (alat units)  0.7848 (a.u.) for type    4
     new r_m :   0.0563 (alat units)  0.7848 (a.u.) for type    5


     bravais-lattice index     =            0
     lattice parameter (alat)  =      13.9425  a.u.
     unit-cell volume          =   21209.0878 (a.u.)^3
     number of atoms/cell      =          150
     number of atomic types    =            5
     number of electrons       =      1299.00
     number of Kohn-Sham states=          780
     kinetic-energy cutoff     =      80.0000  Ry
     charge density cutoff     =     320.0000  Ry
     convergence threshold     =      1.0E-08
     mixing beta               =       0.7000
     number of iterations used =            8  local-TF  mixing
     Exchange-correlation      =  SLA  PW   PBE  PBE ( 1  4  3  4 0 0)

     celldm(1)=  13.942539  celldm(2)=   0.000000  celldm(3)=   0.000000
     celldm(4)=   0.000000  celldm(5)=   0.000000  celldm(6)=   0.000000

     crystal axes: (cart. coord. in units of alat)
               a(1) = (   1.000000   0.000000   0.000000 )  
               a(2) = (   0.000000   2.309401   0.000000 )  
               a(3) = (   0.000000   0.000000   3.388418 )  

     reciprocal axes: (cart. coord. in units 2 pi/alat)
               b(1) = (  1.000000  0.000000  0.000000 )  
               b(2) = (  0.000000  0.433013  0.000000 )  
               b(3) = (  0.000000  0.000000  0.295123 )  


     PseudoPot. # 1 for Cu read from file:
     /home/549/hxw549/Short/pseudopotentials/Cu.pbe-n-van_ak.UPF
     MD5 check sum: 601f7c30f7467666bec936e0661ce3e1
     Pseudo is Ultrasoft + core correction, Zval = 11.0
     Generated by new atomic code, or converted to UPF format
     Using radial grid of  867 points,  6 beta functions with: 
                l(1) =   0
                l(2) =   0
                l(3) =   1
                l(4) =   1
                l(5) =   2
                l(6) =   2
     Q(r) pseudized with  8 coefficients,  rinner =    1.400   1.400   1.400
                                                       1.400   1.400

     PseudoPot. # 2 for C  read from file:
     /home/549/hxw549/Short/pseudopotentials/C.star1s-pbe-mt_gipaw.UPF
     MD5 check sum: ef0cb3dee31bd9e4ba2a832a2c716264
     Pseudo is Norm-conserving, Zval =  5.0
     Generated by new atomic code, or converted to UPF format
     Using radial grid of 1073 points,  1 beta functions with: 
                l(1) =   0

     PseudoPot. # 3 for C  read from file:
     /home/549/hxw549/Short/pseudopotentials/C.pbe-mt_gipaw.UPF
     MD5 check sum: 5ac2f21f2c440b14befe521540822c15
     Pseudo is Norm-conserving, Zval =  4.0
     Generated by new atomic code, or converted to UPF format
     Using radial grid of 1073 points,  1 beta functions with: 
                l(1) =   0

     PseudoPot. # 4 for O  read from file:
     /home/549/hxw549/Short/pseudopotentials/O.pbe-van_gipaw.UPF
     MD5 check sum: 5ce2a047509d4f331db576c963e74b29
     Pseudo is Ultrasoft, Zval =  6.0
     Generated by new atomic code, or converted to UPF format
     Using radial grid of 1095 points,  4 beta functions with: 
                l(1) =   0
                l(2) =   0
                l(3) =   1
                l(4) =   1
     Q(r) pseudized with 0 coefficients 


     PseudoPot. # 5 for H  read from file:
     /home/549/hxw549/Short/pseudopotentials/H.pbe-van_ak.UPF
     MD5 check sum: 077eb6d537518a38cb46c6de387227b7
     Pseudo is Ultrasoft, Zval =  1.0
     Generated by new atomic code, or converted to UPF format
     Using radial grid of  615 points,  1 beta functions with: 
                l(1) =   0
     Q(r) pseudized with  8 coefficients,  rinner =    0.800

     atomic species   valence    mass     pseudopotential
        Cu            11.00    63.54600     Cu( 1.00)
        C_h            5.00    12.01070     C ( 1.00)
        C              4.00    12.01070     C ( 1.00)
        O              6.00    15.99940     O ( 1.00)
        H              1.00     1.00783     H ( 1.00)

     Starting magnetic structure 
     atomic species   magnetization
        Cu           0.000
        C_h          0.000
        C            0.000
        O            1.000
        H            0.000

     No symmetry found



   Cartesian axes

     site n.     atom                  positions (alat units)
         1           Cu  tau(   1) = (   0.0000278  -0.0002768   0.9972875  )
         2           Cu  tau(   2) = (   0.2500214   0.2300592   0.9964781  )
         3           Cu  tau(   3) = (   0.4999379  -0.0008021   0.9967565  )
         4           Cu  tau(   4) = (   0.7499938   0.2301066   0.9966299  )
         5           Cu  tau(   5) = (   0.0000368   0.4611612   0.9964670  )
         6           Cu  tau(   6) = (   0.2501556   0.6926513   0.9969316  )
         7           Cu  tau(   7) = (   0.5000725   0.4614195   0.9968158  )
         8           Cu  tau(   8) = (   0.7500733   0.6926077   0.9969288  )
         9           Cu  tau(   9) = (   0.0001817   0.9237007   0.9969673  )
        10           Cu  tau(  10) = (   0.2501864   1.1547399   0.9969388  )
        11           Cu  tau(  11) = (   0.5001000   0.9236813   0.9971421  )
        12           Cu  tau(  12) = (   0.7500350   1.1547883   0.9969509  )
        13           Cu  tau(  13) = (   0.0000256   1.3862740   0.9964245  )
        14           Cu  tau(  14) = (   0.2500182   1.6173874   0.9965674  )
        15           Cu  tau(  15) = (   0.5000855   1.3860092   0.9969524  )
        16           Cu  tau(  16) = (   0.7500020   1.6173469   0.9967271  )
        17           Cu  tau(  17) = (   0.0000589   1.8476413   0.9974502  )
        18           Cu  tau(  18) = (   0.2497677   2.0783648   0.9976647  )
        19           Cu  tau(  19) = (   0.4999083   1.8482307   0.9967929  )
        20           Cu  tau(  20) = (   0.7501842   2.0783708   0.9971403  )
        21           Cu  tau(  21) = (   0.0001222   0.2301461   1.2453200  )
        22           Cu  tau(  22) = (   0.2499160  -0.0003375   1.2457320  )
        23           Cu  tau(  23) = (   0.5000760   0.2296546   1.2445751  )
        24           Cu  tau(  24) = (   0.7501253  -0.0008082   1.2452774  )
        25           Cu  tau(  25) = (   0.0004560   0.6919042   1.2444398  )
        26           Cu  tau(  26) = (   0.2502604   0.4604283   1.2441641  )
        27           Cu  tau(  27) = (   0.5005290   0.6920792   1.2449013  )
        28           Cu  tau(  28) = (   0.7502594   0.4606436   1.2444322  )
        29           Cu  tau(  29) = (   0.0004845   1.1556372   1.2443765  )
        30           Cu  tau(  30) = (   0.2506070   0.9237561   1.2452404  )
        31           Cu  tau(  31) = (   0.5004996   1.1552771   1.2450168  )
        32           Cu  tau(  32) = (   0.7506209   0.9237195   1.2449593  )
        33           Cu  tau(  33) = (   0.0001889   1.6170091   1.2456247  )
        34           Cu  tau(  34) = (   0.2502719   1.3869351   1.2442606  )
        35           Cu  tau(  35) = (   0.5000476   1.6177597   1.2448016  )
        36           Cu  tau(  36) = (   0.7502719   1.3867859   1.2444933  )
        37           Cu  tau(  37) = (   0.0001297   2.0783238   1.2457288  )
        38           Cu  tau(  38) = (   0.2498837   1.8474392   1.2461817  )
        39           Cu  tau(  39) = (   0.4998735   2.0782826   1.2456599  )
        40           Cu  tau(  40) = (   0.7501762   1.8480311   1.2455042  )
        41           Cu  tau(  41) = (   0.0002718  -0.0011296   1.4951325  )
        42           Cu  tau(  42) = (   0.2502480   0.2303139   1.4952280  )
        43           Cu  tau(  43) = (   0.5000574  -0.0006898   1.4948808  )
        44           Cu  tau(  44) = (   0.7505846   0.2291334   1.4938282  )
        45           Cu  tau(  45) = (   0.0009624   0.4607787   1.4943109  )
        46           Cu  tau(  46) = (   0.2514145   0.6908209   1.4926831  )
        47           Cu  tau(  47) = (   0.5008195   0.4598745   1.4933701  )
        48           Cu  tau(  48) = (   0.7516451   0.6913243   1.4932782  )
        49           Cu  tau(  49) = (   0.0019318   0.9239193   1.4927730  )
        50           Cu  tau(  50) = (   0.2514121   1.1564455   1.4932287  )
        51           Cu  tau(  51) = (   0.5021641   0.9235540   1.4935214  )
        52           Cu  tau(  52) = (   0.7518116   1.1562283   1.4932047  )
        53           Cu  tau(  53) = (   0.0011789   1.3861859   1.4950249  )
        54           Cu  tau(  54) = (   0.2501668   1.6161289   1.4962436  )
        55           Cu  tau(  55) = (   0.5008242   1.3872970   1.4934908  )
        56           Cu  tau(  56) = (   0.7508208   1.6176916   1.4943697  )
        57           Cu  tau(  57) = (   0.0003793   1.8479269   1.4954295  )
        58           Cu  tau(  58) = (   0.2502332   2.0783539   1.4953567  )
        59           Cu  tau(  59) = (   0.5000263   1.8477072   1.4952729  )
        60           Cu  tau(  60) = (   0.7499856   2.0782028   1.4954651  )
        61           Cu  tau(  61) = (   0.0013816   0.2292930   1.7432885  )
        62           Cu  tau(  62) = (   0.2507645  -0.0010149   1.7448229  )
        63           Cu  tau(  63) = (   0.5007496   0.2295791   1.7436658  )
        64           Cu  tau(  64) = (   0.7503272  -0.0006935   1.7445977  )
        65           Cu  tau(  65) = (   0.0045463   0.6918465   1.7436705  )
        66           Cu  tau(  66) = (   0.2520141   0.4626440   1.7460287  )
        67           Cu  tau(  67) = (   0.5022653   0.6898550   1.7406262  )
        68           Cu  tau(  68) = (   0.7517890   0.4595199   1.7411334  )
        69           Cu  tau(  69) = (   0.0047011   1.1548943   1.7449750  )
        70           Cu  tau(  70) = (   0.2530542   0.9228037   1.7325019  )
        71           Cu  tau(  71) = (   0.5030046   1.1568396   1.7399891  )
        72           Cu  tau(  72) = (   0.7561874   0.9239067   1.7398848  )
        73           Cu  tau(  73) = (   0.0018646   1.6171245   1.7448817  )
        74           Cu  tau(  74) = (   0.2519253   1.3838820   1.7474102  )
        75           Cu  tau(  75) = (   0.5009287   1.6165997   1.7436324  )
        76           Cu  tau(  76) = (   0.7529422   1.3868330   1.7421903  )
        77           Cu  tau(  77) = (   0.0002295   2.0780753   1.7453542  )
        78           Cu  tau(  78) = (   0.2505869   1.8481607   1.7445926  )
        79           Cu  tau(  79) = (   0.5005487   2.0784516   1.7451245  )
        80           Cu  tau(  80) = (   0.7507322   1.8473351   1.7448549  )
        81           Cu  tau(  81) = (   0.0007331   0.0000523   1.9906293  )
        82           Cu  tau(  82) = (   0.2525995   0.2291339   1.9904422  )
        83           Cu  tau(  83) = (   0.5012472  -0.0005218   1.9921329  )
        84           Cu  tau(  84) = (   0.7505674   0.2306852   1.9894324  )
        85           Cu  tau(  85) = (   0.0042086   0.4583194   1.9895302  )
        86           Cu  tau(  86) = (   0.2533238   0.6859888   1.9919788  )
        87           Cu  tau(  87) = (   0.5013086   0.4599114   1.9907049  )
        88           Cu  tau(  88) = (   0.7545155   0.6843983   1.9888510  )
        89           Cu  tau(  89) = (  -0.0132795   0.9222968   1.9898577  )
        90           Cu  tau(  90) = (   0.2536667   1.1630440   1.9871555  )
        91           Cu  tau(  91) = (   0.5253338   0.9231525   1.9735697  )
        92           Cu  tau(  92) = (   0.7554366   1.1624939   1.9907504  )
        93           Cu  tau(  93) = (   0.0065718   1.3880187   1.9935465  )
        94           Cu  tau(  94) = (   0.2526338   1.6190218   1.9906841  )
        95           Cu  tau(  95) = (   0.5015104   1.3866197   1.9900095  )
        96           Cu  tau(  96) = (   0.7522394   1.6149579   1.9899113  )
        97           Cu  tau(  97) = (   0.0003722   1.8475400   1.9923328  )
        98           Cu  tau(  98) = (   0.2509673   2.0779645   1.9916155  )
        99           Cu  tau(  99) = (   0.5021872   1.8468334   1.9901015  )
       100           Cu  tau( 100) = (   0.7506424   2.0783722   1.9912597  )
       101           C   tau( 101) = (   0.0004633   0.0969185   2.3843282  )
       102           C   tau( 102) = (   0.0006891   0.2895165   2.3836482  )
       103           C   tau( 103) = (   0.1666585   0.0002933   2.3867679  )
       104           C   tau( 104) = (   0.1673277   0.3850769   2.3903157  )
       105           C   tau( 105) = (   0.3334301   0.0964012   2.3837630  )
       106           C   tau( 106) = (   0.3336820   0.2893218   2.3841831  )
       107           C   tau( 107) = (   0.5002537   0.0000620   2.3840475  )
       108           C   tau( 108) = (   0.5005861   0.3857862   2.3862407  )
       109           C   tau( 109) = (   0.6668225   0.0970972   2.3821103  )
       110           C   tau( 110) = (   0.6668789   0.2897006   2.3793787  )
       111           C   tau( 111) = (   0.8334847   0.0007853   2.3854227  )
       112           C   tau( 112) = (   0.8338985   0.3855644   2.3821889  )
       113           C   tau( 113) = (   0.0007087   0.6732112   2.4042444  )
       114           C   tau( 114) = (   0.0006883   0.8656023   2.4132578  )
       115           C   tau( 115) = (   0.1676172   0.5766239   2.4117145  )
       116           C   tau( 116) = (   0.1654579   0.9620878   2.4451114  )
       117           C   tau( 117) = (   0.3341007   0.6722734   2.4322949  )
       118           C   tau( 118) = (   0.3325860   0.8659509   2.4520552  )
       119           C   tau( 119) = (   0.5009673   0.5775343   2.4087855  )
       120           C_h tau( 120) = (   0.5017558   0.9623222   2.4385030  )
       121           O   tau( 121) = (   0.2791307   0.9260168   2.1070364  )
       122           H   tau( 122) = (   0.3593119   0.9331071   2.2172280  )
       123           C   tau( 123) = (   0.6676340   0.6738812   2.4034622  )
       124           C   tau( 124) = (   0.6677084   0.8654913   2.4173642  )
       125           C   tau( 125) = (   0.8341283   0.5782705   2.3892616  )
       126           C   tau( 126) = (   0.8335734   0.9617234   2.4042072  )
       127           C   tau( 127) = (   0.0003039   1.2497142   2.3939206  )
       128           C   tau( 128) = (   0.0001774   1.4424794   2.3830571  )
       129           C   tau( 129) = (   0.1667008   1.1540354   2.4176282  )
       130           C   tau( 130) = (   0.1670336   1.5388816   2.3839660  )
       131           C   tau( 131) = (   0.3339796   1.2508192   2.4128917  )
       132           C   tau( 132) = (   0.3334608   1.4424981   2.3940123  )
       133           C   tau( 133) = (   0.5014908   1.1552464   2.4213605  )
       134           C   tau( 134) = (   0.4999382   1.5390631   2.3885153  )
       135           C   tau( 135) = (   0.6672132   1.2498776   2.3964384  )
       136           C   tau( 136) = (   0.6664090   1.4424231   2.3856276  )
       137           C   tau( 137) = (   0.8339124   1.1534927   2.3972902  )
       138           C   tau( 138) = (   0.8331158   1.5383499   2.3799296  )
       139           C   tau( 139) = (  -0.0002215   1.8284265   2.3816093  )
       140           C   tau( 140) = (  -0.0001179   2.0210629   2.3863119  )
       141           C   tau( 141) = (   0.1667477   1.7318750   2.3825680  )
       142           C   tau( 142) = (   0.1664658   2.1173245   2.3871874  )
       143           C   tau( 143) = (   0.3331949   1.8285190   2.3874739  )
       144           C   tau( 144) = (   0.3333678   2.0210706   2.3878090  )
       145           C   tau( 145) = (   0.4996565   1.7319631   2.3871412  )
       146           C   tau( 146) = (   0.5000751   2.1171626   2.3880207  )
       147           C   tau( 147) = (   0.6665831   1.8281220   2.3863563  )
       148           C   tau( 148) = (   0.6665579   2.0209124   2.3873875  )
       149           C   tau( 149) = (   0.8330402   1.7312308   2.3813732  )
       150           C   tau( 150) = (   0.8334119   2.1174588   2.3867188  )

     number of k points=     6  gaussian smearing, width (Ry)=  0.1000
                       cart. coord. in units 2pi/alat
        k(    1) = (   0.0000000   0.0000000   0.0000000), wk =   0.1250000
        k(    2) = (   0.0000000  -0.2165064   0.0000000), wk =   0.1250000
        k(    3) = (   0.2500000   0.0000000   0.0000000), wk =   0.2500000
        k(    4) = (   0.2500000  -0.2165064   0.0000000), wk =   0.2500000
        k(    5) = (  -0.5000000   0.0000000   0.0000000), wk =   0.1250000
        k(    6) = (  -0.5000000  -0.2165064   0.0000000), wk =   0.1250000

     Dense  grid:  2050409 G-vectors     FFT dimensions: (  80, 192, 270)

     Largest allocated arrays     est. size (Mb)     dimensions
        Kohn-Sham Wavefunctions        54.80 Mb     (    4604,  780)
        NL pseudopotentials           130.46 Mb     (    4604, 1857)
        Each V/rho on FFT grid          2.34 Mb     (   76800,   2)
        Each G-vector array             0.28 Mb     (   36616)
        G-vector shells                 0.14 Mb     (   17932)
     Largest temporary arrays     est. size (Mb)     dimensions
        Auxiliary wavefunctions       219.18 Mb     (    4604, 3120)
        Each subspace H/S matrix        5.94 Mb     (     624,  624)
        Each <psi_i|beta_j> matrix     22.10 Mb     (    1857,  780)
        Arrays for rho mixing           9.38 Mb     (   76800,    8)

     Initial potential from superposition of free atoms
     Check: negative starting charge=(component1):   -0.000912
     Check: negative starting charge=(component2):   -0.000912

     starting charge 1273.81750, renormalised to 1299.00000

     negative rho (up, down):  9.303E-04 9.300E-04
     Starting wfc are 1289 randomized atomic wfcs

     total cpu time spent up to now is      211.3 secs

     Self-consistent Calculation

     iteration #  1     ecut=    80.00 Ry     beta=0.70
     Davidson diagonalization with overlap
     c_bands:  5 eigenvalues not converged
     c_bands:  4 eigenvalues not converged
     c_bands:  3 eigenvalues not converged
     c_bands:  3 eigenvalues not converged
     ethr =  1.00E-04,  avg # of iterations = 38.3

     negative rho (up, down):  1.416E+01 1.416E+01

     total cpu time spent up to now is     4251.4 secs

     total energy              =   -9309.26832725 Ry
     Harris-Foulkes estimate   =  -17405.84725823 Ry
     estimated scf accuracy    <  185370.89208378 Ry

     total magnetization       =     1.07 Bohr mag/cell
     absolute magnetization    =     2.06 Bohr mag/cell

     iteration #  2     ecut=    80.00 Ry     beta=0.70
     Davidson diagonalization with overlap
     ethr =  1.00E-02,  avg # of iterations = 13.4

     negative rho (up, down):  1.596E+01 1.596E+01

     total cpu time spent up to now is     6113.6 secs

     total energy              =  -12189.09668521 Ry
     Harris-Foulkes estimate   =  -13745.31865297 Ry
     estimated scf accuracy    <   24958.16491819 Ry

     total magnetization       =     0.45 Bohr mag/cell
     absolute magnetization    =     1.31 Bohr mag/cell

     iteration #  3     ecut=    80.00 Ry     beta=0.70
     Davidson diagonalization with overlap
     ethr =  1.00E-02,  avg # of iterations =  7.6

     negative rho (up, down):  1.636E+01 1.636E+01

     total cpu time spent up to now is     7171.1 secs

     total energy              =  -12485.34926950 Ry
     Harris-Foulkes estimate   =  -13470.47134805 Ry
     estimated scf accuracy    <    6187.96333975 Ry

     total magnetization       =     0.19 Bohr mag/cell
     absolute magnetization    =     0.60 Bohr mag/cell

     iteration #  4     ecut=    80.00 Ry     beta=0.70
     Davidson diagonalization with overlap
     ethr =  1.00E-02,  avg # of iterations =  5.8

     negative rho (up, down):  1.200E+01 1.200E+01

     total cpu time spent up to now is     8147.1 secs

     total energy              =  -12906.93378957 Ry
     Harris-Foulkes estimate   =  -13137.48269873 Ry
     estimated scf accuracy    <    1647.92664745 Ry

     total magnetization       =     0.01 Bohr mag/cell
     absolute magnetization    =     0.19 Bohr mag/cell

     iteration #  5     ecut=    80.00 Ry     beta=0.70
     Davidson diagonalization with overlap
     ethr =  1.00E-02,  avg # of iterations =  3.3

     negative rho (up, down):  7.760E+00 7.760E+00

     total cpu time spent up to now is     8683.3 secs

     total energy              =  -12888.66351102 Ry
     Harris-Foulkes estimate   =  -12990.86486472 Ry
     estimated scf accuracy    <     732.17748396 Ry

     total magnetization       =    -0.01 Bohr mag/cell
     absolute magnetization    =     0.10 Bohr mag/cell

     iteration #  6     ecut=    80.00 Ry     beta=0.70
     Davidson diagonalization with overlap
     ethr =  1.00E-02,  avg # of iterations =  2.0

     negative rho (up, down):  6.131E+00 6.131E+00

     total cpu time spent up to now is     9087.7 secs

     total energy              =  -12870.29360182 Ry
     Harris-Foulkes estimate   =  -12906.45018588 Ry
     estimated scf accuracy    <     559.70014299 Ry

     total magnetization       =    -0.00 Bohr mag/cell
     absolute magnetization    =     0.09 Bohr mag/cell

     iteration #  7     ecut=    80.00 Ry     beta=0.70
     Davidson diagonalization with overlap
     ethr =  1.00E-02,  avg # of iterations =  2.0

     negative rho (up, down):  4.273E+00 4.273E+00

     total cpu time spent up to now is     9441.6 secs

     total energy              =  -12839.43878960 Ry
     Harris-Foulkes estimate   =  -12883.77492739 Ry
     estimated scf accuracy    <     456.17180892 Ry

     total magnetization       =    -0.00 Bohr mag/cell
     absolute magnetization    =     0.08 Bohr mag/cell

     iteration #  8     ecut=    80.00 Ry     beta=0.70
     Davidson diagonalization with overlap
     ethr =  1.00E-02,  avg # of iterations =  1.2

     negative rho (up, down):  3.854E+00 3.854E+00

     total cpu time spent up to now is     9777.0 secs

     total energy              =  -12836.64805013 Ry
     Harris-Foulkes estimate   =  -12848.98654026 Ry
     estimated scf accuracy    <     249.80675482 Ry

     total magnetization       =    -0.00 Bohr mag/cell
     absolute magnetization    =     0.09 Bohr mag/cell

     iteration #  9     ecut=    80.00 Ry     beta=0.70
     Davidson diagonalization with overlap
     ethr =  1.00E-02,  avg # of iterations =  1.3

     negative rho (up, down):  2.526E+00 2.526E+00

     total cpu time spent up to now is    10114.4 secs

     total energy              =  -12811.05093888 Ry
     Harris-Foulkes estimate   =  -12839.32920217 Ry
     estimated scf accuracy    <     206.55453484 Ry

     total magnetization       =    -0.00 Bohr mag/cell
     absolute magnetization    =     0.08 Bohr mag/cell

     iteration # 10     ecut=    80.00 Ry     beta=0.70
     Davidson diagonalization with overlap
     ethr =  1.00E-02,  avg # of iterations =  1.0

     negative rho (up, down):  5.989E-01 5.983E-01

     total cpu time spent up to now is    10444.9 secs

     total energy              =  -12771.58778575 Ry
     Harris-Foulkes estimate   =  -12814.01411963 Ry
     estimated scf accuracy    <     202.75274536 Ry

     total magnetization       =     0.00 Bohr mag/cell
     absolute magnetization    =     0.07 Bohr mag/cell

     iteration # 11     ecut=    80.00 Ry     beta=0.70
     Davidson diagonalization with overlap
     ethr =  1.00E-02,  avg # of iterations =  2.9

     negative rho (up, down):  4.380E-01 4.363E-01

     total cpu time spent up to now is    10823.7 secs

     total energy              =  -12760.28488553 Ry
     Harris-Foulkes estimate   =  -12781.33811407 Ry
     estimated scf accuracy    <     228.93376354 Ry

     total magnetization       =    -0.02 Bohr mag/cell
     absolute magnetization    =     0.12 Bohr mag/cell

     iteration # 12     ecut=    80.00 Ry     beta=0.70
     Davidson diagonalization with overlap
     ethr =  1.00E-02,  avg # of iterations =  2.0

     negative rho (up, down):  1.128E+00 1.124E+00

     total cpu time spent up to now is    11179.2 secs

     total energy              =  -12753.28825729 Ry
     Harris-Foulkes estimate   =  -12772.20173237 Ry
     estimated scf accuracy    <     109.39247319 Ry

     total magnetization       =    -0.02 Bohr mag/cell
     absolute magnetization    =     0.10 Bohr mag/cell

     iteration # 13     ecut=    80.00 Ry     beta=0.70
     Davidson diagonalization with overlap
     ethr =  8.42E-03,  avg # of iterations =  2.1

     negative rho (up, down):  2.273E+00 2.270E+00

     total cpu time spent up to now is    11535.0 secs

     total energy              =  -12754.43812640 Ry
     Harris-Foulkes estimate   =  -12762.83777249 Ry
     estimated scf accuracy    <      64.87473382 Ry

     total magnetization       =    -0.01 Bohr mag/cell
     absolute magnetization    =     0.08 Bohr mag/cell

     iteration # 14     ecut=    80.00 Ry     beta=0.70
     Davidson diagonalization with overlap
     ethr =  4.99E-03,  avg # of iterations =  1.8

     negative rho (up, down):  3.373E+00 3.370E+00

     total cpu time spent up to now is    11886.2 secs

     total energy              =  -12751.76399036 Ry
     Harris-Foulkes estimate   =  -12756.15617578 Ry
     estimated scf accuracy    <      44.24947520 Ry

     total magnetization       =    -0.01 Bohr mag/cell
     absolute magnetization    =     0.05 Bohr mag/cell

     iteration # 15     ecut=    80.00 Ry     beta=0.70
     Davidson diagonalization with overlap
     ethr =  3.41E-03,  avg # of iterations =  1.4

     negative rho (up, down):  2.817E+00 2.816E+00

     total cpu time spent up to now is    12225.9 secs

     total energy              =  -12749.02152512 Ry
     Harris-Foulkes estimate   =  -12752.76998677 Ry
     estimated scf accuracy    <      34.40473906 Ry

     total magnetization       =    -0.01 Bohr mag/cell
     absolute magnetization    =     0.04 Bohr mag/cell

     iteration # 16     ecut=    80.00 Ry     beta=0.70
     Davidson diagonalization with overlap
     ethr =  2.65E-03,  avg # of iterations =  2.2

     negative rho (up, down):  2.563E+00 2.563E+00

     total cpu time spent up to now is    12585.5 secs

     total energy              =  -12747.37798861 Ry
     Harris-Foulkes estimate   =  -12749.83939718 Ry
     estimated scf accuracy    <      18.70846666 Ry

     total magnetization       =    -0.00 Bohr mag/cell
     absolute magnetization    =     0.03 Bohr mag/cell

     iteration # 17     ecut=    80.00 Ry     beta=0.70
     Davidson diagonalization with overlap
     ethr =  1.44E-03,  avg # of iterations =  7.8

     negative rho (up, down):  1.953E+00 1.953E+00

     total cpu time spent up to now is    13081.8 secs

     total energy              =  -12746.55772391 Ry
     Harris-Foulkes estimate   =  -12747.91490296 Ry
     estimated scf accuracy    <      11.25766653 Ry

     total magnetization       =    -0.00 Bohr mag/cell
     absolute magnetization    =     0.02 Bohr mag/cell

     iteration # 18     ecut=    80.00 Ry     beta=0.70
     Davidson diagonalization with overlap
     ethr =  8.67E-04,  avg # of iterations =  4.5

     negative rho (up, down):  1.330E+00 1.330E+00

     total cpu time spent up to now is    13495.5 secs

     total energy              =  -12745.02484519 Ry
     Harris-Foulkes estimate   =  -12746.72614862 Ry
     estimated scf accuracy    <       8.53568909 Ry

     total magnetization       =    -0.00 Bohr mag/cell
     absolute magnetization    =     0.02 Bohr mag/cell

     iteration # 19     ecut=    80.00 Ry     beta=0.70
     Davidson diagonalization with overlap
     ethr =  6.57E-04,  avg # of iterations =  4.2

     negative rho (up, down):  1.373E+00 1.373E+00

     total cpu time spent up to now is    13904.5 secs

     total energy              =  -12744.77735194 Ry
     Harris-Foulkes estimate   =  -12745.35120995 Ry
     estimated scf accuracy    <      11.26396560 Ry

     total magnetization       =     0.00 Bohr mag/cell
     absolute magnetization    =     0.02 Bohr mag/cell

     iteration # 20     ecut=    80.00 Ry     beta=0.70
     Davidson diagonalization with overlap
     ethr =  6.57E-04,  avg # of iterations =  1.3

     negative rho (up, down):  1.072E+00 1.072E+00

     total cpu time spent up to now is    14244.2 secs

     total energy              =  -12744.14562817 Ry
     Harris-Foulkes estimate   =  -12745.06432863 Ry
     estimated scf accuracy    <       7.42038748 Ry

     total magnetization       =     0.00 Bohr mag/cell
     absolute magnetization    =     0.02 Bohr mag/cell

     iteration # 21     ecut=    80.00 Ry     beta=0.70
     Davidson diagonalization with overlap
     ethr =  5.71E-04,  avg # of iterations =  2.2

     negative rho (up, down):  6.033E-01 6.034E-01

     total cpu time spent up to now is    14604.6 secs

     total energy              =  -12742.21310861 Ry
     Harris-Foulkes estimate   =  -12744.30909374 Ry
     estimated scf accuracy    <       5.94938047 Ry

     total magnetization       =     0.00 Bohr mag/cell
     absolute magnetization    =     0.01 Bohr mag/cell

     iteration # 22     ecut=    80.00 Ry     beta=0.70
     Davidson diagonalization with overlap
     ethr =  4.58E-04,  avg # of iterations =  5.0

     negative rho (up, down):  3.588E-01 3.589E-01

     total cpu time spent up to now is    15034.1 secs

     total energy              =  -12741.34978622 Ry
     Harris-Foulkes estimate   =  -12742.30110033 Ry
     estimated scf accuracy    <       4.69463774 Ry

     total magnetization       =    -0.00 Bohr mag/cell
     absolute magnetization    =     0.01 Bohr mag/cell

     iteration # 23     ecut=    80.00 Ry     beta=0.70
     Davidson diagonalization with overlap
     ethr =  3.61E-04,  avg # of iterations =  2.2

     negative rho (up, down):  2.808E-01 2.808E-01

     total cpu time spent up to now is    15397.0 secs

     total energy              =  -12740.26812081 Ry
     Harris-Foulkes estimate   =  -12741.60410161 Ry
     estimated scf accuracy    <       8.08236867 Ry

     total magnetization       =    -0.00 Bohr mag/cell
     absolute magnetization    =     0.01 Bohr mag/cell

     iteration # 24     ecut=    80.00 Ry     beta=0.70
     Davidson diagonalization with overlap
     ethr =  3.61E-04,  avg # of iterations =  4.2

     negative rho (up, down):  3.812E-01 3.812E-01

     total cpu time spent up to now is    15807.3 secs

     total energy              =  -12740.42461698 Ry
     Harris-Foulkes estimate   =  -12740.73921331 Ry
     estimated scf accuracy    <       1.61496827 Ry

     total magnetization       =    -0.00 Bohr mag/cell
     absolute magnetization    =     0.01 Bohr mag/cell

     iteration # 25     ecut=    80.00 Ry     beta=0.70
     Davidson diagonalization with overlap
     ethr =  1.24E-04,  avg # of iterations =  8.8

     negative rho (up, down):  4.880E-01 4.880E-01

     total cpu time spent up to now is    16330.7 secs

     total energy              =  -12740.28572227 Ry
     Harris-Foulkes estimate   =  -12740.49532772 Ry
     estimated scf accuracy    <       1.05267806 Ry

     total magnetization       =    -0.00 Bohr mag/cell
     absolute magnetization    =     0.01 Bohr mag/cell

     iteration # 26     ecut=    80.00 Ry     beta=0.70
     Davidson diagonalization with overlap
     ethr =  8.10E-05,  avg # of iterations =  7.8

     negative rho (up, down):  2.505E-01 2.505E-01

     total cpu time spent up to now is    16849.9 secs

     total energy              =  -12740.16098486 Ry
     Harris-Foulkes estimate   =  -12740.33040183 Ry
     estimated scf accuracy    <       0.50612372 Ry

     total magnetization       =    -0.00 Bohr mag/cell
     absolute magnetization    =     0.01 Bohr mag/cell

     iteration # 27     ecut=    80.00 Ry     beta=0.70
     Davidson diagonalization with overlap
     ethr =  3.90E-05,  avg # of iterations =  5.7

     negative rho (up, down):  2.067E-01 2.067E-01

     total cpu time spent up to now is    17324.2 secs

     total energy              =  -12740.15717112 Ry
     Harris-Foulkes estimate   =  -12740.21979641 Ry
     estimated scf accuracy    <       0.67794403 Ry

     total magnetization       =     0.00 Bohr mag/cell
     absolute magnetization    =     0.00 Bohr mag/cell

     iteration # 28     ecut=    80.00 Ry     beta=0.70
     Davidson diagonalization with overlap
     ethr =  3.90E-05,  avg # of iterations =  7.5

     negative rho (up, down):  1.295E-01 1.295E-01

     total cpu time spent up to now is    17825.1 secs

     total energy              =  -12740.10991192 Ry
     Harris-Foulkes estimate   =  -12740.17862118 Ry
     estimated scf accuracy    <       0.44029179 Ry

     total magnetization       =     0.00 Bohr mag/cell
     absolute magnetization    =     0.00 Bohr mag/cell

     iteration # 29     ecut=    80.00 Ry     beta=0.70
     Davidson diagonalization with overlap
     ethr =  3.39E-05,  avg # of iterations =  3.0

     negative rho (up, down):  5.276E-02 5.276E-02

     total cpu time spent up to now is    18208.9 secs

     total energy              =  -12740.14200039 Ry
     Harris-Foulkes estimate   =  -12740.16705146 Ry
     estimated scf accuracy    <       0.16444779 Ry

     total magnetization       =     0.00 Bohr mag/cell
     absolute magnetization    =     0.00 Bohr mag/cell

     iteration # 30     ecut=    80.00 Ry     beta=0.70
     Davidson diagonalization with overlap
     ethr =  1.27E-05,  avg # of iterations = 12.0

     negative rho (up, down):  8.337E-03 8.337E-03

     total cpu time spent up to now is    18822.4 secs

     total energy              =  -12740.14779772 Ry
     Harris-Foulkes estimate   =  -12740.15397430 Ry
     estimated scf accuracy    <       0.05681666 Ry

     total magnetization       =     0.00 Bohr mag/cell
     absolute magnetization    =     0.00 Bohr mag/cell

     iteration # 31     ecut=    80.00 Ry     beta=0.70
     Davidson diagonalization with overlap
     c_bands:  2 eigenvalues not converged
     c_bands:  1 eigenvalues not converged
     c_bands:  2 eigenvalues not converged
     c_bands:  1 eigenvalues not converged
     ethr =  4.37E-06,  avg # of iterations = 12.9

     negative rho (up, down):  1.147E-02 1.147E-02

     total cpu time spent up to now is    19465.2 secs

     total energy              =  -12740.14752285 Ry
     Harris-Foulkes estimate   =  -12740.15053423 Ry
     estimated scf accuracy    <       0.02321351 Ry

     total magnetization       =     0.00 Bohr mag/cell
     absolute magnetization    =     0.00 Bohr mag/cell

     iteration # 32     ecut=    80.00 Ry     beta=0.70
     Davidson diagonalization with overlap
     ethr =  1.79E-06,  avg # of iterations =  9.6

     negative rho (up, down):  6.755E-03 6.755E-03

     total cpu time spent up to now is    20023.4 secs

     total energy              =  -12740.14703670 Ry
     Harris-Foulkes estimate   =  -12740.14972805 Ry
     estimated scf accuracy    <       0.01744362 Ry

     total magnetization       =     0.00 Bohr mag/cell
     absolute magnetization    =     0.00 Bohr mag/cell

     iteration # 33     ecut=    80.00 Ry     beta=0.70
     Davidson diagonalization with overlap
     ethr =  1.34E-06,  avg # of iterations =  4.7

     negative rho (up, down):  1.636E-03 1.636E-03

     total cpu time spent up to now is    20449.3 secs

     total energy              =  -12740.14772401 Ry
     Harris-Foulkes estimate   =  -12740.14856236 Ry
     estimated scf accuracy    <       0.00413850 Ry

     total magnetization       =    -0.00 Bohr mag/cell
     absolute magnetization    =     0.00 Bohr mag/cell

     iteration # 34     ecut=    80.00 Ry     beta=0.70
     Davidson diagonalization with overlap
     ethr =  3.19E-07,  avg # of iterations =  5.3

     negative rho (up, down):  4.308E-04 4.308E-04

     total cpu time spent up to now is    20903.8 secs

     total energy              =  -12740.14846399 Ry
     Harris-Foulkes estimate   =  -12740.14811601 Ry
     estimated scf accuracy    <       0.00075979 Ry

     total magnetization       =    -0.00 Bohr mag/cell
     absolute magnetization    =     0.00 Bohr mag/cell

     iteration # 35     ecut=    80.00 Ry     beta=0.70
     Davidson diagonalization with overlap
     ethr =  5.85E-08,  avg # of iterations =  7.7

     negative rho (up, down):  2.900E-04 2.900E-04

     total cpu time spent up to now is    21430.8 secs

     total energy              =  -12740.14860703 Ry
     Harris-Foulkes estimate   =  -12740.14852864 Ry
     estimated scf accuracy    <       0.00018841 Ry

     total magnetization       =    -0.00 Bohr mag/cell
     absolute magnetization    =     0.00 Bohr mag/cell

     iteration # 36     ecut=    80.00 Ry     beta=0.70
     Davidson diagonalization with overlap
     ethr =  1.45E-08,  avg # of iterations =  8.2

     negative rho (up, down):  1.036E-03 1.036E-03

     total cpu time spent up to now is    21953.2 secs

     total energy              =  -12740.14869991 Ry
     Harris-Foulkes estimate   =  -12740.14863009 Ry
     estimated scf accuracy    <       0.00009118 Ry

     total magnetization       =    -0.00 Bohr mag/cell
     absolute magnetization    =     0.00 Bohr mag/cell

     iteration # 37     ecut=    80.00 Ry     beta=0.70
     Davidson diagonalization with overlap
     ethr =  7.02E-09,  avg # of iterations =  5.8

     negative rho (up, down):  8.942E-04 8.942E-04

     total cpu time spent up to now is    22422.1 secs

     total energy              =  -12740.14872549 Ry
     Harris-Foulkes estimate   =  -12740.14870952 Ry
     estimated scf accuracy    <       0.00001230 Ry

     total magnetization       =     0.00 Bohr mag/cell
     absolute magnetization    =     0.00 Bohr mag/cell

     iteration # 38     ecut=    80.00 Ry     beta=0.70
     Davidson diagonalization with overlap
     ethr =  9.47E-10,  avg # of iterations =  2.8

     negative rho (up, down):  1.096E-03 1.096E-03

     total cpu time spent up to now is    22833.7 secs

     total energy              =  -12740.14874369 Ry
     Harris-Foulkes estimate   =  -12740.14872723 Ry
     estimated scf accuracy    <       0.00000641 Ry

     total magnetization       =     0.00 Bohr mag/cell
     absolute magnetization    =     0.00 Bohr mag/cell

     iteration # 39     ecut=    80.00 Ry     beta=0.70
     Davidson diagonalization with overlap
     ethr =  4.94E-10,  avg # of iterations =  5.2

     negative rho (up, down):  9.655E-04 9.655E-04

     total cpu time spent up to now is    23275.1 secs

     total energy              =  -12740.14874790 Ry
     Harris-Foulkes estimate   =  -12740.14874428 Ry
     estimated scf accuracy    <       0.00000185 Ry

     total magnetization       =     0.00 Bohr mag/cell
     absolute magnetization    =     0.00 Bohr mag/cell

     iteration # 40     ecut=    80.00 Ry     beta=0.70
     Davidson diagonalization with overlap
     ethr =  1.43E-10,  avg # of iterations =  3.0

     negative rho (up, down):  1.033E-03 1.033E-03

     total cpu time spent up to now is    23694.5 secs

     total energy              =  -12740.14874906 Ry
     Harris-Foulkes estimate   =  -12740.14874819 Ry
     estimated scf accuracy    <       0.00000061 Ry

     total magnetization       =    -0.00 Bohr mag/cell
     absolute magnetization    =     0.00 Bohr mag/cell

     iteration # 41     ecut=    80.00 Ry     beta=0.70
     Davidson diagonalization with overlap
     ethr =  4.66E-11,  avg # of iterations =  2.8

     negative rho (up, down):  1.049E-03 1.049E-03

     total cpu time spent up to now is    24076.1 secs

     total energy              =  -12740.14874938 Ry
     Harris-Foulkes estimate   =  -12740.14874913 Ry
     estimated scf accuracy    <       0.00000012 Ry

     total magnetization       =    -0.00 Bohr mag/cell
     absolute magnetization    =     0.00 Bohr mag/cell

     iteration # 42     ecut=    80.00 Ry     beta=0.70
     Davidson diagonalization with overlap
     ethr =  9.24E-12,  avg # of iterations =  3.0

     negative rho (up, down):  1.045E-03 1.045E-03

     total cpu time spent up to now is    24505.1 secs

     total energy              =  -12740.14874942 Ry
     Harris-Foulkes estimate   =  -12740.14874940 Ry
     estimated scf accuracy    <       0.00000004 Ry

     total magnetization       =    -0.00 Bohr mag/cell
     absolute magnetization    =     0.00 Bohr mag/cell

     iteration # 43     ecut=    80.00 Ry     beta=0.70
     Davidson diagonalization with overlap
     ethr =  3.03E-12,  avg # of iterations =  2.7

     negative rho (up, down):  1.043E-03 1.043E-03

     total cpu time spent up to now is    24902.5 secs

     total energy              =  -12740.14874942 Ry
     Harris-Foulkes estimate   =  -12740.14874943 Ry
     estimated scf accuracy    <       0.00000001 Ry

     total magnetization       =    -0.00 Bohr mag/cell
     absolute magnetization    =     0.00 Bohr mag/cell

     iteration # 44     ecut=    80.00 Ry     beta=0.70
     Davidson diagonalization with overlap
     ethr =  9.22E-13,  avg # of iterations =  3.0

     negative rho (up, down):  1.033E-03 1.033E-03
 
     Magnetic moment per site:
     atom:    1    charge:    8.6069    magn:   -0.0000    constr:    0.0000
     atom:    2    charge:    8.6068    magn:    0.0000    constr:    0.0000
     atom:    3    charge:    8.6068    magn:   -0.0000    constr:    0.0000
     atom:    4    charge:    8.6067    magn:    0.0000    constr:    0.0000
     atom:    5    charge:    8.6064    magn:    0.0000    constr:    0.0000
     atom:    6    charge:    8.6063    magn:    0.0000    constr:    0.0000
     atom:    7    charge:    8.6065    magn:    0.0000    constr:    0.0000
     atom:    8    charge:    8.6064    magn:    0.0000    constr:    0.0000
     atom:    9    charge:    8.6065    magn:    0.0000    constr:    0.0000
     atom:   10    charge:    8.6065    magn:    0.0000    constr:    0.0000
     atom:   11    charge:    8.6066    magn:    0.0000    constr:    0.0000
     atom:   12    charge:    8.6065    magn:    0.0000    constr:    0.0000
     atom:   13    charge:    8.6065    magn:   -0.0000    constr:    0.0000
     atom:   14    charge:    8.6067    magn:   -0.0000    constr:    0.0000
     atom:   15    charge:    8.6066    magn:    0.0000    constr:    0.0000
     atom:   16    charge:    8.6066    magn:    0.0000    constr:    0.0000
     atom:   17    charge:    8.6067    magn:    0.0000    constr:    0.0000
     atom:   18    charge:    8.6070    magn:    0.0000    constr:    0.0000
     atom:   19    charge:    8.6066    magn:   -0.0000    constr:    0.0000
     atom:   20    charge:    8.6070    magn:   -0.0000    constr:    0.0000
     atom:   21    charge:    8.6089    magn:   -0.0000    constr:    0.0000
     atom:   22    charge:    8.6091    magn:   -0.0000    constr:    0.0000
     atom:   23    charge:    8.6088    magn:    0.0000    constr:    0.0000
     atom:   24    charge:    8.6091    magn:   -0.0000    constr:    0.0000
     atom:   25    charge:    8.6088    magn:   -0.0000    constr:    0.0000
     atom:   26    charge:    8.6088    magn:    0.0000    constr:    0.0000
     atom:   27    charge:    8.6088    magn:   -0.0000    constr:    0.0000
     atom:   28    charge:    8.6087    magn:   -0.0000    constr:    0.0000
     atom:   29    charge:    8.6084    magn:   -0.0000    constr:    0.0000
     atom:   30    charge:    8.6083    magn:    0.0000    constr:    0.0000
     atom:   31    charge:    8.6085    magn:   -0.0000    constr:    0.0000
     atom:   32    charge:    8.6084    magn:    0.0000    constr:    0.0000
     atom:   33    charge:    8.6090    magn:   -0.0000    constr:    0.0000
     atom:   34    charge:    8.6088    magn:   -0.0000    constr:    0.0000
     atom:   35    charge:    8.6091    magn:   -0.0000    constr:    0.0000
     atom:   36    charge:    8.6087    magn:   -0.0000    constr:    0.0000
     atom:   37    charge:    8.6089    magn:    0.0000    constr:    0.0000
     atom:   38    charge:    8.6089    magn:    0.0000    constr:    0.0000
     atom:   39    charge:    8.6087    magn:    0.0000    constr:    0.0000
     atom:   40    charge:    8.6090    magn:   -0.0000    constr:    0.0000
     atom:   41    charge:    8.6083    magn:    0.0000    constr:    0.0000
     atom:   42    charge:    8.6074    magn:   -0.0000    constr:    0.0000
     atom:   43    charge:    8.6081    magn:   -0.0000    constr:    0.0000
     atom:   44    charge:    8.6083    magn:    0.0000    constr:    0.0000
     atom:   45    charge:    8.6081    magn:    0.0000    constr:    0.0000
     atom:   46    charge:    8.6099    magn:    0.0000    constr:    0.0000
     atom:   47    charge:    8.6084    magn:    0.0000    constr:    0.0000
     atom:   48    charge:    8.6085    magn:    0.0000    constr:    0.0000
     atom:   49    charge:    8.6082    magn:   -0.0000    constr:    0.0000
     atom:   50    charge:    8.6092    magn:    0.0000    constr:    0.0000
     atom:   51    charge:    8.6085    magn:    0.0000    constr:    0.0000
     atom:   52    charge:    8.6081    magn:   -0.0000    constr:    0.0000
     atom:   53    charge:    8.6081    magn:    0.0000    constr:    0.0000
     atom:   54    charge:    8.6077    magn:    0.0000    constr:    0.0000
     atom:   55    charge:    8.6087    magn:    0.0000    constr:    0.0000
     atom:   56    charge:    8.6086    magn:    0.0000    constr:    0.0000
     atom:   57    charge:    8.6084    magn:   -0.0000    constr:    0.0000
     atom:   58    charge:    8.6084    magn:    0.0000    constr:    0.0000
     atom:   59    charge:    8.6084    magn:   -0.0000    constr:    0.0000
     atom:   60    charge:    8.6081    magn:   -0.0000    constr:    0.0000
     atom:   61    charge:    8.6099    magn:    0.0000    constr:    0.0000
     atom:   62    charge:    8.6095    magn:    0.0000    constr:    0.0000
     atom:   63    charge:    8.6097    magn:    0.0000    constr:    0.0000
     atom:   64    charge:    8.6095    magn:    0.0000    constr:    0.0000
     atom:   65    charge:    8.6090    magn:   -0.0000    constr:    0.0000
     atom:   66    charge:    8.6088    magn:   -0.0000    constr:    0.0000
     atom:   67    charge:    8.6118    magn:    0.0000    constr:    0.0000
     atom:   68    charge:    8.6103    magn:    0.0000    constr:    0.0000
     atom:   69    charge:    8.6092    magn:   -0.0000    constr:    0.0000
     atom:   70    charge:    8.6179    magn:    0.0000    constr:    0.0000
     atom:   71    charge:    8.6126    magn:    0.0000    constr:    0.0000
     atom:   72    charge:    8.6105    magn:   -0.0000    constr:    0.0000
     atom:   73    charge:    8.6100    magn:   -0.0000    constr:    0.0000
     atom:   74    charge:    8.6102    magn:    0.0000    constr:    0.0000
     atom:   75    charge:    8.6103    magn:   -0.0000    constr:    0.0000
     atom:   76    charge:    8.6101    magn:   -0.0000    constr:    0.0000
     atom:   77    charge:    8.6093    magn:    0.0000    constr:    0.0000
     atom:   78    charge:    8.6099    magn:    0.0000    constr:    0.0000
     atom:   79    charge:    8.6094    magn:   -0.0000    constr:    0.0000
     atom:   80    charge:    8.6098    magn:    0.0000    constr:    0.0000
     atom:   81    charge:    8.6130    magn:   -0.0000    constr:    0.0000
     atom:   82    charge:    8.6144    magn:   -0.0000    constr:    0.0000
     atom:   83    charge:    8.6126    magn:   -0.0000    constr:    0.0000
     atom:   84    charge:    8.6132    magn:   -0.0000    constr:    0.0000
     atom:   85    charge:    8.6150    magn:   -0.0000    constr:    0.0000
     atom:   86    charge:    8.6121    magn:   -0.0000    constr:    0.0000
     atom:   87    charge:    8.6137    magn:   -0.0000    constr:    0.0000
     atom:   88    charge:    8.6158    magn:   -0.0000    constr:    0.0000
     atom:   89    charge:    8.6173    magn:    0.0000    constr:    0.0000
     atom:   90    charge:    8.6151    magn:   -0.0000    constr:    0.0000
     atom:   91    charge:    8.6239    magn:    0.0000    constr:    0.0000
     atom:   92    charge:    8.6140    magn:   -0.0000    constr:    0.0000
     atom:   93    charge:    8.6126    magn:   -0.0000    constr:    0.0000
     atom:   94    charge:    8.6142    magn:    0.0000    constr:    0.0000
     atom:   95    charge:    8.6148    magn:    0.0000    constr:    0.0000
     atom:   96    charge:    8.6130    magn:    0.0000    constr:    0.0000
     atom:   97    charge:    8.6121    magn:   -0.0000    constr:    0.0000
     atom:   98    charge:    8.6122    magn:   -0.0000    constr:    0.0000
     atom:   99    charge:    8.6134    magn:   -0.0000    constr:    0.0000
     atom:  100    charge:    8.6129    magn:    0.0000    constr:    0.0000
     atom:  101    charge:    1.7083    magn:    0.0000    constr:    0.0000
     atom:  102    charge:    1.7089    magn:    0.0000    constr:    0.0000
     atom:  103    charge:    1.7073    magn:   -0.0000    constr:    0.0000
     atom:  104    charge:    1.7056    magn:   -0.0000    constr:    0.0000
     atom:  105    charge:    1.7039    magn:   -0.0000    constr:    0.0000
     atom:  106    charge:    1.7058    magn:    0.0000    constr:    0.0000
     atom:  107    charge:    1.7080    magn:   -0.0000    constr:    0.0000
     atom:  108    charge:    1.7055    magn:   -0.0000    constr:    0.0000
     atom:  109    charge:    1.7038    magn:    0.0000    constr:    0.0000
     atom:  110    charge:    1.7050    magn:   -0.0000    constr:    0.0000
     atom:  111    charge:    1.7047    magn:   -0.0000    constr:    0.0000
     atom:  112    charge:    1.7042    magn:    0.0000    constr:    0.0000
     atom:  113    charge:    1.7045    magn:    0.0000    constr:    0.0000
     atom:  114    charge:    1.7001    magn:   -0.0000    constr:    0.0000
     atom:  115    charge:    1.6996    magn:    0.0000    constr:    0.0000
     atom:  116    charge:    1.6969    magn:   -0.0000    constr:    0.0000
     atom:  117    charge:    1.6939    magn:   -0.0000    constr:    0.0000
     atom:  118    charge:    1.6663    magn:    0.0000    constr:    0.0000
     atom:  119    charge:    1.7018    magn:    0.0000    constr:    0.0000
     atom:  120    charge:    2.6510    magn:   -0.0000    constr:    0.0000
     atom:  121    charge:    2.0466    magn:    0.0000    constr:    0.0000
     atom:  122    charge:    0.4071    magn:   -0.0000    constr:    0.0000
     atom:  123    charge:    1.7047    magn:   -0.0000    constr:    0.0000
     atom:  124    charge:    1.6750    magn:    0.0000    constr:    0.0000
     atom:  125    charge:    1.7043    magn:   -0.0000    constr:    0.0000
     atom:  126    charge:    1.7062    magn:    0.0000    constr:    0.0000
     atom:  127    charge:    1.7016    magn:    0.0000    constr:    0.0000
     atom:  128    charge:    1.7046    magn:   -0.0000    constr:    0.0000
     atom:  129    charge:    1.6946    magn:    0.0000    constr:    0.0000
     atom:  130    charge:    1.7027    magn:    0.0000    constr:    0.0000
     atom:  131    charge:    1.7010    magn:   -0.0000    constr:    0.0000
     atom:  132    charge:    1.7037    magn:   -0.0000    constr:    0.0000
     atom:  133    charge:    1.6742    magn:    0.0000    constr:    0.0000
     atom:  134    charge:    1.7051    magn:    0.0000    constr:    0.0000
     atom:  135    charge:    1.7043    magn:    0.0000    constr:    0.0000
     atom:  136    charge:    1.7039    magn:   -0.0000    constr:    0.0000
     atom:  137    charge:    1.7091    magn:   -0.0000    constr:    0.0000
     atom:  138    charge:    1.7030    magn:    0.0000    constr:    0.0000
     atom:  139    charge:    1.7037    magn:   -0.0000    constr:    0.0000
     atom:  140    charge:    1.7074    magn:    0.0000    constr:    0.0000
     atom:  141    charge:    1.7023    magn:    0.0000    constr:    0.0000
     atom:  142    charge:    1.7061    magn:    0.0000    constr:    0.0000
     atom:  143    charge:    1.7054    magn:   -0.0000    constr:    0.0000
     atom:  144    charge:    1.7052    magn:    0.0000    constr:    0.0000
     atom:  145    charge:    1.7058    magn:    0.0000    constr:    0.0000
     atom:  146    charge:    1.7082    magn:   -0.0000    constr:    0.0000
     atom:  147    charge:    1.7038    magn:   -0.0000    constr:    0.0000
     atom:  148    charge:    1.7045    magn:    0.0000    constr:    0.0000
     atom:  149    charge:    1.7012    magn:   -0.0000    constr:    0.0000
     atom:  150    charge:    1.7046    magn:    0.0000    constr:    0.0000

     total cpu time spent up to now is    25354.4 secs

     End of self-consistent calculation

 ------ SPIN UP ------------


          k = 0.0000 0.0000 0.0000 (256287 PWs)   bands (ev):

   -17.9897 -17.1011 -16.1774 -16.0112 -15.3594 -14.9635 -14.6988 -14.5976
   -14.1976 -14.1370 -14.0609 -14.0518 -13.4030 -13.2551 -13.1011 -13.0525
   -13.0114 -12.9910 -11.6074 -11.4694 -11.4279 -11.3245 -11.1438 -10.2735
    -9.7155  -9.7044  -9.5579  -9.4670  -8.9214  -8.7329  -8.6072  -8.5303
    -7.9733  -7.8410  -7.6982  -7.5881  -7.5109  -7.5017  -7.4641  -7.4445
    -6.3605  -6.2909  -6.2757  -6.0603  -5.9713  -5.9525  -5.8862  -5.8225
    -5.7902  -5.7814  -5.4546  -5.4332  -5.0661  -4.7980  -4.7480  -4.6846
    -4.5934  -4.5719  -4.5074  -4.3688  -4.1474  -4.0959  -3.9865  -3.9564
    -3.9099  -3.8818  -3.5737  -3.5412  -3.5134  -3.4745  -3.4545  -3.4035
    -3.3659  -3.3549  -3.3439  -3.2895  -3.0926  -3.0644  -3.0480  -2.9862
    -2.9712  -2.9503  -2.9415  -2.9172  -2.8918  -2.8214  -2.7955  -2.7300
    -2.6976  -2.6728  -2.6622  -2.6480  -2.5947  -2.5448  -2.4590  -2.3276
    -2.2995  -2.2826  -2.2613  -2.1963  -2.1575  -2.1515  -2.1371  -2.1295
    -2.1196  -2.1179  -2.1165  -2.1150  -2.0216  -2.0171  -1.9973  -1.9863
    -1.9780  -1.9696  -1.9667  -1.9118  -1.8893  -1.7980  -1.7403  -1.7047
    -1.7035  -1.6869  -1.6840  -1.6502  -1.6428  -1.6296  -1.6198  -1.6188
    -1.5763  -1.5726  -1.5366  -1.5277  -1.5270  -1.5183  -1.5168  -1.5033
    -1.5002  -1.4867  -1.4819  -1.4771  -1.4403  -1.4187  -1.3764  -1.3468
    -1.3412  -1.3302  -1.3167  -1.3131  -1.3032  -1.2631  -1.2458  -1.2252
    -1.2223  -1.2143  -1.1775  -1.1746  -1.1739  -1.1567  -1.1513  -1.1306
    -1.1268  -1.0888  -1.0629  -1.0565  -1.0473  -1.0308  -1.0204  -1.0074
    -1.0037  -1.0003  -0.9888  -0.9883  -0.9872  -0.9829  -0.9658  -0.9614
    -0.9524  -0.9499  -0.9368  -0.9178  -0.9123  -0.9017  -0.8956  -0.8917
    -0.8861  -0.8802  -0.8766  -0.8604  -0.8421  -0.8301  -0.8264  -0.8218
    -0.8200  -0.8191  -0.8177  -0.8169  -0.8162  -0.8137  -0.8109  -0.8096
    -0.8077  -0.8068  -0.8063  -0.7983  -0.7913  -0.7764  -0.7646  -0.7442
    -0.7316  -0.6894  -0.6591  -0.6512  -0.6500  -0.6424  -0.6331  -0.6270
    -0.6140  -0.6062  -0.6047  -0.5849  -0.5828  -0.5743  -0.5637  -0.5623
    -0.5563  -0.5529  -0.5291  -0.5227  -0.5216  -0.5202  -0.5186  -0.5067
    -0.5038  -0.4774  -0.4585  -0.4571  -0.4066  -0.4049  -0.4018  -0.4006
    -0.3826  -0.3771  -0.3727  -0.3718  -0.3695  -0.3668  -0.3628  -0.3621
    -0.3589  -0.3521  -0.3495  -0.3467  -0.3441  -0.3404  -0.3347  -0.3316
    -0.3167  -0.3073  -0.2659  -0.2603  -0.2597  -0.2543  -0.2504  -0.2335
    -0.2277  -0.2246  -0.2231  -0.2179  -0.2155  -0.2117  -0.2075  -0.2036
    -0.1927  -0.1866  -0.1846  -0.1832  -0.1799  -0.1784  -0.1765  -0.1725
    -0.1608  -0.1601  -0.1552  -0.1478  -0.1465  -0.1452  -0.1384  -0.1241
    -0.0962  -0.0915  -0.0865  -0.0734  -0.0566  -0.0524  -0.0401  -0.0376
    -0.0337  -0.0313  -0.0252  -0.0232  -0.0225  -0.0200  -0.0143  -0.0088
    -0.0014   0.0140   0.0253   0.0277   0.0337   0.0408   0.0450   0.0547
     0.0568   0.0605   0.0616   0.0643   0.0720   0.0789   0.0843   0.0862
     0.0883   0.0892   0.0976   0.0993   0.1013   0.1070   0.1092   0.1110
     0.1251   0.1307   0.1339   0.1386   0.1475   0.1629   0.1677   0.1920
     0.1980   0.2001   0.2231   0.2244   0.2481   0.2566   0.2652   0.2710
     0.2749   0.2759   0.2839   0.2891   0.2903   0.2986   0.3085   0.3175
     0.3269   0.3326   0.3549   0.3608   0.3664   0.3697   0.3823   0.3837
     0.3846   0.3930   0.4063   0.4150   0.4189   0.4230   0.4293   0.4310
     0.4436   0.4497   0.4568   0.4624   0.4633   0.4726   0.4800   0.4867
     0.5058   0.5086   0.5185   0.5237   0.5285   0.5326   0.5395   0.5414
     0.5491   0.5512   0.5557   0.5713   0.5745   0.5769   0.5779   0.5809
     0.5823   0.5839   0.5884   0.5913   0.5939   0.5972   0.6030   0.6046
     0.6107   0.6118   0.6282   0.6413   0.6424   0.6483   0.6497   0.6655
     0.6714   0.6833   0.6849   0.6882   0.6922   0.6939   0.6962   0.7006
     0.7047   0.7138   0.7148   0.7199   0.7227   0.7291   0.7309   0.7361
     0.7389   0.7446   0.7491   0.7525   0.7559   0.7634   0.7688   0.7788
     0.7812   0.7845   0.7858   0.7880   0.7923   0.7924   0.7930   0.7955
     0.8026   0.8059   0.8154   0.8222   0.8388   0.8463   0.8485   0.8501
     0.8539   0.8662   0.8689   0.8707   0.8785   0.8884   0.8938   0.9002
     0.9065   0.9185   0.9225   0.9247   0.9316   0.9346   0.9386   0.9433
     0.9443   0.9498   0.9525   0.9655   0.9742   0.9756   0.9793   0.9829
     0.9858   0.9866   0.9969   1.0001   1.0149   1.0168   1.0183   1.0215
     1.0265   1.0305   1.0360   1.0470   1.0506   1.0517   1.0550   1.0565
     1.0637   1.0656   1.0680   1.0725   1.0798   1.0815   1.0829   1.0896
     1.0929   1.0953   1.0980   1.1099   1.1140   1.1231   1.1318   1.1344
     1.1409   1.1423   1.1465   1.1553   1.1575   1.1588   1.1599   1.1623
     1.1640   1.1644   1.1718   1.1781   1.1819   1.1936   1.2007   1.2060
     1.2198   1.2201   1.2280   1.2341   1.2438   1.2442   1.2467   1.2480
     1.2531   1.2536   1.2564   1.2654   1.2703   1.2706   1.2733   1.2746
     1.2829   1.2882   1.2915   1.2950   1.3023   1.3054   1.3087   1.3120
     1.3168   1.3180   1.3207   1.3243   1.3273   1.3360   1.3389   1.3407
     1.3456   1.3470   1.3523   1.3548   1.3553   1.3578   1.3593   1.3658
     1.3667   1.3698   1.3865   1.3908   1.3922   1.3940   1.3974   1.4030
     1.4052   1.4075   1.4122   1.4275   1.4312   1.4315   1.4427   1.4435
     1.4466   1.4523   1.4597   1.4605   1.4626   1.4650   1.4698   1.4712
     1.4727   1.4744   1.4760   1.4798   1.4804   1.4832   1.4880   1.4935
     1.4958   1.5038   1.5049   1.5090   1.5172   1.5179   1.5200   1.5292
     1.5308   1.5538   1.5577   1.5595   1.5620   1.5662   1.5890   1.5969
     1.6037   1.6138   1.6219   1.6388   1.6408   1.6486   1.6487   1.6637
     1.6707   1.6725   1.6847   1.6869   1.6894   1.7429   1.7990   1.8683
     1.9230   2.0000   2.1574   2.1817   2.1976   2.2206   2.2299   2.2378
     2.2461   2.2534   2.2576   2.2652   2.2673   2.3249   2.4506   2.4636
     2.4982   2.5000   2.5029   2.5864   2.6210   2.6329   2.6844   2.7600
     2.7817   2.8402   2.9986   3.0494   3.0685   3.1084   3.2758   3.5875
     3.5958   3.8470   3.8691   3.8772   3.8838   3.8992   3.9682   3.9889
     4.0123   4.0209   4.0407   4.0421   4.0455   4.0482   4.0935   4.1125
     4.2058   4.2742   4.2938   4.3474   4.4162   4.4294   4.7346   4.7703
     4.8857   4.9279   4.9520   5.0399   5.3795   5.4168   5.4645   5.5117
     5.7555   5.7589   5.8438   5.8738   5.9614   5.9878   6.1863   6.3901
     6.4336   6.4443   6.4580   6.5116   6.5171   6.5379   6.6038   6.6271
     6.6850   6.7043   6.7939   6.8129   6.8142   6.8294   6.8543   6.8902
     7.0644   7.0977   7.1177   7.1737   7.2197   7.3805   7.3995   7.5214
     7.5514   7.6033   7.6208   7.7294   7.7654   7.8001   7.8233   8.0300
     8.0397   8.0836   8.1768   8.2349   8.2608   8.3118   8.3239   8.3251
     8.3605   8.3959   8.4054   8.4355   8.4427   8.4653   8.5647   8.5724
     8.6255   8.6717   8.7092   8.7198   8.7504   8.7944   8.8287   8.8297
     8.8951   8.9259   8.9323   8.9967   9.0979   9.1377   9.1449   9.1488
     9.1775   9.2701   9.3225   9.3555   9.3765   9.3912   9.4895   9.5057
     9.5209   9.6010   9.6187   9.6596   9.6910   9.7844   9.8731   9.9852
    10.0732  10.0860  10.1516  10.1806

          k = 0.0000-0.2165 0.0000 (256176 PWs)   bands (ev):

   -17.9897 -17.1005 -16.2393 -15.8333 -15.5801 -14.9817 -14.5854 -14.2942
   -14.2751 -14.1931 -14.1560 -13.7612 -13.7117 -13.6408 -13.6153 -12.5434
   -12.3680 -12.3223 -12.2425 -12.0760 -12.0127 -10.5900 -10.4932 -10.4675
   -10.3289  -9.3922  -9.3753  -9.2262  -9.0580  -8.9189  -8.8939  -8.3433
    -8.2282  -8.1413  -8.0899  -7.3991  -7.2727  -6.9514  -6.9096  -6.8432
    -6.8293  -6.7874  -6.7706  -6.3236  -6.1285  -6.0339  -5.8507  -5.8160
    -5.4635  -5.3336  -5.1613  -5.0961  -4.9540  -4.9298  -4.8476  -4.8140
    -4.8028  -4.6881  -4.5693  -4.5504  -4.4701  -4.4239  -4.0818  -4.0604
    -3.7599  -3.6287  -3.6103  -3.5539  -3.4400  -3.3831  -3.2680  -3.2605
    -3.2387  -3.1986  -3.1817  -3.1629  -3.0389  -3.0350  -3.0198  -2.9825
    -2.9575  -2.9406  -2.8502  -2.8356  -2.8258  -2.7928  -2.7686  -2.7324
    -2.7070  -2.6483  -2.5482  -2.5444  -2.5437  -2.5428  -2.5401  -2.5359
    -2.5168  -2.4778  -2.3801  -2.2846  -2.2564  -2.2123  -2.2048  -2.2026
    -2.1802  -2.1423  -2.1071  -2.0842  -2.0708  -2.0569  -1.9916  -1.9711
    -1.9514  -1.9490  -1.9206  -1.9200  -1.8276  -1.7954  -1.7635  -1.7337
    -1.7270  -1.7209  -1.7135  -1.7098  -1.7051  -1.6891  -1.6861  -1.6846
    -1.6654  -1.6511  -1.6094  -1.6085  -1.5805  -1.5400  -1.5179  -1.4835
    -1.4567  -1.4287  -1.4248  -1.4173  -1.3938  -1.3336  -1.3297  -1.3152
    -1.2999  -1.2814  -1.2797  -1.2786  -1.2413  -1.2402  -1.2398  -1.2349
    -1.2339  -1.2333  -1.2091  -1.2025  -1.1942  -1.1903  -1.1896  -1.1867
    -1.1656  -1.1390  -1.1252  -1.1176  -1.1077  -1.1013  -1.0592  -1.0519
    -1.0359  -1.0315  -1.0167  -1.0130  -1.0098  -1.0086  -0.9741  -0.9670
    -0.9469  -0.9464  -0.9445  -0.9408  -0.9383  -0.9095  -0.8931  -0.8903
    -0.8836  -0.8815  -0.8753  -0.8735  -0.8643  -0.8590  -0.8429  -0.8217
    -0.7981  -0.7906  -0.7897  -0.7860  -0.7819  -0.7805  -0.7739  -0.7659
    -0.7596  -0.7443  -0.7425  -0.7225  -0.7210  -0.7152  -0.7048  -0.6684
    -0.6241  -0.6225  -0.6153  -0.6131  -0.5977  -0.5971  -0.5742  -0.5727
    -0.5681  -0.5655  -0.5651  -0.5643  -0.5607  -0.5451  -0.5369  -0.5233
    -0.5220  -0.5143  -0.5087  -0.5068  -0.4979  -0.4969  -0.4937  -0.4708
    -0.4697  -0.4632  -0.4503  -0.4441  -0.4439  -0.4188  -0.4150  -0.4142
    -0.4090  -0.4071  -0.4040  -0.3965  -0.3904  -0.3818  -0.3790  -0.3619
    -0.3544  -0.3271  -0.3240  -0.3149  -0.3064  -0.2930  -0.2883  -0.2694
    -0.2670  -0.2623  -0.2597  -0.2561  -0.2529  -0.2517  -0.2413  -0.2341
    -0.2326  -0.2266  -0.2242  -0.2211  -0.2192  -0.2151  -0.2133  -0.2051
    -0.2005  -0.1971  -0.1953  -0.1929  -0.1855  -0.1751  -0.1656  -0.1651
    -0.1631  -0.1614  -0.1309  -0.1119  -0.1102  -0.1028  -0.1020  -0.0991
    -0.0974  -0.0922  -0.0866  -0.0795  -0.0738  -0.0682  -0.0641  -0.0607
    -0.0553  -0.0500  -0.0446  -0.0421  -0.0401  -0.0373  -0.0347  -0.0341
    -0.0317  -0.0138   0.0029   0.0051   0.0190   0.0243   0.0338   0.0360
     0.0421   0.0430   0.0471   0.0490   0.0526   0.0645   0.0684   0.0707
     0.0760   0.0822   0.0872   0.1012   0.1048   0.1102   0.1145   0.1154
     0.1180   0.1288   0.1360   0.1412   0.1504   0.1542   0.1642   0.1672
     0.1692   0.1723   0.1739   0.1867   0.2169   0.2234   0.2247   0.2324
     0.2346   0.2363   0.2436   0.2611   0.2717   0.2827   0.2880   0.2982
     0.3069   0.3311   0.3369   0.3448   0.3564   0.3793   0.3824   0.4018
     0.4140   0.4266   0.4285   0.4328   0.4414   0.4467   0.4569   0.4656
     0.4692   0.4755   0.4768   0.4789   0.4894   0.4949   0.4964   0.5008
     0.5028   0.5043   0.5084   0.5136   0.5195   0.5231   0.5276   0.5289
     0.5498   0.5552   0.5599   0.5612   0.5677   0.5709   0.5733   0.5755
     0.5802   0.5803   0.5806   0.5868   0.5931   0.5972   0.5979   0.6010
     0.6022   0.6111   0.6139   0.6194   0.6229   0.6233   0.6264   0.6288
     0.6304   0.6355   0.6407   0.6448   0.6473   0.6666   0.6803   0.6832
     0.6974   0.6999   0.7039   0.7050   0.7079   0.7141   0.7166   0.7197
     0.7221   0.7254   0.7266   0.7294   0.7374   0.7393   0.7634   0.7641
     0.7670   0.7682   0.7721   0.7776   0.7801   0.7845   0.7899   0.7965
     0.8017   0.8149   0.8199   0.8213   0.8216   0.8258   0.8330   0.8649
     0.8776   0.8787   0.9049   0.9111   0.9203   0.9290   0.9303   0.9350
     0.9384   0.9394   0.9403   0.9451   0.9471   0.9509   0.9563   0.9590
     0.9634   0.9683   0.9743   0.9811   0.9815   0.9857   0.9942   0.9983
     0.9987   0.9995   1.0082   1.0099   1.0109   1.0125   1.0158   1.0170
     1.0183   1.0227   1.0268   1.0284   1.0330   1.0334   1.0338   1.0365
     1.0411   1.0536   1.0579   1.0597   1.0618   1.0645   1.0692   1.0716
     1.0723   1.0774   1.0809   1.0840   1.0851   1.0921   1.1029   1.1087
     1.1254   1.1279   1.1350   1.1647   1.1663   1.1714   1.1746   1.1804
     1.1850   1.1924   1.2062   1.2088   1.2095   1.2123   1.2201   1.2222
     1.2292   1.2312   1.2323   1.2365   1.2390   1.2408   1.2419   1.2432
     1.2438   1.2479   1.2489   1.2553   1.2586   1.2598   1.2694   1.2706
     1.2723   1.2732   1.2760   1.2907   1.2924   1.3051   1.3070   1.3086
     1.3122   1.3135   1.3176   1.3208   1.3278   1.3333   1.3357   1.3373
     1.3394   1.3434   1.3506   1.3529   1.3550   1.3576   1.3674   1.3693
     1.3729   1.3782   1.3841   1.3881   1.3932   1.3991   1.4116   1.4140
     1.4166   1.4180   1.4236   1.4261   1.4271   1.4353   1.4375   1.4393
     1.4417   1.4555   1.4581   1.4649   1.4665   1.4678   1.4821   1.4851
     1.4860   1.4891   1.4923   1.4941   1.4947   1.4980   1.5119   1.5160
     1.5178   1.5233   1.5303   1.5305   1.5330   1.5368   1.5462   1.5486
     1.5632   1.5662   1.5678   1.5710   1.5777   1.5812   1.5870   1.6032
     1.6290   1.6310   1.6345   1.7235   1.7398   1.7476   1.7563   1.7581
     1.7618   1.7711   1.7773   1.7948   1.8030   1.8352   1.8419   1.8488
     1.8520   1.8578   1.8950   1.8988   1.9151   1.9558   1.9710   2.0974
     2.1305   2.1691   2.4578   2.4585   2.4724   2.5260   2.5389   2.5661
     2.5864   2.6079   2.6209   2.6259   2.7097   2.7415   2.7458   2.7760
     2.8090   2.8163   2.9306   2.9403   2.9633   2.9671   3.1985   3.2126
     3.2129   3.3979   3.4632   3.5997   3.6396   3.7944   3.8019   3.9033
     3.9731   4.0132   4.1371   4.1406   4.2097   4.2369   4.3501   4.3623
     4.4415   4.4694   4.5677   4.6621   4.7317   4.7927   4.8058   5.0206
     5.0760   5.1353   5.1424   5.2041   5.3666   5.3872   5.3919   5.4016
     5.4729   5.5385   5.6586   5.7029   5.7169   5.7790   5.8050   5.8537
     6.4116   6.4161   6.4812   6.4839   6.4866   6.6088   6.6224   6.6566
     6.6992   6.7609   6.8681   6.9292   7.0330   7.0547   7.0651   7.1145
     7.1339   7.1397   7.1615   7.1769   7.2228   7.2470   7.2947   7.3536
     7.4010   7.4814   7.5072   7.5671   7.6145   7.6551   7.7099   7.7441
     7.8485   8.0238   8.1913   8.2275   8.2948   8.3729   8.4003   8.4369
     8.4449   8.4690   8.4841   8.4884   8.5049   8.5338   8.6536   8.6571
     8.7469   8.7591   8.7786   8.7829   8.8368   8.8854   8.9367   8.9385
     8.9634   9.0171   9.0918   9.1195   9.2019   9.2419   9.2582   9.2899
     9.3029   9.3075   9.4035   9.4369   9.4455   9.4554   9.4730   9.4757
     9.5099   9.5296   9.5533   9.6019   9.6599   9.7263   9.8208   9.8358
     9.8582   9.9329   9.9346  10.1844

          k = 0.2500 0.0000 0.0000 (256240 PWs)   bands (ev):

   -17.9840 -17.0611 -16.0687 -15.8883 -15.5625 -15.0850 -14.9294 -14.8744
   -14.8133 -14.0449 -13.8759 -13.6922 -13.1827 -13.1075 -13.0221 -12.9695
   -12.2840 -12.1656 -12.0906 -12.0040 -11.1698 -11.0866 -10.7216 -10.6143
   -10.3051 -10.1463  -9.8855  -9.8272  -9.4323  -9.1975  -9.0832  -8.6339
    -7.9373  -7.7391  -7.6609  -7.5055  -7.4834  -7.3774  -7.0165  -6.9036
    -6.3297  -6.2412  -6.1657  -5.9801  -5.8980  -5.8512  -5.7885  -5.3925
    -5.2819  -5.2654  -5.2348  -4.9218  -4.8506  -4.5848  -4.5649  -4.4710
    -4.4435  -4.4379  -4.4086  -4.3517  -4.2970  -4.1648  -4.0472  -3.9849
    -3.9621  -3.9477  -3.8572  -3.8426  -3.8235  -3.7623  -3.7239  -3.5696
    -3.5334  -3.5092  -3.4947  -3.4649  -3.4438  -3.3647  -3.3579  -3.2706
    -3.1858  -3.1646  -3.1500  -2.9703  -2.9448  -2.8866  -2.8506  -2.8307
    -2.7563  -2.7398  -2.7106  -2.6291  -2.5988  -2.5543  -2.4759  -2.4362
    -2.3552  -2.3355  -2.2609  -2.2559  -2.0806  -2.0610  -2.0554  -2.0443
    -2.0298  -1.9997  -1.9455  -1.9356  -1.8984  -1.8293  -1.8202  -1.7825
    -1.7670  -1.7656  -1.7567  -1.7554  -1.7446  -1.7364  -1.7212  -1.7043
    -1.6854  -1.6804  -1.6692  -1.6643  -1.6438  -1.6038  -1.6004  -1.5667
    -1.5491  -1.5452  -1.5446  -1.5428  -1.5385  -1.5375  -1.4845  -1.4730
    -1.4670  -1.4550  -1.4518  -1.4042  -1.3606  -1.3332  -1.2967  -1.2824
    -1.2760  -1.2347  -1.2304  -1.2102  -1.2078  -1.2024  -1.1970  -1.1906
    -1.1726  -1.1613  -1.1564  -1.1521  -1.1496  -1.1475  -1.1397  -1.1327
    -1.1157  -1.1041  -1.0987  -1.0966  -1.0864  -1.0742  -1.0732  -1.0706
    -1.0561  -1.0483  -1.0244  -1.0179  -1.0103  -1.0093  -1.0005  -0.9918
    -0.9851  -0.9793  -0.9754  -0.9736  -0.9626  -0.9496  -0.9453  -0.9443
    -0.9421  -0.9403  -0.9400  -0.9367  -0.9349  -0.9261  -0.9159  -0.9131
    -0.9023  -0.8898  -0.8775  -0.8681  -0.8669  -0.8376  -0.8271  -0.8166
    -0.8141  -0.7846  -0.7797  -0.7695  -0.7662  -0.7579  -0.7385  -0.7364
    -0.7248  -0.7221  -0.7163  -0.7106  -0.7075  -0.6992  -0.6974  -0.6614
    -0.5764  -0.5716  -0.5630  -0.5513  -0.5378  -0.5344  -0.5302  -0.5228
    -0.5132  -0.5097  -0.5085  -0.5016  -0.4945  -0.4913  -0.4898  -0.4764
    -0.4698  -0.4641  -0.4620  -0.4543  -0.4491  -0.4436  -0.4365  -0.4305
    -0.4260  -0.4203  -0.4190  -0.3691  -0.3662  -0.3627  -0.3622  -0.3570
    -0.3520  -0.3491  -0.3475  -0.3381  -0.3268  -0.3149  -0.2981  -0.2914
    -0.2900  -0.2796  -0.2780  -0.2598  -0.2581  -0.2558  -0.2545  -0.2506
    -0.2491  -0.2456  -0.2331  -0.2284  -0.2187  -0.2138  -0.2089  -0.1991
    -0.1958  -0.1767  -0.1703  -0.1662  -0.1614  -0.1576  -0.1495  -0.1456
    -0.1435  -0.1403  -0.1157  -0.1125  -0.1104  -0.1020  -0.0964  -0.0910
    -0.0862  -0.0744  -0.0721  -0.0668  -0.0459  -0.0365  -0.0294  -0.0244
    -0.0170  -0.0111  -0.0075  -0.0006   0.0083   0.0196   0.0218   0.0289
     0.0299   0.0306   0.0345   0.0363   0.0408   0.0436   0.0463   0.0515
     0.0534   0.0573   0.0678   0.0730   0.0770   0.0808   0.0833   0.0949
     0.0985   0.1096   0.1159   0.1207   0.1275   0.1394   0.1413   0.1470
     0.1535   0.1581   0.1705   0.1737   0.1784   0.1811   0.1856   0.1870
     0.1950   0.2093   0.2224   0.2296   0.2370   0.2658   0.2715   0.2892
     0.2970   0.3002   0.3088   0.3131   0.3168   0.3196   0.3207   0.3228
     0.3256   0.3274   0.3310   0.3337   0.3350   0.3406   0.3431   0.3487
     0.3579   0.3613   0.3637   0.3716   0.3739   0.3791   0.3833   0.3867
     0.4076   0.4093   0.4226   0.4304   0.4429   0.4486   0.4544   0.4565
     0.4604   0.4767   0.4821   0.4843   0.4908   0.4929   0.5048   0.5131
     0.5185   0.5206   0.5230   0.5254   0.5302   0.5369   0.5380   0.5463
     0.5551   0.5623   0.5634   0.5660   0.5750   0.5843   0.5849   0.5870
     0.5941   0.5953   0.6068   0.6103   0.6196   0.6231   0.6259   0.6308
     0.6340   0.6370   0.6399   0.6522   0.6536   0.6562   0.6615   0.6651
     0.6788   0.6815   0.6878   0.7013   0.7043   0.7062   0.7066   0.7084
     0.7113   0.7202   0.7261   0.7372   0.7432   0.7612   0.7631   0.7737
     0.7792   0.7803   0.7863   0.7880   0.7923   0.8069   0.8109   0.8134
     0.8162   0.8195   0.8217   0.8262   0.8370   0.8408   0.8518   0.8557
     0.8616   0.8669   0.8715   0.8804   0.8846   0.8929   0.8989   0.9109
     0.9140   0.9190   0.9212   0.9253   0.9312   0.9345   0.9367   0.9384
     0.9398   0.9486   0.9529   0.9575   0.9621   0.9711   0.9789   0.9829
     0.9949   1.0012   1.0056   1.0115   1.0145   1.0252   1.0272   1.0300
     1.0318   1.0379   1.0410   1.0441   1.0495   1.0522   1.0572   1.0601
     1.0616   1.0629   1.0665   1.0723   1.0736   1.0752   1.0790   1.0812
     1.0870   1.0929   1.0949   1.1019   1.1081   1.1100   1.1118   1.1131
     1.1189   1.1252   1.1302   1.1320   1.1365   1.1444   1.1474   1.1532
     1.1551   1.1640   1.1712   1.1723   1.1753   1.1788   1.1842   1.1893
     1.1907   1.1967   1.2039   1.2079   1.2170   1.2251   1.2272   1.2296
     1.2372   1.2490   1.2531   1.2676   1.2729   1.2779   1.2818   1.2830
     1.2899   1.2922   1.2942   1.2980   1.3024   1.3061   1.3098   1.3115
     1.3153   1.3207   1.3239   1.3260   1.3286   1.3365   1.3414   1.3454
     1.3470   1.3492   1.3509   1.3536   1.3552   1.3564   1.3624   1.3672
     1.3733   1.3771   1.3819   1.3862   1.3891   1.3930   1.3944   1.3987
     1.4037   1.4130   1.4142   1.4169   1.4223   1.4275   1.4369   1.4384
     1.4479   1.4512   1.4554   1.4591   1.4598   1.4616   1.4671   1.4694
     1.4714   1.4756   1.4774   1.4787   1.4828   1.4851   1.4871   1.4959
     1.4996   1.5061   1.5090   1.5102   1.5132   1.5210   1.5246   1.5264
     1.5332   1.5379   1.5451   1.5485   1.5510   1.5525   1.5579   1.5622
     1.5831   1.5899   1.5950   1.6085   1.6135   1.6485   1.6542   1.6647
     1.6713   1.6738   1.6919   1.7016   1.7340   1.7859   1.8067   1.8104
     1.8287   1.8532   1.8704   1.8810   1.9254   2.0178   2.0691   2.1036
     2.1078   2.1393   2.1975   2.2439   2.2902   2.3215   2.4416   2.5933
     2.6118   2.6853   2.7603   3.0118   3.0182   3.0886   3.2238   3.2349
     3.2600   3.2605   3.3249   3.3953   3.5086   3.5219   3.5796   3.6213
     3.6332   3.6956   3.7044   3.7353   3.7564   3.7773   3.8447   3.8735
     3.9464   3.9855   4.0235   4.1126   4.1807   4.2164   4.3156   4.3248
     4.3975   4.4543   4.5825   4.6261   4.8376   4.8582   4.8794   5.1177
     5.2150   5.2488   5.2574   5.2979   5.3560   5.4223   5.4936   5.5256
     5.5658   5.6071   5.6279   5.6511   5.6985   5.7238   5.7586   5.8172
     5.8248   5.8431   5.9256   6.0116   6.0568   6.0663   6.0984   6.3484
     6.4058   6.6292   6.7137   6.7476   6.7748   6.7870   6.7940   6.8491
     6.9185   6.9380   7.0624   7.0781   7.1114   7.1181   7.2180   7.3240
     7.3277   7.4524   7.4920   7.5180   7.5487   7.5902   7.6367   7.6729
     7.7027   7.7918   7.8283   7.9183   7.9848   8.0796   8.0823   8.1085
     8.1818   8.2046   8.2112   8.2190   8.3289   8.3491   8.3609   8.4257
     8.4495   8.4844   8.5503   8.6126   8.7300   8.7921   8.9958   8.9996
     9.0018   9.0102   9.0223   9.1805   9.1883   9.2265   9.2516   9.2676
     9.3059   9.3336   9.3495   9.3856   9.4677   9.4778   9.4825   9.4975
     9.5287   9.5924   9.6714   9.7047   9.7508   9.7670   9.8151   9.8215
     9.8409   9.8582   9.9411   9.9899

          k = 0.2500-0.2165 0.0000 (256316 PWs)   bands (ev):

   -17.9840 -17.0607 -16.1154 -15.7968 -15.4604 -15.3634 -15.1277 -14.6488
   -14.4859 -14.1868 -14.0428 -13.6325 -13.2050 -13.1878 -13.0862 -12.7092
   -12.5860 -12.0845 -11.9630 -11.4462 -11.3684 -11.2225 -11.0625 -10.8845
   -10.5626  -9.8001  -9.7031  -9.3238  -9.3038  -9.0443  -8.9881  -8.6080
    -8.5666  -8.4056  -8.3568  -7.2384  -6.9650  -6.7760  -6.6063  -6.5383
    -6.4333  -6.3869  -6.3161  -6.2527  -6.0195  -5.9801  -5.6726  -5.6462
    -5.3720  -5.2024  -5.0047  -4.8781  -4.8236  -4.7691  -4.6524  -4.6414
    -4.4763  -4.4125  -4.3760  -4.3158  -4.2845  -4.2701  -4.1304  -4.1046
    -4.0854  -3.9703  -3.9352  -3.7512  -3.7070  -3.6757  -3.5537  -3.5292
    -3.4773  -3.4582  -3.4253  -3.4124  -3.3134  -3.2520  -3.2414  -3.2177
    -3.1406  -3.0982  -3.0377  -3.0013  -2.9690  -2.8992  -2.8945  -2.8857
    -2.8537  -2.7959  -2.6756  -2.6436  -2.6142  -2.5921  -2.5365  -2.4265
    -2.2798  -2.2788  -2.2222  -2.1940  -2.1375  -2.1343  -2.1005  -2.0766
    -2.0478  -2.0058  -1.9727  -1.9697  -1.9347  -1.9289  -1.8928  -1.8802
    -1.8366  -1.7855  -1.7827  -1.7772  -1.7751  -1.7321  -1.7171  -1.6989
    -1.6756  -1.6744  -1.6698  -1.6566  -1.6535  -1.6430  -1.6415  -1.6403
    -1.6377  -1.6311  -1.6244  -1.5718  -1.5459  -1.5274  -1.4300  -1.4265
    -1.4115  -1.3378  -1.3138  -1.2939  -1.2910  -1.2815  -1.2686  -1.2424
    -1.2400  -1.2298  -1.2282  -1.2271  -1.2179  -1.2177  -1.2001  -1.1911
    -1.1864  -1.1807  -1.1786  -1.1750  -1.1731  -1.1699  -1.1530  -1.1466
    -1.1356  -1.1279  -1.0973  -1.0952  -1.0904  -1.0885  -1.0800  -1.0757
    -1.0738  -1.0720  -1.0513  -1.0421  -1.0174  -1.0069  -1.0022  -1.0003
    -0.9920  -0.9896  -0.9822  -0.9710  -0.9616  -0.9568  -0.9378  -0.9280
    -0.9244  -0.9206  -0.9199  -0.9148  -0.9097  -0.9036  -0.8869  -0.8860
    -0.8804  -0.8576  -0.8544  -0.8381  -0.8349  -0.8328  -0.8276  -0.8230
    -0.8035  -0.7745  -0.7460  -0.7377  -0.7365  -0.7327  -0.7300  -0.7175
    -0.6890  -0.6849  -0.6788  -0.6777  -0.6698  -0.6680  -0.6546  -0.6430
    -0.6196  -0.6143  -0.6100  -0.5915  -0.5830  -0.5752  -0.5484  -0.5361
    -0.5299  -0.5249  -0.5231  -0.5136  -0.4999  -0.4953  -0.4824  -0.4812
    -0.4679  -0.4649  -0.4541  -0.4480  -0.4450  -0.4354  -0.4326  -0.4183
    -0.4140  -0.4114  -0.4011  -0.3925  -0.3831  -0.3730  -0.3648  -0.3610
    -0.3584  -0.3491  -0.3422  -0.3368  -0.3284  -0.3268  -0.3249  -0.3235
    -0.3213  -0.3171  -0.3135  -0.3098  -0.2972  -0.2924  -0.2798  -0.2783
[...]
     1.2611   1.2739   1.2752   1.2833   1.2849   1.2917   1.2933   1.3047
     1.3106   1.3139   1.3217   1.3224   1.3273   1.3349   1.3404   1.3440
     1.3478   1.3511   1.3523   1.3555   1.3645   1.3685   1.3697   1.3767
     1.3811   1.3824   1.3861   1.3884   1.3893   1.3974   1.4034   1.4077
     1.4113   1.4144   1.4188   1.4226   1.4249   1.4257   1.4299   1.4340
     1.4358   1.4388   1.4430   1.4465   1.4508   1.4571   1.4595   1.4618
     1.4689   1.4735   1.4763   1.4781   1.4790   1.4799   1.4816   1.4835
     1.4856   1.4914   1.4951   1.5102   1.5198   1.5224   1.5274   1.5304
     1.5358   1.5372   1.5451   1.5472   1.5566   1.5620   1.5694   1.5747
     1.5827   1.5949   1.5976   1.6038   1.6123   1.6249   1.6326   1.6427
     1.6744   1.6794   1.7408   1.7424   1.7546   1.7933   1.7998   1.8038
     1.8183   1.8278   1.8384   1.8536   1.8840   1.9146   1.9708   2.0636
     2.1634   2.1708   2.2032   2.2903   2.3241   2.4250   2.6215   2.6301
     2.8131   2.8199   2.8246   2.8281   2.8559   2.8654   2.9661   2.9876
     3.0186   3.1121   3.1244   3.2755   3.5716   3.6199   3.6392   3.6991
     3.7206   3.7562   3.7941   3.8720   3.8893   3.9442   3.9716   4.0345
     4.1084   4.1335   4.1719   4.1978   4.2831   4.3504   4.4070   4.4566
     4.4663   4.6107   4.6242   4.6424   4.7063   4.7275   4.7787   4.8664
     4.9506   5.0290   5.0598   5.0940   5.1638   5.1878   5.3238   5.3872
     5.4403   5.4793   5.4854   5.5187   5.5831   5.7501   5.7842   5.8303
     5.8495   5.9139   5.9749   6.0089   6.0324   6.1461   6.6065   6.6316
     6.6671   6.6943   6.7892   6.8183   6.8219   6.8994   6.9249   7.0117
     7.0865   7.1006   7.1300   7.1429   7.1644   7.1971   7.2506   7.2583
     7.3256   7.3387   7.3977   7.4311   7.4587   7.4652   7.5703   7.6155
     7.6891   7.7424   7.8022   7.8712   7.8821   7.9172   8.0824   8.1272
     8.2009   8.2368   8.2413   8.3299   8.3377   8.4020   8.6075   8.6165
     8.6349   8.6553   8.6924   8.7382   8.7445   8.7748   8.8140   8.8226
     8.9381   8.9493   8.9986   9.0119   9.0753   9.0945   9.1585   9.1984
     9.2105   9.2231   9.2346   9.2531   9.2829   9.3111   9.3683   9.3820
     9.4459   9.4574   9.4682   9.4781   9.5962   9.6401   9.6469   9.6592
     9.9456   9.9749   9.9833  10.0200

          k =-0.5000 0.0000 0.0000 (256496 PWs)   bands (ev):

   -17.9785 -17.0132 -15.9073 -15.6848 -15.5517 -15.5339 -15.4859 -14.7505
   -14.5390 -14.4487 -14.3981 -13.1427 -12.8416 -12.7034 -12.6350 -12.3799
   -12.3421 -11.8554 -11.8304 -11.7400 -11.7219 -11.1824 -11.1464 -10.9321
   -10.6950 -10.2592 -10.2212  -9.9996  -9.6807  -9.0907  -9.0751  -8.9146
    -8.8857  -7.7655  -7.5810  -7.5453  -7.3551  -7.3054  -7.2741  -6.3259
    -6.2363  -6.1475  -5.7783  -5.2812  -5.2569  -5.2410  -5.0875  -4.9044
    -4.8166  -4.7929  -4.7823  -4.7674  -4.7609  -4.7430  -4.7059  -4.6772
    -4.6448  -4.6109  -4.5342  -4.4703  -4.4615  -4.3970  -4.3297  -4.3175
    -4.2047  -4.0457  -4.0420  -3.9540  -3.9090  -3.8570  -3.6413  -3.6322
    -3.5546  -3.5341  -3.5293  -3.5169  -3.5066  -3.4041  -3.3809  -3.3741
    -3.3638  -3.3499  -3.3119  -3.2987  -3.2304  -2.9802  -2.8955  -2.8897
    -2.8224  -2.7917  -2.7548  -2.7134  -2.6412  -2.5431  -2.5370  -2.5278
    -2.4759  -2.4205  -2.3704  -2.3167  -2.2670  -2.2135  -2.1928  -2.1011
    -1.8497  -1.8463  -1.8442  -1.8418  -1.8400  -1.8342  -1.8153  -1.7645
    -1.7281  -1.7194  -1.7045  -1.7040  -1.6364  -1.6175  -1.6138  -1.6109
    -1.6002  -1.5713  -1.5687  -1.5637  -1.5592  -1.4820  -1.4507  -1.4494
    -1.4388  -1.4313  -1.4257  -1.4082  -1.3964  -1.3932  -1.3818  -1.3745
    -1.3724  -1.3670  -1.3279  -1.3219  -1.3200  -1.3189  -1.3169  -1.3095
    -1.3064  -1.2959  -1.2913  -1.2633  -1.2565  -1.2550  -1.2530  -1.2400
    -1.2355  -1.2324  -1.2312  -1.1879  -1.1693  -1.1684  -1.1601  -1.1590
    -1.1480  -1.1443  -1.1426  -1.1269  -1.1250  -1.1189  -1.1132  -1.0958
    -1.0762  -1.0732  -1.0727  -1.0676  -1.0526  -1.0476  -1.0432  -1.0376
    -1.0233  -1.0214  -1.0188  -0.9901  -0.9713  -0.9639  -0.9572  -0.9490
    -0.9460  -0.9444  -0.9415  -0.9223  -0.9200  -0.9151  -0.9056  -0.9010
    -0.8943  -0.8909  -0.8896  -0.8883  -0.8850  -0.8736  -0.8673  -0.8487
    -0.8286  -0.8072  -0.7979  -0.7951  -0.7606  -0.7571  -0.7407  -0.6827
    -0.6799  -0.6788  -0.6764  -0.6528  -0.6461  -0.6419  -0.6416  -0.6369
    -0.6242  -0.6206  -0.6111  -0.6008  -0.5958  -0.5918  -0.5915  -0.5863
    -0.5835  -0.5754  -0.5637  -0.5620  -0.5553  -0.5513  -0.5297  -0.4840
    -0.4746  -0.4642  -0.4560  -0.4537  -0.4341  -0.4226  -0.4151  -0.4080
    -0.3868  -0.3828  -0.3729  -0.3715  -0.3682  -0.3654  -0.3601  -0.3361
    -0.3312  -0.3291  -0.3271  -0.3267  -0.3266  -0.3121  -0.3027  -0.2988
    -0.2920  -0.2828  -0.2649  -0.2606  -0.2565  -0.2559  -0.2497  -0.2479
    -0.2468  -0.2165  -0.2157  -0.2130  -0.2107  -0.2102  -0.2089  -0.1874
    -0.1711  -0.1662  -0.1629  -0.1372  -0.1056  -0.1049  -0.0971  -0.0952
    -0.0938  -0.0928  -0.0886  -0.0835  -0.0679  -0.0568  -0.0536  -0.0334
    -0.0313  -0.0145  -0.0101   0.0085   0.0097   0.0142   0.0144   0.0162
     0.0185   0.0193   0.0215   0.0241   0.0287   0.0290   0.0458   0.0500
     0.0783   0.0838   0.0928   0.0972   0.1020   0.1034   0.1045   0.1052
     0.1088   0.1098   0.1126   0.1144   0.1163   0.1206   0.1246   0.1326
     0.1351   0.1387   0.1437   0.1452   0.1459   0.1548   0.1597   0.1606
     0.1609   0.1616   0.1618   0.1668   0.1679   0.1713   0.1736   0.1829
     0.1865   0.1926   0.1944   0.1963   0.1972   0.2021   0.2097   0.2229
     0.2304   0.2796   0.2890   0.3051   0.3192   0.3282   0.3365   0.3396
     0.3491   0.3544   0.3578   0.3634   0.3682   0.3757   0.3796   0.3805
     0.3833   0.3854   0.3863   0.3870   0.3889   0.3894   0.3918   0.3932
     0.3973   0.3991   0.4069   0.4096   0.4114   0.4153   0.4161   0.4246
     0.4297   0.4323   0.4408   0.4439   0.4471   0.4647   0.4782   0.4853
     0.4930   0.5032   0.5238   0.5312   0.5358   0.5384   0.5432   0.5468
     0.5584   0.5619   0.5664   0.5705   0.5713   0.5729   0.5736   0.5763
     0.5782   0.5792   0.5815   0.5861   0.5868   0.5886   0.5932   0.5999
     0.6070   0.6134   0.6214   0.6253   0.6346   0.6393   0.6432   0.6455
     0.6523   0.6635   0.6639   0.6672   0.6718   0.6742   0.6748   0.6772
     0.6805   0.6815   0.6855   0.6917   0.6960   0.7038   0.7065   0.7086
     0.7138   0.7336   0.7388   0.7472   0.7476   0.7500   0.7537   0.7545
     0.7651   0.7669   0.7811   0.7917   0.7996   0.8085   0.8108   0.8187
     0.8351   0.8451   0.8534   0.8654   0.8713   0.8751   0.8794   0.8815
     0.8833   0.8845   0.8862   0.8895   0.8905   0.8978   0.8989   0.8997
     0.9069   0.9098   0.9222   0.9232   0.9256   0.9289   0.9303   0.9333
     0.9456   0.9490   0.9497   0.9554   0.9679   0.9750   0.9801   0.9844
     0.9873   1.0086   1.0213   1.0439   1.0484   1.0517   1.0537   1.0578
     1.0663   1.0735   1.0779   1.0861   1.0928   1.0971   1.1041   1.1061
     1.1121   1.1202   1.1284   1.1294   1.1311   1.1395   1.1433   1.1498
     1.1516   1.1550   1.1616   1.1637   1.1667   1.1669   1.1709   1.1719
     1.1771   1.1788   1.1799   1.1803   1.1821   1.1888   1.2048   1.2065
     1.2105   1.2183   1.2193   1.2201   1.2239   1.2328   1.2413   1.2457
     1.2542   1.2556   1.2594   1.2626   1.2670   1.2742   1.2803   1.2825
     1.2847   1.2857   1.2865   1.2885   1.2909   1.2940   1.2986   1.3047
     1.3106   1.3171   1.3268   1.3365   1.3422   1.3462   1.3495   1.3535
     1.3546   1.3558   1.3580   1.3591   1.3605   1.3622   1.3663   1.3676
     1.3683   1.3703   1.3722   1.3731   1.3747   1.3760   1.3769   1.3777
     1.3824   1.3876   1.3907   1.3969   1.4000   1.4047   1.4073   1.4167
     1.4190   1.4231   1.4253   1.4282   1.4317   1.4436   1.4482   1.4531
     1.4570   1.4583   1.4623   1.4666   1.4694   1.4738   1.4756   1.4802
     1.4871   1.4911   1.4962   1.4991   1.5025   1.5034   1.5064   1.5085
     1.5133   1.5160   1.5164   1.5171   1.5217   1.5330   1.5441   1.5530
     1.5550   1.5561   1.5570   1.5573   1.5589   1.5703   1.5761   1.5994
     1.6107   1.6177   1.6228   1.6383   1.6499   1.6516   1.6585   1.6606
     1.7305   1.7897   2.0624   2.0642   2.1538   2.1727   2.2736   2.2774
     2.3035   2.3245   2.3267   2.3524   2.3591   2.4278   2.6611   2.6707
     2.6796   2.7479   2.8613   2.8644   2.9566   3.0358   3.2149   3.2245
     3.2455   3.2639   3.5151   3.5615   3.7798   3.7813   3.8077   3.8563
     3.8709   3.9472   3.9635   4.0421   4.0917   4.0939   4.1221   4.1576
     4.1820   4.2628   4.3908   4.4431   4.4649   4.5528   4.7692   4.7966
     4.8179   4.8302   4.8517   4.8669   4.8932   4.9160   4.9624   5.0495
     5.0621   5.0639   5.0690   5.0778   5.0855   5.0918   5.1329   5.1503
     5.1537   5.1941   5.2627   5.3741   5.5157   5.5410   5.6180   5.6736
     5.7133   5.7816   5.8075   5.8370   5.9993   6.0248   6.0335   6.0518
     6.0833   6.0897   6.1276   6.2080   6.3589   6.4239   6.4353   6.4710
     6.4756   6.4955   6.5226   6.7362   7.1152   7.1322   7.1672   7.2204
     7.2377   7.3236   7.6127   7.6370   7.6419   7.6459   7.6484   7.6556
     7.7229   7.7703   7.8430   7.8680   7.9203   7.9389   7.9461   7.9892
     8.0543   8.0638   8.1069   8.1398   8.1613   8.1784   8.2083   8.2458
     8.4535   8.5638   8.6619   8.6930   8.7156   8.7272   8.8367   8.8592
     8.8743   8.8878   8.9271   8.9997   9.0012   9.0841   9.1136   9.1418
     9.1660   9.2670   9.3147   9.3447   9.4104   9.4185   9.5081   9.5092
     9.5094   9.5109   9.5586   9.5700   9.5794   9.6342   9.6725   9.7269
     9.8119   9.8367  10.0154  10.0506

          k =-0.5000-0.2165 0.0000 (256328 PWs)   bands (ev):

   -17.9785 -17.0130 -15.8643 -15.7553 -15.7342 -15.3268 -15.1406 -15.0788
   -15.0347 -13.9908 -13.7706 -13.6404 -13.5984 -12.6035 -12.3825 -11.9391
   -11.9336 -11.8647 -11.7076 -11.6088 -11.5293 -11.4691 -11.4641 -11.3573
   -11.3365  -9.9661  -9.9548  -9.7091  -9.6632  -9.1583  -8.8522  -8.7217
    -8.6979  -8.2146  -8.1705  -7.9630  -7.9446  -6.4773  -6.3319  -6.2699
    -6.0662  -5.8965  -5.7768  -5.5581  -5.3112  -5.2558  -5.2423  -5.1590
    -5.1500  -5.1467  -5.1342  -5.1118  -4.9540  -4.9445  -4.5408  -4.4524
    -4.3269  -4.3112  -4.2884  -4.2843  -4.1983  -4.1976  -4.1762  -4.1607
    -4.1593  -4.1488  -4.0294  -3.9770  -3.8360  -3.8239  -3.8163  -3.8048
    -3.6958  -3.6896  -3.6719  -3.6362  -3.6203  -3.5569  -3.5486  -3.5367
    -3.4474  -3.4036  -3.1542  -3.0582  -3.0481  -3.0206  -2.9965  -2.7400
    -2.5763  -2.5573  -2.5432  -2.5411  -2.5339  -2.5135  -2.4889  -2.4738
    -2.4489  -2.3580  -2.3329  -2.3015  -2.1246  -2.1059  -2.0688  -2.0585
    -2.0435  -2.0343  -1.9996  -1.9913  -1.9702  -1.9618  -1.9518  -1.9120
    -1.8411  -1.7703  -1.7693  -1.7655  -1.7556  -1.6893  -1.6290  -1.5781
    -1.5216  -1.4842  -1.4640  -1.4635  -1.4608  -1.4565  -1.4544  -1.4484
    -1.4190  -1.4155  -1.4044  -1.3968  -1.3945  -1.3943  -1.3922  -1.3713
    -1.3537  -1.3534  -1.3504  -1.3487  -1.3456  -1.3446  -1.3413  -1.3246
    -1.3225  -1.3219  -1.3210  -1.3003  -1.2744  -1.2716  -1.2682  -1.2533
    -1.2498  -1.2024  -1.1904  -1.1837  -1.1619  -1.1561  -1.1553  -1.1545
    -1.1498  -1.1387  -1.1324  -1.1152  -1.1124  -1.0862  -1.0839  -1.0830
    -1.0810  -1.0781  -1.0764  -1.0690  -1.0685  -1.0641  -1.0599  -1.0272
    -1.0239  -1.0233  -1.0186  -1.0179  -1.0152  -1.0091  -1.0071  -1.0049
    -1.0027  -1.0014  -0.9997  -0.9941  -0.9915  -0.9836  -0.9797  -0.9681
    -0.8576  -0.8466  -0.8432  -0.8240  -0.8201  -0.8191  -0.8165  -0.7812
    -0.7569  -0.7504  -0.7448  -0.7394  -0.7335  -0.7316  -0.7283  -0.7266
    -0.7218  -0.7183  -0.7120  -0.7088  -0.6718  -0.6657  -0.6646  -0.6585
    -0.6521  -0.6506  -0.6458  -0.6445  -0.6350  -0.6259  -0.6235  -0.6133
    -0.5693  -0.5462  -0.5350  -0.5329  -0.5288  -0.5276  -0.5258  -0.4938
    -0.4730  -0.4693  -0.4530  -0.4388  -0.4155  -0.4139  -0.4128  -0.4116
    -0.4000  -0.3949  -0.3921  -0.3865  -0.3845  -0.3656  -0.3632  -0.3605
    -0.3578  -0.3553  -0.3476  -0.3419  -0.3348  -0.3242  -0.3082  -0.2925
    -0.2484  -0.2419  -0.2389  -0.2346  -0.2300  -0.2201  -0.2193  -0.2184
    -0.2156  -0.2033  -0.2010  -0.1996  -0.1686  -0.1398  -0.1335  -0.1285
    -0.1248  -0.1191  -0.1164  -0.1126  -0.1119  -0.1100  -0.1033  -0.1029
    -0.0749  -0.0736  -0.0733  -0.0685  -0.0673  -0.0657  -0.0608  -0.0588
    -0.0553  -0.0547  -0.0539  -0.0496  -0.0217  -0.0062  -0.0040   0.0051
     0.0121   0.0206   0.0280   0.0410   0.0465   0.0637   0.0794   0.0846
     0.0914   0.0989   0.1048   0.1078   0.1116   0.1143   0.1162   0.1182
     0.1201   0.1232   0.1252   0.1260   0.1285   0.1327   0.1332   0.1366
     0.1390   0.1431   0.1441   0.1480   0.1486   0.1511   0.1518   0.1571
     0.1613   0.1623   0.1654   0.1710   0.1869   0.1916   0.1918   0.1924
     0.1962   0.1975   0.2050   0.2126   0.2221   0.2358   0.2494   0.2503
     0.2586   0.2700   0.2768   0.2781   0.2891   0.3099   0.3164   0.3410
     0.3509   0.3568   0.3619   0.3648   0.3666   0.3736   0.3765   0.3815
     0.3868   0.3879   0.3889   0.3928   0.3955   0.3982   0.3985   0.4044
     0.4055   0.4061   0.4103   0.4136   0.4183   0.4212   0.4253   0.4326
     0.4368   0.4414   0.4446   0.4522   0.4642   0.4647   0.4751   0.4797
     0.4870   0.5069   0.5102   0.5108   0.5134   0.5142   0.5248   0.5272
     0.5355   0.5435   0.5458   0.5500   0.5536   0.5576   0.5577   0.5672
     0.5744   0.5831   0.5870   0.5900   0.5959   0.5988   0.6043   0.6074
     0.6103   0.6111   0.6149   0.6178   0.6192   0.6220   0.6240   0.6281
     0.6297   0.6314   0.6325   0.6408   0.6466   0.6631   0.6806   0.6874
     0.6929   0.7066   0.7147   0.7161   0.7182   0.7204   0.7258   0.7291
     0.7299   0.7316   0.7395   0.7412   0.7499   0.7519   0.7594   0.7615
     0.7658   0.7665   0.7717   0.7726   0.7740   0.7747   0.7750   0.7988
     0.8124   0.8217   0.8242   0.8270   0.8347   0.8417   0.8539   0.8546
     0.8606   0.8685   0.8767   0.8862   0.8899   0.8911   0.8953   0.8969
     0.9069   0.9119   0.9154   0.9443   0.9586   0.9668   0.9730   0.9774
     0.9814   1.0015   1.0070   1.0193   1.0261   1.0365   1.0410   1.0460
     1.0506   1.0547   1.0582   1.0627   1.0642   1.0681   1.0705   1.0769
     1.0818   1.0844   1.0856   1.0864   1.0874   1.0889   1.0906   1.0916
     1.0934   1.1037   1.1055   1.1084   1.1145   1.1153   1.1163   1.1211
     1.1222   1.1254   1.1300   1.1347   1.1360   1.1431   1.1523   1.1613
     1.1630   1.1645   1.1656   1.1679   1.1695   1.1736   1.1751   1.1822
     1.1845   1.1846   1.1947   1.2119   1.2203   1.2288   1.2338   1.2343
     1.2365   1.2426   1.2481   1.2524   1.2587   1.2610   1.2632   1.2702
     1.2706   1.2744   1.2830   1.2892   1.2915   1.2955   1.3024   1.3060
     1.3102   1.3137   1.3185   1.3195   1.3213   1.3236   1.3260   1.3294
     1.3303   1.3488   1.3589   1.3602   1.3789   1.3838   1.3850   1.3881
     1.3888   1.3947   1.3961   1.3967   1.3977   1.4028   1.4050   1.4066
     1.4093   1.4133   1.4163   1.4170   1.4208   1.4217   1.4219   1.4244
     1.4272   1.4302   1.4307   1.4330   1.4342   1.4382   1.4411   1.4433
     1.4454   1.4475   1.4502   1.4523   1.4546   1.4672   1.4763   1.4822
     1.4873   1.4898   1.4909   1.4926   1.4970   1.5064   1.5113   1.5155
     1.5252   1.5305   1.5369   1.5413   1.5419   1.5437   1.5592   1.5726
     1.5833   1.5895   1.5931   1.6132   1.6145   1.6163   1.6249   1.6299
     1.6349   1.6431   1.6442   1.6457   1.6480   1.6525   1.6553   1.6580
     1.6602   1.7006   1.7410   1.7933   1.8685   1.8696   2.0050   2.0742
     2.3857   2.3895   2.3969   2.4721   2.5934   2.5962   2.6078   2.6730
     2.8209   2.8231   2.9125   2.9643   3.1259   3.1413   3.1748   3.3307
     3.4875   3.4882   3.5210   3.5274   3.6752   3.6773   3.7265   3.7933
     3.9490   3.9642   3.9799   3.9930   4.0262   4.2554   4.2664   4.2735
     4.3127   4.3621   4.3768   4.3960   4.4208   4.5457   4.5738   4.5741
     4.5963   4.6309   4.7020   4.7203   4.7878   4.8711   4.8790   4.9392
     4.9605   5.0529   5.0820   5.1117   5.1928   5.2009   5.2111   5.2389
     5.2712   5.2984   5.3214   5.3800   5.4199   5.4619   5.5123   5.5435
     5.6031   5.6962   5.7544   5.7675   5.7768   5.7881   5.7964   5.8780
     5.9069   5.9252   5.9412   6.3233   6.7875   6.8183   6.8413   6.8449
     7.1249   7.1541   7.1619   7.1644   7.1871   7.2261   7.2502   7.2715
     7.2996   7.3291   7.3460   7.3854   7.4117   7.4283   7.4460   7.5008
     7.5339   7.6540   7.6779   7.7635   7.7823   7.8721   7.8914   7.9647
     7.9889   8.0640   8.1455   8.1854   8.2412   8.2437   8.2957   8.3226
     8.3715   8.3781   8.4295   8.5984   8.9179   8.9293   8.9319   8.9644
     8.9658   8.9674   8.9728   8.9803   9.0012   9.0462   9.0640   9.1165
     9.1256   9.1319   9.1324   9.2128   9.3289   9.3333   9.3582   9.3800
     9.4931   9.5578   9.5761   9.5903   9.6183   9.6735   9.7289   9.7441
     9.9159   9.9529   9.9538   9.9584

     the Fermi energy is     3.3660 ev

!    total energy              =  -12740.14874936 Ry
     Harris-Foulkes estimate   =  -12740.14874942 Ry
     estimated scf accuracy    <          3.8E-09 Ry

     The total energy is the sum of the following terms:

     one-electron contribution = -109494.42139397 Ry
     hartree contribution      =   56113.68499819 Ry
     xc contribution           =   -4455.62164438 Ry
     ewald contribution        =   45102.56087558 Ry
     Dispersion Correction     =      -2.99769418 Ry
     smearing contrib. (-TS)   =      -3.35389060 Ry

     total magnetization       =     0.00 Bohr mag/cell
     absolute magnetization    =     0.00 Bohr mag/cell

     convergence has been achieved in  44 iterations

     Writing output data file gc.save
 
     init_run     :    197.51s CPU    211.06s WALL (       1 calls)
     electrons    :  23551.15s CPU  25143.58s WALL (       1 calls)

     Called by init_run:
     wfcinit      :    193.73s CPU    206.95s WALL (       1 calls)
     potinit      :      0.68s CPU      0.72s WALL (       1 calls)

     Called by electrons:
     c_bands      :  21714.48s CPU  23147.34s WALL (      44 calls)
     sum_band     :   1647.74s CPU   1778.06s WALL (      44 calls)
     v_of_rho     :      6.27s CPU      7.56s WALL (      45 calls)
     newd         :     14.44s CPU     20.44s WALL (      45 calls)
     mix_rho      :    168.00s CPU    189.79s WALL (      44 calls)

     Called by c_bands:
     init_us_2    :     74.22s CPU     75.14s WALL (    1068 calls)
     cegterg      :  21385.81s CPU  22807.02s WALL (     541 calls)

     Called by sum_band:
     sum_band:bec :      9.50s CPU     10.73s WALL (     528 calls)
     addusdens    :     18.57s CPU     24.51s WALL (      44 calls)

     Called by *egterg:
     h_psi        :   8145.88s CPU   8794.11s WALL (    3449 calls)
     s_psi        :   1954.61s CPU   1977.36s WALL (    3449 calls)
     g_psi        :     20.78s CPU     20.78s WALL (    2896 calls)
     cdiaghg      :   5733.28s CPU   5950.69s WALL (    3424 calls)

     Called by h_psi:
     add_vuspsi   :   1964.56s CPU   1990.71s WALL (    3449 calls)

     General routines
     calbec       :   2782.86s CPU   2803.36s WALL (    3977 calls)
     fft          :      6.80s CPU      7.77s WALL (    1121 calls)
     ffts         :     95.24s CPU    107.99s WALL (   24981 calls)
     fftw         :   4702.08s CPU   5228.57s WALL ( 2589468 calls)
     davcio       :      0.79s CPU      8.93s WALL (      12 calls)
 
     Parallel routines
     fft_scatter  :   3020.88s CPU   3275.24s WALL ( 2615570 calls)
 
     PWSCF        :     6h35m CPU        7h 2m WALL

 
   This run was terminated on:  23:20:32   7Apr2017            

=------------------------------------------------------------------------------=
   JOB DONE.
=------------------------------------------------------------------------------=
