
     Program PWSCF v.5.4.0 starts on  1May2017 at  8:48:21 

     This program is part of the open-source Quantum ESPRESSO suite
     for quantum simulation of materials; please cite
         "P. Giannozzi et al., J. Phys.:Condens. Matter 21 395502 (2009);
          URL http://www.quantum-espresso.org", 
     in publications or presentations arising from this work. More details at
     http://www.quantum-espresso.org/quote

     Parallel version (MPI & OpenMP), running on      56 processor cores
     Number of MPI processes:                56
     Threads/MPI process:                     1
     R & G space division:  proc/nbgrp/npool/nimage =      56
     Waiting for input...
     Reading input from standard input
Warning: card &IONS ignored
Warning: card / ignored

     Current dimensions of program PWSCF are:
     Max number of different atomic species (ntypx) = 10
     Max number of k-points (npk) =  40000
     Max angular momentum in pseudopotentials (lmaxx) =  3

     -------------------------------------
     Parameters for Dispersion Correction:
     -------------------------------------
       atom      VdW radius       C_6     

        Cu         2.952        374.666
        C_h        2.744         60.710
        C          2.744         60.710
        H          1.892          4.857

     Subspace diagonalization in iterative solution of the eigenvalue problem:
     one sub-group per band group will be used
     scalapack distributed-memory algorithm (size of sub-group:  5*  5 procs)

 
     Parallelization info
     --------------------
     sticks:   dense  smooth     PW     G-vecs:    dense   smooth      PW
     Min         204     204     54                36612    36612    4962
     Max         205     205     55                36617    36617    4968
     Sum       11433   11433   3039              2050409  2050409  278033
 


     bravais-lattice index     =            0
     lattice parameter (alat)  =      13.9425  a.u.
     unit-cell volume          =   21209.0878 (a.u.)^3
     number of atoms/cell      =          150
     number of atomic types    =            4
     number of electrons       =      1294.00
     number of Kohn-Sham states=          776
     kinetic-energy cutoff     =      80.0000  Ry
     charge density cutoff     =     320.0000  Ry
     convergence threshold     =      1.0E-08
     mixing beta               =       0.7000
     number of iterations used =            8  local-TF  mixing
     Exchange-correlation      =  SLA  PW   PBE  PBE ( 1  4  3  4 0 0)

     celldm(1)=  13.942539  celldm(2)=   0.000000  celldm(3)=   0.000000
     celldm(4)=   0.000000  celldm(5)=   0.000000  celldm(6)=   0.000000

     crystal axes: (cart. coord. in units of alat)
               a(1) = (   1.000000   0.000000   0.000000 )  
               a(2) = (   0.000000   2.309401   0.000000 )  
               a(3) = (   0.000000   0.000000   3.388418 )  

     reciprocal axes: (cart. coord. in units 2 pi/alat)
               b(1) = (  1.000000  0.000000  0.000000 )  
               b(2) = (  0.000000  0.433013  0.000000 )  
               b(3) = (  0.000000  0.000000  0.295123 )  


     PseudoPot. # 1 for Cu read from file:
     /home/549/hxw549/Short/pseudopotentials/Cu.pbe-n-van_ak.UPF
     MD5 check sum: 601f7c30f7467666bec936e0661ce3e1
     Pseudo is Ultrasoft + core correction, Zval = 11.0
     Generated by new atomic code, or converted to UPF format
     Using radial grid of  867 points,  6 beta functions with: 
                l(1) =   0
                l(2) =   0
                l(3) =   1
                l(4) =   1
                l(5) =   2
                l(6) =   2
     Q(r) pseudized with  8 coefficients,  rinner =    1.400   1.400   1.400
                                                       1.400   1.400

     PseudoPot. # 2 for C  read from file:
     /home/549/hxw549/Short/pseudopotentials/C.star1s-pbe-mt_gipaw.UPF
     MD5 check sum: ef0cb3dee31bd9e4ba2a832a2c716264
     Pseudo is Norm-conserving, Zval =  5.0
     Generated by new atomic code, or converted to UPF format
     Using radial grid of 1073 points,  1 beta functions with: 
                l(1) =   0

     PseudoPot. # 3 for C  read from file:
     /home/549/hxw549/Short/pseudopotentials/C.pbe-mt_gipaw.UPF
     MD5 check sum: 5ac2f21f2c440b14befe521540822c15
     Pseudo is Norm-conserving, Zval =  4.0
     Generated by new atomic code, or converted to UPF format
     Using radial grid of 1073 points,  1 beta functions with: 
                l(1) =   0

     PseudoPot. # 4 for H  read from file:
     /home/549/hxw549/Short/pseudopotentials/H.pbe-van_ak.UPF
     MD5 check sum: 077eb6d537518a38cb46c6de387227b7
     Pseudo is Ultrasoft, Zval =  1.0
     Generated by new atomic code, or converted to UPF format
     Using radial grid of  615 points,  1 beta functions with: 
                l(1) =   0
     Q(r) pseudized with  8 coefficients,  rinner =    0.800

     atomic species   valence    mass     pseudopotential
        Cu            11.00    63.54600     Cu( 1.00)
        C_h            5.00    12.01070     C ( 1.00)
        C              4.00    12.01070     C ( 1.00)
        H              1.00     1.00783     H ( 1.00)

     No symmetry found



   Cartesian axes

     site n.     atom                  positions (alat units)
         1           Cu  tau(   1) = (   0.0000919   0.0002316   0.9987459  )
         2           Cu  tau(   2) = (   0.2500608   0.2313422   0.9986560  )
         3           Cu  tau(   3) = (   0.5000559   0.0002569   0.9986982  )
         4           Cu  tau(   4) = (   0.7500949   0.2314102   0.9988092  )
         5           Cu  tau(   5) = (   0.0000733   0.4621721   0.9985440  )
         6           Cu  tau(   6) = (   0.2500962   0.6929017   0.9981624  )
         7           Cu  tau(   7) = (   0.5000988   0.4621718   0.9985475  )
         8           Cu  tau(   8) = (   0.7500930   0.6928823   0.9982088  )
         9           Cu  tau(   9) = (   0.0000822   0.9236183   0.9979416  )
        10           Cu  tau(  10) = (   0.2501215   1.1543049   0.9981078  )
        11           Cu  tau(  11) = (   0.5001082   0.9236142   0.9979840  )
        12           Cu  tau(  12) = (   0.7500653   1.1542869   0.9981949  )
        13           Cu  tau(  13) = (   0.0000921   1.3848839   0.9985403  )
        14           Cu  tau(  14) = (   0.2500884   1.6154746   0.9989221  )
        15           Cu  tau(  15) = (   0.5000855   1.3848573   0.9987145  )
        16           Cu  tau(  16) = (   0.7500809   1.6155229   0.9989338  )
        17           Cu  tau(  17) = (   0.0001056   1.8465206   0.9988634  )
        18           Cu  tau(  18) = (   0.2500826   2.0781047   0.9988097  )
        19           Cu  tau(  19) = (   0.5000543   1.8465227   0.9988342  )
        20           Cu  tau(  20) = (   0.7500690   2.0780250   0.9985623  )
        21           Cu  tau(  21) = (   0.0001558   0.2316251   1.2472335  )
        22           Cu  tau(  22) = (   0.2500763   0.0004221   1.2468628  )
        23           Cu  tau(  23) = (   0.5000595   0.2316031   1.2471440  )
        24           Cu  tau(  24) = (   0.7501210   0.0000719   1.2464898  )
        25           Cu  tau(  25) = (   0.0001786   0.6932610   1.2468641  )
        26           Cu  tau(  26) = (   0.2501143   0.4625386   1.2470684  )
        27           Cu  tau(  27) = (   0.5001345   0.6932158   1.2468571  )
        28           Cu  tau(  28) = (   0.7501458   0.4626033   1.2472386  )
        29           Cu  tau(  29) = (   0.0002022   1.1538536   1.2469961  )
        30           Cu  tau(  30) = (   0.2501511   0.9236315   1.2467472  )
        31           Cu  tau(  31) = (   0.5000991   1.1537473   1.2471984  )
        32           Cu  tau(  32) = (   0.7501581   0.9235895   1.2467964  )
        33           Cu  tau(  33) = (   0.0001614   1.6150823   1.2474850  )
        34           Cu  tau(  34) = (   0.2501328   1.3841450   1.2476041  )
        35           Cu  tau(  35) = (   0.5000748   1.6152235   1.2474914  )
        36           Cu  tau(  36) = (   0.7501317   1.3842908   1.2474566  )
        37           Cu  tau(  37) = (   0.0001775   2.0780482   1.2464335  )
        38           Cu  tau(  38) = (   0.2500819   1.8464294   1.2469514  )
        39           Cu  tau(  39) = (   0.5000260   2.0780571   1.2463402  )
        40           Cu  tau(  40) = (   0.7501350   1.8466074   1.2468146  )
        41           Cu  tau(  41) = (   0.0002946  -0.0001701   1.4956456  )
        42           Cu  tau(  42) = (   0.2501863   0.2321383   1.4969122  )
        43           Cu  tau(  43) = (   0.4999891  -0.0002208   1.4954507  )
        44           Cu  tau(  44) = (   0.7501747   0.2312501   1.4958839  )
        45           Cu  tau(  45) = (   0.0004356   0.4632209   1.4970349  )
        46           Cu  tau(  46) = (   0.2503312   0.6936162   1.4971319  )
        47           Cu  tau(  47) = (   0.5000865   0.4631679   1.4969599  )
        48           Cu  tau(  48) = (   0.7504028   0.6936701   1.4970478  )
        49           Cu  tau(  49) = (   0.0005039   0.9234888   1.4974851  )
        50           Cu  tau(  50) = (   0.2502472   1.1526190   1.4982066  )
        51           Cu  tau(  51) = (   0.5002313   0.9231018   1.4975484  )
        52           Cu  tau(  52) = (   0.7504336   1.1530786   1.4974338  )
        53           Cu  tau(  53) = (   0.0004108   1.3833185   1.4976842  )
        54           Cu  tau(  54) = (   0.2500898   1.6148558   1.4969539  )
        55           Cu  tau(  55) = (   0.5000969   1.3834757   1.4974071  )
        56           Cu  tau(  56) = (   0.7502866   1.6151345   1.4965213  )
        57           Cu  tau(  57) = (   0.0001917   1.8466826   1.4959292  )
        58           Cu  tau(  58) = (   0.2500956   2.0780177   1.4954864  )
        59           Cu  tau(  59) = (   0.5001167   1.8469305   1.4958586  )
        60           Cu  tau(  60) = (   0.7501829   2.0780930   1.4954862  )
        61           Cu  tau(  61) = (   0.0007775   0.2309508   1.7440249  )
        62           Cu  tau(  62) = (   0.2503161  -0.0008350   1.7446016  )
        63           Cu  tau(  63) = (   0.4999464   0.2304797   1.7441712  )
        64           Cu  tau(  64) = (   0.7501365  -0.0005288   1.7443952  )
        65           Cu  tau(  65) = (   0.0013623   0.6939929   1.7480172  )
        66           Cu  tau(  66) = (   0.2510771   0.4648501   1.7478613  )
        67           Cu  tau(  67) = (   0.5005687   0.6939015   1.7487506  )
        68           Cu  tau(  68) = (   0.7502018   0.4624007   1.7446871  )
        69           Cu  tau(  69) = (   0.0013105   1.1518301   1.7496610  )
        70           Cu  tau(  70) = (   0.2512460   0.9214887   1.7506302  )
        71           Cu  tau(  71) = (   0.5004369   1.1517942   1.7481557  )
        72           Cu  tau(  72) = (   0.7509203   0.9230797   1.7484028  )
        73           Cu  tau(  73) = (   0.0004936   1.6154487   1.7454767  )
        74           Cu  tau(  74) = (   0.2501476   1.3827323   1.7473588  )
        75           Cu  tau(  75) = (   0.5001925   1.6156317   1.7443592  )
        76           Cu  tau(  76) = (   0.7509625   1.3833964   1.7459575  )
        77           Cu  tau(  77) = (   0.0001031   2.0779212   1.7449489  )
        78           Cu  tau(  78) = (   0.2500076   1.8473287   1.7446935  )
        79           Cu  tau(  79) = (   0.5002818   2.0781908   1.7449505  )
        80           Cu  tau(  80) = (   0.7504487   1.8471757   1.7446367  )
        81           Cu  tau(  81) = (   0.0004240  -0.0001522   1.9900766  )
        82           Cu  tau(  82) = (   0.2505362   0.2304765   1.9891646  )
        83           Cu  tau(  83) = (   0.5003170  -0.0004802   1.9916035  )
        84           Cu  tau(  84) = (   0.7508297   0.2300475   1.9890208  )
        85           Cu  tau(  85) = (   0.0007134   0.4615681   1.9886491  )
        86           Cu  tau(  86) = (   0.2555377   0.6923694   2.0041176  )
        87           Cu  tau(  87) = (   0.5018602   0.4586886   1.9914437  )
        88           Cu  tau(  88) = (   0.7496439   0.6912560   1.9926309  )
        89           Cu  tau(  89) = (   0.0027475   0.9204858   1.9979469  )
        90           Cu  tau(  90) = (   0.2526709   1.1520246   1.9975839  )
        91           Cu  tau(  91) = (   0.5025490   0.9235215   2.0015700  )
        92           Cu  tau(  92) = (   0.7508204   1.1539531   1.9940355  )
        93           Cu  tau(  93) = (   0.0014989   1.3847037   1.9932512  )
        94           Cu  tau(  94) = (   0.2499708   1.6164600   1.9898000  )
        95           Cu  tau(  95) = (   0.5004943   1.3857039   1.9900093  )
        96           Cu  tau(  96) = (   0.7511816   1.6158142   1.9892455  )
        97           Cu  tau(  97) = (   0.0001801   1.8474409   1.9918528  )
        98           Cu  tau(  98) = (   0.2503839   2.0779032   1.9912589  )
        99           Cu  tau(  99) = (   0.5004988   1.8464844   1.9899715  )
       100           Cu  tau( 100) = (   0.7501677   2.0781460   1.9911230  )
       101           C   tau( 101) = (  -0.0003040   0.0972297   2.3847638  )
       102           C   tau( 102) = (  -0.0003765   0.2895199   2.3803426  )
       103           C   tau( 103) = (   0.1663539   0.0011273   2.3863152  )
       104           C   tau( 104) = (   0.1662550   0.3851894   2.3755594  )
       105           C   tau( 105) = (   0.3329376   0.0969758   2.3818213  )
       106           C   tau( 106) = (   0.3329334   0.2892900   2.3754856  )
       107           C   tau( 107) = (   0.4997646   0.0009528   2.3837108  )
       108           C   tau( 108) = (   0.4996309   0.3858570   2.3733910  )
       109           C   tau( 109) = (   0.6666229   0.0973194   2.3827700  )
       110           C   tau( 110) = (   0.6667266   0.2896695   2.3769746  )
       111           C   tau( 111) = (   0.8330509   0.0011811   2.3869992  )
       112           C   tau( 112) = (   0.8333458   0.3859084   2.3781081  )
       113           C   tau( 113) = (  -0.0003680   0.6746180   2.3800255  )
       114           C   tau( 114) = (  -0.0004064   0.8679568   2.3724861  )
       115           C   tau( 115) = (   0.1668760   0.5778132   2.3777557  )
       116           C   tau( 116) = (   0.1634612   0.9654252   2.3879310  )
       117           C   tau( 117) = (   0.3328709   0.6722646   2.3863051  )
       118           C   tau( 118) = (   0.3249077   0.8629165   2.4553160  )
       119           H   tau( 119) = (   0.2898117   0.8427006   2.6008827  )
       120           C   tau( 120) = (   0.4987120   0.5783926   2.3806943  )
       121           C   tau( 121) = (   0.5061247   0.9664464   2.4580165  )
       122           H   tau( 122) = (   0.5407479   0.9796419   2.6045574  )
       123           C   tau( 123) = (   0.6665974   0.6755722   2.3805660  )
       124           C   tau( 124) = (   0.6673444   0.8659745   2.3861427  )
       125           C   tau( 125) = (   0.8336502   0.5787306   2.3768762  )
       126           C   tau( 126) = (   0.8312723   0.9631555   2.3738225  )
       127           C   tau( 127) = (  -0.0019716   1.2521495   2.3750160  )
       128           C   tau( 128) = (  -0.0013290   1.4449106   2.3729733  )
       129           C   tau( 129) = (   0.1648442   1.1554723   2.3838475  )
       130           C   tau( 130) = (   0.1656843   1.5411912   2.3777721  )
       131           C   tau( 131) = (   0.3330998   1.2527319   2.3892415  )
       132           C   tau( 132) = (   0.3324059   1.4451862   2.3817547  )
       133           C_h tau( 133) = (   0.4984958   1.1595819   2.3974132  )
       134           C   tau( 134) = (   0.4987093   1.5415794   2.3828062  )
       135           C   tau( 135) = (   0.6639257   1.2531325   2.3818526  )
       136           C   tau( 136) = (   0.6649916   1.4456716   2.3776727  )
       137           C   tau( 137) = (   0.8315532   1.1563045   2.3783396  )
       138           C   tau( 138) = (   0.8319314   1.5413832   2.3751799  )
       139           C   tau( 139) = (  -0.0008312   1.8298647   2.3821881  )
       140           C   tau( 140) = (  -0.0005462   2.0221493   2.3876639  )
       141           C   tau( 141) = (   0.1659842   1.7335119   2.3822565  )
       142           C   tau( 142) = (   0.1661351   2.1182255   2.3880502  )
       143           C   tau( 143) = (   0.3325355   1.8297460   2.3874497  )
       144           C   tau( 144) = (   0.3328591   2.0220360   2.3885517  )
       145           C   tau( 145) = (   0.4990294   1.7338454   2.3860481  )
       146           C   tau( 146) = (   0.4995744   2.1180647   2.3887952  )
       147           C   tau( 147) = (   0.6657974   1.8297375   2.3866810  )
       148           C   tau( 148) = (   0.6660566   2.0220263   2.3886619  )
       149           C   tau( 149) = (   0.8322308   1.7336756   2.3810465  )
       150           C   tau( 150) = (   0.8329133   2.1182503   2.3883294  )

     number of k points=     6  gaussian smearing, width (Ry)=  0.1000
                       cart. coord. in units 2pi/alat
        k(    1) = (   0.0000000   0.0000000   0.0000000), wk =   0.2500000
        k(    2) = (   0.0000000  -0.2165064   0.0000000), wk =   0.2500000
        k(    3) = (   0.2500000   0.0000000   0.0000000), wk =   0.5000000
        k(    4) = (   0.2500000  -0.2165064   0.0000000), wk =   0.5000000
        k(    5) = (  -0.5000000   0.0000000   0.0000000), wk =   0.2500000
        k(    6) = (  -0.5000000  -0.2165064   0.0000000), wk =   0.2500000

     Dense  grid:  2050409 G-vectors     FFT dimensions: (  80, 192, 270)

     Largest allocated arrays     est. size (Mb)     dimensions
        Kohn-Sham Wavefunctions        54.52 Mb     (    4604,  776)
        NL pseudopotentials           129.97 Mb     (    4604, 1850)
        Each V/rho on FFT grid          1.17 Mb     (   76800)
        Each G-vector array             0.28 Mb     (   36616)
        G-vector shells                 0.14 Mb     (   17932)
     Largest temporary arrays     est. size (Mb)     dimensions
        Auxiliary wavefunctions       218.06 Mb     (    4604, 3104)
        Each subspace H/S matrix        5.87 Mb     (     620,  620)
        Each <psi_i|beta_j> matrix     21.91 Mb     (    1850,  776)
        Arrays for rho mixing           9.38 Mb     (   76800,    8)

     Initial potential from superposition of free atoms
     Check: negative starting charge=   -0.001837

     starting charge 1268.81749, renormalised to 1294.00000

     negative rho (up, down):  1.874E-03 0.000E+00
     Starting wfc are 1286 randomized atomic wfcs

     total cpu time spent up to now is      107.4 secs

     Self-consistent Calculation

     iteration #  1     ecut=    80.00 Ry     beta=0.70
     Davidson diagonalization with overlap
     c_bands:  1 eigenvalues not converged
     c_bands:  1 eigenvalues not converged
     c_bands:  2 eigenvalues not converged
     c_bands:  1 eigenvalues not converged
     ethr =  1.00E-04,  avg # of iterations = 39.5

     negative rho (up, down):  2.412E+01 0.000E+00

     total cpu time spent up to now is     2135.4 secs

     total energy              =   -9795.33491696 Ry
     Harris-Foulkes estimate   =  -17286.69489828 Ry
     estimated scf accuracy    <  178695.30214358 Ry

     iteration #  2     ecut=    80.00 Ry     beta=0.70
     Davidson diagonalization with overlap
     ethr =  1.00E-02,  avg # of iterations = 11.3

     negative rho (up, down):  2.803E+01 0.000E+00

     total cpu time spent up to now is     3038.2 secs

     total energy              =  -12217.15969037 Ry
     Harris-Foulkes estimate   =  -13621.23671391 Ry
     estimated scf accuracy    <   23322.38488727 Ry

     iteration #  3     ecut=    80.00 Ry     beta=0.70
     Davidson diagonalization with overlap
     ethr =  1.00E-02,  avg # of iterations =  7.0

     negative rho (up, down):  2.879E+01 0.000E+00

     total cpu time spent up to now is     3569.7 secs

     total energy              =  -12409.93830315 Ry
     Harris-Foulkes estimate   =  -13359.35899788 Ry
     estimated scf accuracy    <    6028.16455104 Ry

     iteration #  4     ecut=    80.00 Ry     beta=0.70
     Davidson diagonalization with overlap
     ethr =  1.00E-02,  avg # of iterations =  5.5

     negative rho (up, down):  2.149E+01 0.000E+00

     total cpu time spent up to now is     4141.1 secs

     total energy              =  -12813.22553944 Ry
     Harris-Foulkes estimate   =  -13048.82848612 Ry
     estimated scf accuracy    <    1844.70212344 Ry

     iteration #  5     ecut=    80.00 Ry     beta=0.70
     Davidson diagonalization with overlap
     ethr =  1.00E-02,  avg # of iterations =  3.2

     negative rho (up, down):  1.637E+01 0.000E+00

     total cpu time spent up to now is     4415.8 secs

     total energy              =  -12818.20879001 Ry
     Harris-Foulkes estimate   =  -12931.58836341 Ry
     estimated scf accuracy    <    1129.57881441 Ry

     iteration #  6     ecut=    80.00 Ry     beta=0.70
     Davidson diagonalization with overlap
     ethr =  1.00E-02,  avg # of iterations =  3.0

     negative rho (up, down):  1.133E+01 0.000E+00

     total cpu time spent up to now is     4618.1 secs

     total energy              =  -12809.32109778 Ry
     Harris-Foulkes estimate   =  -12877.49915015 Ry
     estimated scf accuracy    <     528.76157749 Ry

     iteration #  7     ecut=    80.00 Ry     beta=0.70
     Davidson diagonalization with overlap
     ethr =  1.00E-02,  avg # of iterations =  2.0

     negative rho (up, down):  8.004E+00 0.000E+00

     total cpu time spent up to now is     4806.3 secs

     total energy              =  -12787.76108943 Ry
     Harris-Foulkes estimate   =  -12828.80940454 Ry
     estimated scf accuracy    <     401.66511587 Ry

     iteration #  8     ecut=    80.00 Ry     beta=0.70
     Davidson diagonalization with overlap
     ethr =  1.00E-02,  avg # of iterations =  2.0

     negative rho (up, down):  6.485E+00 0.000E+00

     total cpu time spent up to now is     4987.7 secs

     total energy              =  -12775.00530155 Ry
     Harris-Foulkes estimate   =  -12804.83398258 Ry
     estimated scf accuracy    <     480.98036514 Ry

     iteration #  9     ecut=    80.00 Ry     beta=0.70
     Davidson diagonalization with overlap
     ethr =  1.00E-02,  avg # of iterations =  2.2

     negative rho (up, down):  4.994E+00 0.000E+00

     total cpu time spent up to now is     5169.9 secs

     total energy              =  -12771.07958822 Ry
     Harris-Foulkes estimate   =  -12786.84718077 Ry
     estimated scf accuracy    <     168.98041460 Ry

     iteration # 10     ecut=    80.00 Ry     beta=0.70
     Davidson diagonalization with overlap
     ethr =  1.00E-02,  avg # of iterations =  1.0

     negative rho (up, down):  1.248E+00 0.000E+00

     total cpu time spent up to now is     5338.3 secs

     total energy              =  -12739.24589777 Ry
     Harris-Foulkes estimate   =  -12772.62935638 Ry
     estimated scf accuracy    <     129.94382397 Ry

     iteration # 11     ecut=    80.00 Ry     beta=0.70
     Davidson diagonalization with overlap
     ethr =  1.00E-02,  avg # of iterations =  2.7

     negative rho (up, down):  7.955E-01 0.000E+00

     total cpu time spent up to now is     5526.6 secs

     total energy              =  -12732.08051177 Ry
     Harris-Foulkes estimate   =  -12748.22179830 Ry
     estimated scf accuracy    <     363.92728918 Ry

     iteration # 12     ecut=    80.00 Ry     beta=0.70
     Davidson diagonalization with overlap
     ethr =  1.00E-02,  avg # of iterations =  1.7

     negative rho (up, down):  4.397E-01 0.000E+00

     total cpu time spent up to now is     5702.4 secs

     total energy              =  -12731.20246048 Ry
     Harris-Foulkes estimate   =  -12742.24841671 Ry
     estimated scf accuracy    <     190.69549367 Ry

     iteration # 13     ecut=    80.00 Ry     beta=0.70
     Davidson diagonalization with overlap
     ethr =  1.00E-02,  avg # of iterations =  1.0

     negative rho (up, down):  7.199E-01 0.000E+00

     total cpu time spent up to now is     5872.2 secs

     total energy              =  -12723.95627235 Ry
     Harris-Foulkes estimate   =  -12738.87937312 Ry
     estimated scf accuracy    <     129.65731064 Ry

     iteration # 14     ecut=    80.00 Ry     beta=0.70
     Davidson diagonalization with overlap
     ethr =  1.00E-02,  avg # of iterations =  2.0

     negative rho (up, down):  3.550E+00 0.000E+00

     total cpu time spent up to now is     6051.1 secs

     total energy              =  -12720.94851756 Ry
     Harris-Foulkes estimate   =  -12731.78141112 Ry
     estimated scf accuracy    <      78.40379016 Ry

     iteration # 15     ecut=    80.00 Ry     beta=0.70
     Davidson diagonalization with overlap
     ethr =  6.06E-03,  avg # of iterations =  2.3

     negative rho (up, down):  3.617E+00 0.000E+00

     total cpu time spent up to now is     6235.3 secs

     total energy              =  -12718.50850679 Ry
     Harris-Foulkes estimate   =  -12724.29940115 Ry
     estimated scf accuracy    <      45.19132210 Ry

     iteration # 16     ecut=    80.00 Ry     beta=0.70
     Davidson diagonalization with overlap
     ethr =  3.49E-03,  avg # of iterations =  3.5

     negative rho (up, down):  4.320E+00 0.000E+00

     total cpu time spent up to now is     6432.7 secs

     total energy              =  -12716.90761386 Ry
     Harris-Foulkes estimate   =  -12721.17412945 Ry
     estimated scf accuracy    <      31.97546210 Ry

     iteration # 17     ecut=    80.00 Ry     beta=0.70
     Davidson diagonalization with overlap
     ethr =  2.47E-03,  avg # of iterations =  3.0

     negative rho (up, down):  5.014E+00 0.000E+00

     total cpu time spent up to now is     6624.1 secs

     total energy              =  -12716.93639669 Ry
     Harris-Foulkes estimate   =  -12718.64930581 Ry
     estimated scf accuracy    <      22.49370371 Ry

     iteration # 18     ecut=    80.00 Ry     beta=0.70
     Davidson diagonalization with overlap
     ethr =  1.74E-03,  avg # of iterations =  2.5

     negative rho (up, down):  3.925E+00 0.000E+00

     total cpu time spent up to now is     6809.6 secs

     total energy              =  -12715.65318840 Ry
     Harris-Foulkes estimate   =  -12717.45687581 Ry
     estimated scf accuracy    <      15.91833871 Ry

     iteration # 19     ecut=    80.00 Ry     beta=0.70
     Davidson diagonalization with overlap
     ethr =  1.23E-03,  avg # of iterations =  5.7

     negative rho (up, down):  3.923E+00 0.000E+00

     total cpu time spent up to now is     7032.2 secs

     total energy              =  -12714.05144526 Ry
     Harris-Foulkes estimate   =  -12716.17872510 Ry
     estimated scf accuracy    <      19.26444496 Ry

     iteration # 20     ecut=    80.00 Ry     beta=0.70
     Davidson diagonalization with overlap
     ethr =  1.23E-03,  avg # of iterations =  5.5

     negative rho (up, down):  4.085E+00 0.000E+00

     total cpu time spent up to now is     7256.4 secs

     total energy              =  -12714.02166825 Ry
     Harris-Foulkes estimate   =  -12714.81884506 Ry
     estimated scf accuracy    <       9.16897067 Ry

     iteration # 21     ecut=    80.00 Ry     beta=0.70
     Davidson diagonalization with overlap
     ethr =  7.09E-04,  avg # of iterations =  5.3

     negative rho (up, down):  2.887E+00 0.000E+00

     total cpu time spent up to now is     7474.1 secs

     total energy              =  -12713.71721796 Ry
     Harris-Foulkes estimate   =  -12714.32816564 Ry
     estimated scf accuracy    <       6.88344528 Ry

     iteration # 22     ecut=    80.00 Ry     beta=0.70
     Davidson diagonalization with overlap
     ethr =  5.32E-04,  avg # of iterations =  4.8

     negative rho (up, down):  1.007E+00 0.000E+00

     total cpu time spent up to now is     7686.5 secs

     total energy              =  -12711.88130048 Ry
     Harris-Foulkes estimate   =  -12713.85695547 Ry
     estimated scf accuracy    <       5.70638759 Ry

     iteration # 23     ecut=    80.00 Ry     beta=0.70
     Davidson diagonalization with overlap
     ethr =  4.41E-04,  avg # of iterations =  6.8

     negative rho (up, down):  1.156E+00 0.000E+00

     total cpu time spent up to now is     7926.8 secs

     total energy              =  -12712.53360548 Ry
     Harris-Foulkes estimate   =  -12712.48840395 Ry
     estimated scf accuracy    <      31.01677503 Ry

     iteration # 24     ecut=    80.00 Ry     beta=0.70
     Davidson diagonalization with overlap
     ethr =  4.41E-04,  avg # of iterations =  3.5

     negative rho (up, down):  6.876E-01 0.000E+00

     total cpu time spent up to now is     8123.7 secs

     total energy              =  -12712.26470715 Ry
     Harris-Foulkes estimate   =  -12712.73191457 Ry
     estimated scf accuracy    <      13.61929186 Ry

     iteration # 25     ecut=    80.00 Ry     beta=0.70
     Davidson diagonalization with overlap
     ethr =  4.41E-04,  avg # of iterations =  2.0

     negative rho (up, down):  1.863E-01 0.000E+00

     total cpu time spent up to now is     8303.8 secs

     total energy              =  -12712.14128287 Ry
     Harris-Foulkes estimate   =  -12712.37102281 Ry
     estimated scf accuracy    <      23.43678940 Ry

     iteration # 26     ecut=    80.00 Ry     beta=0.70
     Davidson diagonalization with overlap
     ethr =  4.41E-04,  avg # of iterations =  7.3

     negative rho (up, down):  8.626E-03 0.000E+00

     total cpu time spent up to now is     8545.3 secs

     total energy              =  -12711.86501550 Ry
     Harris-Foulkes estimate   =  -12712.21213936 Ry
     estimated scf accuracy    <      29.95931653 Ry

     iteration # 27     ecut=    80.00 Ry     beta=0.70
     Davidson diagonalization with overlap
     ethr =  4.41E-04,  avg # of iterations =  6.8

     negative rho (up, down):  2.513E-02 0.000E+00

     total cpu time spent up to now is     8779.0 secs

     total energy              =  -12711.65957332 Ry
     Harris-Foulkes estimate   =  -12711.96364289 Ry
     estimated scf accuracy    <      19.49794946 Ry

     iteration # 28     ecut=    80.00 Ry     beta=0.70
     Davidson diagonalization with overlap
     ethr =  4.41E-04,  avg # of iterations =  1.0

     negative rho (up, down):  2.878E-02 0.000E+00

     total cpu time spent up to now is     8948.1 secs

     total energy              =  -12711.45224400 Ry
     Harris-Foulkes estimate   =  -12711.76185295 Ry
     estimated scf accuracy    <      17.04967888 Ry

     iteration # 29     ecut=    80.00 Ry     beta=0.70
     Davidson diagonalization with overlap
     ethr =  4.41E-04,  avg # of iterations =  1.0

     negative rho (up, down):  6.508E-04 0.000E+00

     total cpu time spent up to now is     9117.0 secs

     total energy              =  -12711.68888831 Ry
     Harris-Foulkes estimate   =  -12711.90475359 Ry
     estimated scf accuracy    <       4.80011835 Ry

     iteration # 30     ecut=    80.00 Ry     beta=0.70
     Davidson diagonalization with overlap
     ethr =  3.71E-04,  avg # of iterations =  1.0

     negative rho (up, down):  4.197E-02 0.000E+00

     total cpu time spent up to now is     9285.7 secs

     total energy              =  -12710.03725456 Ry
     Harris-Foulkes estimate   =  -12711.73173536 Ry
     estimated scf accuracy    <       4.42599765 Ry

     iteration # 31     ecut=    80.00 Ry     beta=0.70
     Davidson diagonalization with overlap
     ethr =  3.42E-04,  avg # of iterations =  5.0

     negative rho (up, down):  6.151E-01 0.000E+00

     total cpu time spent up to now is     9507.7 secs

     total energy              =  -12709.96264214 Ry
     Harris-Foulkes estimate   =  -12710.39793419 Ry
     estimated scf accuracy    <       9.56975194 Ry

     iteration # 32     ecut=    80.00 Ry     beta=0.70
     Davidson diagonalization with overlap
     ethr =  3.42E-04,  avg # of iterations =  3.7

     negative rho (up, down):  2.696E-01 0.000E+00

     total cpu time spent up to now is     9706.5 secs

     total energy              =  -12709.40697252 Ry
     Harris-Foulkes estimate   =  -12710.62506222 Ry
     estimated scf accuracy    <       3.81372863 Ry

     iteration # 33     ecut=    80.00 Ry     beta=0.70
     Davidson diagonalization with overlap
     ethr =  2.95E-04,  avg # of iterations =  5.8

     negative rho (up, down):  3.345E-01 0.000E+00

     total cpu time spent up to now is     9936.3 secs

     total energy              =  -12709.40559502 Ry
     Harris-Foulkes estimate   =  -12709.82143417 Ry
     estimated scf accuracy    <       2.78844022 Ry

     iteration # 34     ecut=    80.00 Ry     beta=0.70
     Davidson diagonalization with overlap
     ethr =  2.15E-04,  avg # of iterations =  8.0

     negative rho (up, down):  1.885E-01 0.000E+00

     total cpu time spent up to now is    10212.3 secs

     total energy              =  -12709.42955161 Ry
     Harris-Foulkes estimate   =  -12709.53730379 Ry
     estimated scf accuracy    <       1.93073920 Ry

     iteration # 35     ecut=    80.00 Ry     beta=0.70
     Davidson diagonalization with overlap
     ethr =  1.49E-04,  avg # of iterations =  2.5

     negative rho (up, down):  8.851E-02 0.000E+00

     total cpu time spent up to now is    10400.4 secs

     total energy              =  -12709.41694512 Ry
     Harris-Foulkes estimate   =  -12709.47521425 Ry
     estimated scf accuracy    <       1.23659893 Ry

     iteration # 36     ecut=    80.00 Ry     beta=0.70
     Davidson diagonalization with overlap
     ethr =  9.56E-05,  avg # of iterations =  9.2

     negative rho (up, down):  6.970E-02 0.000E+00

     total cpu time spent up to now is    10668.6 secs

     total energy              =  -12709.41207421 Ry
     Harris-Foulkes estimate   =  -12709.43979293 Ry
     estimated scf accuracy    <       0.40985776 Ry

     iteration # 37     ecut=    80.00 Ry     beta=0.70
     Davidson diagonalization with overlap
     c_bands:  1 eigenvalues not converged
     ethr =  3.17E-05,  avg # of iterations =  8.3

     negative rho (up, down):  8.385E-02 0.000E+00

     total cpu time spent up to now is    10919.5 secs

     total energy              =  -12709.39603215 Ry
     Harris-Foulkes estimate   =  -12709.42252639 Ry
     estimated scf accuracy    <       0.17035048 Ry

     iteration # 38     ecut=    80.00 Ry     beta=0.70
     Davidson diagonalization with overlap
     ethr =  1.32E-05,  avg # of iterations =  8.7

     negative rho (up, down):  5.454E-02 0.000E+00

     total cpu time spent up to now is    11198.4 secs

     total energy              =  -12709.40249218 Ry
     Harris-Foulkes estimate   =  -12709.42048782 Ry
     estimated scf accuracy    <       0.14003432 Ry

     iteration # 39     ecut=    80.00 Ry     beta=0.70
     Davidson diagonalization with overlap
     ethr =  1.08E-05,  avg # of iterations =  4.7

     negative rho (up, down):  5.259E-02 0.000E+00

     total cpu time spent up to now is    11412.3 secs

     total energy              =  -12709.40994717 Ry
     Harris-Foulkes estimate   =  -12709.41283639 Ry
     estimated scf accuracy    <       0.01703435 Ry

     iteration # 40     ecut=    80.00 Ry     beta=0.70
     Davidson diagonalization with overlap
     ethr =  1.32E-06,  avg # of iterations = 10.5

     negative rho (up, down):  5.940E-02 0.000E+00

     total cpu time spent up to now is    11708.4 secs

     total energy              =  -12709.41092667 Ry
     Harris-Foulkes estimate   =  -12709.41166545 Ry
     estimated scf accuracy    <       0.00566243 Ry

     iteration # 41     ecut=    80.00 Ry     beta=0.70
     Davidson diagonalization with overlap
     ethr =  4.38E-07,  avg # of iterations =  8.5

     negative rho (up, down):  3.995E-02 0.000E+00

     total cpu time spent up to now is    11994.0 secs

     total energy              =  -12709.41100666 Ry
     Harris-Foulkes estimate   =  -12709.41147903 Ry
     estimated scf accuracy    <       0.00087627 Ry

     iteration # 42     ecut=    80.00 Ry     beta=0.70
     Davidson diagonalization with overlap
     ethr =  6.77E-08,  avg # of iterations =  7.7

     negative rho (up, down):  3.080E-02 0.000E+00

     total cpu time spent up to now is    12255.4 secs

     total energy              =  -12709.41106021 Ry
     Harris-Foulkes estimate   =  -12709.41108148 Ry
     estimated scf accuracy    <       0.00051147 Ry

     iteration # 43     ecut=    80.00 Ry     beta=0.70
     Davidson diagonalization with overlap
     ethr =  3.95E-08,  avg # of iterations =  8.0

     negative rho (up, down):  1.455E-02 0.000E+00

     total cpu time spent up to now is    12523.7 secs

     total energy              =  -12709.41079845 Ry
     Harris-Foulkes estimate   =  -12709.41110104 Ry
     estimated scf accuracy    <       0.00022152 Ry

     iteration # 44     ecut=    80.00 Ry     beta=0.70
     Davidson diagonalization with overlap
     c_bands:  1 eigenvalues not converged
     ethr =  1.71E-08,  avg # of iterations = 12.7

     negative rho (up, down):  7.969E-03 0.000E+00

     total cpu time spent up to now is    12848.5 secs

     total energy              =  -12709.41065671 Ry
     Harris-Foulkes estimate   =  -12709.41081985 Ry
     estimated scf accuracy    <       0.00015748 Ry

     iteration # 45     ecut=    80.00 Ry     beta=0.70
     Davidson diagonalization with overlap
     c_bands:  1 eigenvalues not converged
     ethr =  1.22E-08,  avg # of iterations = 10.2

     negative rho (up, down):  4.940E-03 0.000E+00

     total cpu time spent up to now is    13133.1 secs

     total energy              =  -12709.41061452 Ry
     Harris-Foulkes estimate   =  -12709.41066515 Ry
     estimated scf accuracy    <       0.00005216 Ry

     iteration # 46     ecut=    80.00 Ry     beta=0.70
     Davidson diagonalization with overlap
     ethr =  4.03E-09,  avg # of iterations =  6.3

     negative rho (up, down):  2.941E-03 0.000E+00

     total cpu time spent up to now is    13373.3 secs

     total energy              =  -12709.41059261 Ry
     Harris-Foulkes estimate   =  -12709.41061857 Ry
     estimated scf accuracy    <       0.00002859 Ry

     iteration # 47     ecut=    80.00 Ry     beta=0.70
     Davidson diagonalization with overlap
     ethr =  2.21E-09,  avg # of iterations =  8.2

     negative rho (up, down):  2.159E-03 0.000E+00

     total cpu time spent up to now is    13636.9 secs

     total energy              =  -12709.41059196 Ry
     Harris-Foulkes estimate   =  -12709.41059515 Ry
     estimated scf accuracy    <       0.00001301 Ry

     iteration # 48     ecut=    80.00 Ry     beta=0.70
     Davidson diagonalization with overlap
     ethr =  1.01E-09,  avg # of iterations =  2.7

     negative rho (up, down):  2.088E-03 0.000E+00

     total cpu time spent up to now is    13831.4 secs

     total energy              =  -12709.41059311 Ry
     Harris-Foulkes estimate   =  -12709.41059277 Ry
     estimated scf accuracy    <       0.00000343 Ry

     iteration # 49     ecut=    80.00 Ry     beta=0.70
     Davidson diagonalization with overlap
     ethr =  2.65E-10,  avg # of iterations =  2.5

     negative rho (up, down):  2.169E-03 0.000E+00

     total cpu time spent up to now is    14024.9 secs

     total energy              =  -12709.41059330 Ry
     Harris-Foulkes estimate   =  -12709.41059340 Ry
     estimated scf accuracy    <       0.00000166 Ry

     iteration # 50     ecut=    80.00 Ry     beta=0.70
     Davidson diagonalization with overlap
     ethr =  1.28E-10,  avg # of iterations =  2.3

     negative rho (up, down):  2.092E-03 0.000E+00

     total cpu time spent up to now is    14218.7 secs

     total energy              =  -12709.41059344 Ry
     Harris-Foulkes estimate   =  -12709.41059349 Ry
     estimated scf accuracy    <       0.00000081 Ry

     iteration # 51     ecut=    80.00 Ry     beta=0.70
     Davidson diagonalization with overlap
     ethr =  6.24E-11,  avg # of iterations =  2.8

     negative rho (up, down):  2.114E-03 0.000E+00

     total cpu time spent up to now is    14416.8 secs

     total energy              =  -12709.41059347 Ry
     Harris-Foulkes estimate   =  -12709.41059354 Ry
     estimated scf accuracy    <       0.00000034 Ry

     iteration # 52     ecut=    80.00 Ry     beta=0.70
     Davidson diagonalization with overlap
     ethr =  2.64E-11,  avg # of iterations =  2.0

     negative rho (up, down):  2.098E-03 0.000E+00

     total cpu time spent up to now is    14606.6 secs

     total energy              =  -12709.41059350 Ry
     Harris-Foulkes estimate   =  -12709.41059350 Ry
     estimated scf accuracy    <       0.00000002 Ry

     iteration # 53     ecut=    80.00 Ry     beta=0.70
     Davidson diagonalization with overlap
     ethr =  1.45E-12,  avg # of iterations =  3.0

     negative rho (up, down):  2.098E-03 0.000E+00

     total cpu time spent up to now is    14875.9 secs

     total energy              =  -12709.41059348 Ry
     Harris-Foulkes estimate   =  -12709.41059351 Ry
     estimated scf accuracy    <       0.00000001 Ry

     iteration # 54     ecut=    80.00 Ry     beta=0.70
     Davidson diagonalization with overlap
     ethr =  8.05E-13,  avg # of iterations =  2.5

     negative rho (up, down):  2.089E-03 0.000E+00

     total cpu time spent up to now is    15063.2 secs

     End of self-consistent calculation

          k = 0.0000 0.0000 0.0000 (256287 PWs)   bands (ev):

   -16.9669 -16.1660 -15.9971 -15.3008 -14.9401 -14.6900 -14.5323 -14.1908
   -14.1229 -14.0512 -14.0373 -13.3378 -13.2148 -13.0811 -13.0532 -13.0007
   -12.9909 -11.5883 -11.4430 -11.4115 -11.2932 -11.1374 -10.2149  -9.6835
    -9.6532  -9.5691  -9.4720  -8.8460  -8.7088  -8.6287  -8.5138  -7.8652
    -7.8131  -7.7132  -7.5720  -7.5228  -7.4844  -7.4392  -7.3778  -6.4136
    -6.2688  -6.0568  -6.0046  -5.9515  -5.9133  -5.8244  -5.7600  -5.6773
    -5.4422  -5.4220  -5.3599  -4.9464  -4.8194  -4.7447  -4.7178  -4.5289
    -4.4782  -4.3582  -4.2158  -4.1204  -3.9532  -3.9263  -3.9194  -3.8334
    -3.6908  -3.6004  -3.4695  -3.4303  -3.3871  -3.3473  -3.3453  -3.3372
    -3.2673  -3.1286  -3.0926  -3.0771  -3.0095  -2.9444  -2.9432  -2.9366
    -2.9345  -2.8970  -2.8500  -2.7799  -2.7266  -2.6809  -2.6743  -2.6449
    -2.6321  -2.5697  -2.5244  -2.4920  -2.3462  -2.3397  -2.2796  -2.2777
    -2.1923  -2.1701  -2.1278  -2.1265  -2.1104  -2.0874  -2.0872  -2.0861
    -2.0852  -2.0543  -2.0145  -1.9592  -1.9585  -1.9537  -1.9530  -1.9089
    -1.8760  -1.8729  -1.7752  -1.7123  -1.7088  -1.6760  -1.6740  -1.6724
    -1.6559  -1.6185  -1.6090  -1.6066  -1.5943  -1.5886  -1.5361  -1.5305
    -1.5070  -1.5043  -1.4986  -1.4950  -1.4865  -1.4717  -1.4644  -1.4506
    -1.4490  -1.4411  -1.4056  -1.3717  -1.3681  -1.3519  -1.3379  -1.3328
    -1.3132  -1.2880  -1.2659  -1.2344  -1.1994  -1.1987  -1.1853  -1.1809
    -1.1479  -1.1453  -1.1277  -1.1243  -1.1231  -1.1021  -1.0991  -1.0776
    -1.0604  -1.0361  -0.9885  -0.9849  -0.9787  -0.9773  -0.9673  -0.9584
    -0.9579  -0.9570  -0.9548  -0.9537  -0.9515  -0.9396  -0.9366  -0.9340
    -0.9082  -0.8982  -0.8874  -0.8744  -0.8681  -0.8639  -0.8556  -0.8538
    -0.8515  -0.8276  -0.7970  -0.7962  -0.7926  -0.7918  -0.7909  -0.7902
    -0.7899  -0.7869  -0.7857  -0.7844  -0.7829  -0.7824  -0.7793  -0.7788
    -0.7770  -0.7747  -0.7629  -0.7580  -0.7212  -0.7120  -0.6263  -0.6250
    -0.6185  -0.6183  -0.6030  -0.5967  -0.5943  -0.5775  -0.5769  -0.5580
    -0.5555  -0.5478  -0.5441  -0.5348  -0.5335  -0.5244  -0.5011  -0.5009
    -0.4953  -0.4952  -0.4899  -0.4896  -0.4792  -0.4782  -0.4291  -0.4276
    -0.4005  -0.3748  -0.3745  -0.3662  -0.3642  -0.3602  -0.3589  -0.3474
    -0.3463  -0.3416  -0.3400  -0.3397  -0.3385  -0.3360  -0.3350  -0.3249
    -0.3207  -0.3205  -0.3150  -0.3117  -0.2866  -0.2862  -0.2615  -0.2383
    -0.2353  -0.2316  -0.2271  -0.2270  -0.2028  -0.2025  -0.2022  -0.1982
    -0.1960  -0.1848  -0.1789  -0.1776  -0.1773  -0.1679  -0.1579  -0.1570
    -0.1552  -0.1524  -0.1500  -0.1492  -0.1472  -0.1466  -0.1458  -0.1370
    -0.1272  -0.1261  -0.1232  -0.1221  -0.1010  -0.0716  -0.0576  -0.0554
    -0.0548  -0.0537  -0.0530  -0.0121  -0.0103  -0.0046  -0.0040   0.0008
     0.0015   0.0022   0.0036   0.0061   0.0146   0.0185   0.0312   0.0511
     0.0526   0.0556   0.0592   0.0643   0.0723   0.0822   0.0829   0.0843
     0.0885   0.0976   0.0983   0.1071   0.1096   0.1104   0.1115   0.1170
     0.1186   0.1268   0.1271   0.1284   0.1287   0.1376   0.1397   0.1446
     0.1586   0.1676   0.1722   0.1997   0.2003   0.2271   0.2275   0.2472
     0.2520   0.2623   0.2657   0.2940   0.2968   0.2971   0.3094   0.3101
     0.3118   0.3327   0.3332   0.3362   0.3366   0.3392   0.3431   0.3473
     0.3486   0.3932   0.4038   0.4052   0.4085   0.4121   0.4161   0.4165
     0.4405   0.4426   0.4440   0.4479   0.4494   0.4576   0.4673   0.4805
     0.4831   0.4923   0.4970   0.5040   0.5054   0.5085   0.5305   0.5432
     0.5511   0.5569   0.5593   0.5619   0.5651   0.5658   0.5726   0.5842
     0.5910   0.5929   0.5964   0.5981   0.5985   0.6014   0.6031   0.6066
     0.6092   0.6133   0.6166   0.6182   0.6233   0.6258   0.6278   0.6309
     0.6615   0.6671   0.6692   0.6695   0.6881   0.7052   0.7085   0.7100
     0.7115   0.7165   0.7185   0.7193   0.7202   0.7232   0.7255   0.7311
     0.7393   0.7408   0.7440   0.7452   0.7474   0.7510   0.7515   0.7590
     0.7651   0.7700   0.7840   0.7847   0.7880   0.7922   0.7983   0.7994
     0.8057   0.8121   0.8122   0.8123   0.8167   0.8181   0.8194   0.8235
     0.8309   0.8488   0.8691   0.8703   0.8815   0.8840   0.8852   0.8861
     0.8892   0.8901   0.9166   0.9193   0.9266   0.9336   0.9400   0.9405
     0.9479   0.9535   0.9544   0.9626   0.9636   0.9649   0.9686   0.9737
     0.9832   0.9993   1.0011   1.0034   1.0038   1.0070   1.0086   1.0181
     1.0232   1.0404   1.0446   1.0471   1.0503   1.0514   1.0620   1.0709
     1.0746   1.0753   1.0770   1.0772   1.0807   1.0850   1.0875   1.0900
     1.0916   1.0930   1.0933   1.1078   1.1084   1.1148   1.1247   1.1261
     1.1292   1.1314   1.1379   1.1447   1.1633   1.1669   1.1687   1.1715
     1.1740   1.1770   1.1796   1.1812   1.1826   1.1835   1.1841   1.1847
     1.1873   1.1970   1.1998   1.2019   1.2192   1.2381   1.2471   1.2509
     1.2598   1.2621   1.2669   1.2676   1.2691   1.2702   1.2738   1.2826
     1.2878   1.2965   1.3002   1.3032   1.3034   1.3050   1.3067   1.3073
     1.3102   1.3189   1.3347   1.3357   1.3361   1.3362   1.3385   1.3412
     1.3420   1.3435   1.3480   1.3570   1.3577   1.3584   1.3637   1.3723
     1.3736   1.3740   1.3751   1.3759   1.3832   1.3863   1.3898   1.3992
     1.4074   1.4116   1.4163   1.4169   1.4205   1.4252   1.4271   1.4409
     1.4455   1.4508   1.4534   1.4549   1.4630   1.4684   1.4756   1.4777
     1.4823   1.4871   1.4878   1.4898   1.4970   1.4972   1.4977   1.4986
     1.5003   1.5015   1.5030   1.5129   1.5140   1.5151   1.5287   1.5288
     1.5300   1.5309   1.5336   1.5367   1.5445   1.5468   1.5594   1.5724
     1.5803   1.5845   1.6180   1.6198   1.6260   1.6295   1.6384   1.6433
     1.6446   1.6471   1.6557   1.6704   1.6791   1.6917   1.6972   1.6983
     1.6987   1.7069   1.7072   1.7087   1.7234   1.9592   2.0196   2.1587
     2.1739   2.2030   2.2322   2.2557   2.2700   2.2720   2.2721   2.2779
     2.2859   2.2922   2.2989   2.4163   2.4619   2.4813   2.5187   2.5397
     2.5410   2.5437   2.5501   2.5929   2.7583   2.7879   2.7937   2.8126
     2.9266   3.0600   3.2617   3.5039   3.5927   3.6007   3.8647   3.8856
     3.9093   3.9181   3.9250   3.9292   3.9693   4.0154   4.0338   4.0654
     4.0719   4.0728   4.0791   4.0810   4.0886   4.0927   4.2353   4.3207
     4.3325   4.3366   4.3698   4.4923   4.6205   4.8081   4.8352   4.9471
     5.3605   5.3962   5.4639   5.5171   5.5322   5.7310   5.7876   5.8003
     5.8155   5.9657   5.9990   6.0867   6.3572   6.4328   6.4523   6.4760
     6.4808   6.5427   6.5580   6.5780   6.6004   6.6192   6.7238   6.7614
     6.8063   6.8353   6.8451   6.8668   7.0298   7.0733   7.1087   7.1188
     7.1482   7.1651   7.1932   7.4117   7.4252   7.4999   7.6199   7.6556
     7.7453   7.7738   7.7758   7.7783   7.8080   7.9167   8.0625   8.1929
     8.2608   8.2868   8.3064   8.3908   8.3967   8.4035   8.4152   8.4186
     8.4408   8.4914   8.4971   8.5606   8.6079   8.6266   8.7300   8.7395
     8.7468   8.7623   8.8093   8.8191   8.9031   8.9054   8.9171   8.9203
     8.9881   9.0811   9.1397   9.1510   9.1883   9.1944   9.1978   9.1993
     9.2246   9.3029   9.3772   9.4034   9.4156   9.5654   9.5953   9.6160
     9.6242   9.6452   9.6482   9.7877   9.8955  10.0332  10.0680  10.0971

          k = 0.0000-0.2165 0.0000 (256176 PWs)   bands (ev):

   -16.9655 -16.2366 -15.7955 -15.5576 -14.9489 -14.5105 -14.2828 -14.2761
   -14.1522 -14.1420 -13.7578 -13.6826 -13.6199 -13.6106 -12.4834 -12.3602
   -12.3141 -12.2066 -12.0802 -11.9889 -10.5699 -10.4598 -10.4506 -10.3147
    -9.3858  -9.2399  -9.2180  -9.0591  -8.9053  -8.8717  -8.2999  -8.2125
    -8.1686  -8.0713  -7.3151  -7.2020  -7.0087  -6.8471  -6.8364  -6.8257
    -6.7828  -6.7405  -6.1696  -6.0617  -5.8233  -5.8218  -5.6336  -5.3871
    -5.2524  -5.1045  -5.0534  -4.9634  -4.8488  -4.7824  -4.7708  -4.6873
    -4.6421  -4.5265  -4.4826  -4.4127  -4.1839  -4.1040  -3.7844  -3.6986
    -3.6447  -3.5504  -3.3602  -3.3004  -3.2409  -3.2404  -3.2204  -3.2166
    -3.1666  -3.0889  -3.0060  -2.9988  -2.9758  -2.9665  -2.9375  -2.9069
    -2.8169  -2.8060  -2.7830  -2.7565  -2.7122  -2.6806  -2.6281  -2.5562
    -2.5401  -2.5166  -2.5143  -2.5126  -2.5108  -2.4971  -2.4515  -2.4030
    -2.2884  -2.2526  -2.2085  -2.1986  -2.1757  -2.1691  -2.1088  -2.0947
    -2.0841  -2.0809  -2.0688  -2.0083  -1.9216  -1.9214  -1.9010  -1.8961
    -1.8949  -1.8671  -1.7978  -1.7938  -1.7639  -1.7339  -1.7034  -1.7009
    -1.6863  -1.6843  -1.6759  -1.6758  -1.6605  -1.6539  -1.6009  -1.5841
    -1.5835  -1.5766  -1.5362  -1.5151  -1.4334  -1.4074  -1.4039  -1.3964
    -1.3958  -1.3287  -1.3191  -1.3069  -1.3057  -1.2595  -1.2531  -1.2495
    -1.2395  -1.2162  -1.2129  -1.2114  -1.2097  -1.2064  -1.2040  -1.1942
    -1.1720  -1.1691  -1.1630  -1.1578  -1.1561  -1.1526  -1.1441  -1.1092
    -1.0965  -1.0830  -1.0698  -1.0692  -1.0243  -1.0234  -0.9862  -0.9858
    -0.9830  -0.9821  -0.9794  -0.9472  -0.9422  -0.9230  -0.9219  -0.9179
    -0.9158  -0.9132  -0.9125  -0.9056  -0.8649  -0.8614  -0.8549  -0.8545
    -0.8469  -0.8454  -0.8380  -0.8301  -0.8296  -0.8242  -0.7681  -0.7650
    -0.7617  -0.7553  -0.7530  -0.7461  -0.7425  -0.7340  -0.7318  -0.7206
    -0.7132  -0.7065  -0.6908  -0.6892  -0.6844  -0.6789  -0.5951  -0.5948
    -0.5842  -0.5838  -0.5683  -0.5681  -0.5463  -0.5427  -0.5402  -0.5399
    -0.5363  -0.5362  -0.5146  -0.5107  -0.4936  -0.4794  -0.4790  -0.4767
    -0.4759  -0.4738  -0.4730  -0.4711  -0.4697  -0.4547  -0.4409  -0.4393
    -0.4218  -0.4196  -0.4195  -0.4025  -0.3851  -0.3843  -0.3821  -0.3804
    -0.3760  -0.3741  -0.3653  -0.3642  -0.3560  -0.3333  -0.2993  -0.2992
    -0.2863  -0.2860  -0.2635  -0.2600  -0.2419  -0.2398  -0.2364  -0.2340
    -0.2319  -0.2305  -0.2242  -0.2205  -0.2092  -0.2069  -0.2029  -0.2001
    -0.1984  -0.1902  -0.1872  -0.1846  -0.1801  -0.1799  -0.1794  -0.1779
    -0.1731  -0.1678  -0.1489  -0.1432  -0.1431  -0.1393  -0.1391  -0.1114
    -0.0786  -0.0779  -0.0763  -0.0746  -0.0705  -0.0673  -0.0646  -0.0634
    -0.0625  -0.0541  -0.0404  -0.0322  -0.0317  -0.0255  -0.0243  -0.0192
    -0.0158  -0.0146  -0.0121  -0.0113  -0.0090  -0.0072   0.0101   0.0442
     0.0450   0.0466   0.0483   0.0488   0.0661   0.0688   0.0704   0.0714
     0.0764   0.0815   0.0900   0.0909   0.0942   0.0993   0.1008   0.1184
     0.1236   0.1256   0.1392   0.1393   0.1405   0.1414   0.1576   0.1605
     0.1747   0.1755   0.1825   0.1858   0.1942   0.1961   0.1985   0.1991
     0.2375   0.2388   0.2403   0.2522   0.2534   0.2577   0.2652   0.2664
     0.2674   0.2900   0.2925   0.3251   0.3285   0.3311   0.3338   0.3550
     0.3753   0.3776   0.4017   0.4437   0.4441   0.4509   0.4551   0.4635
     0.4715   0.4739   0.4754   0.4758   0.4934   0.5062   0.5079   0.5134
     0.5144   0.5157   0.5192   0.5197   0.5225   0.5264   0.5335   0.5381
     0.5413   0.5418   0.5434   0.5458   0.5496   0.5564   0.5644   0.5776
     0.5804   0.5896   0.5898   0.5917   0.5923   0.5996   0.5997   0.6103
     0.6186   0.6200   0.6214   0.6218   0.6222   0.6232   0.6247   0.6282
     0.6394   0.6412   0.6416   0.6450   0.6485   0.6526   0.6551   0.6580
     0.6602   0.6736   0.6913   0.7087   0.7098   0.7203   0.7205   0.7286
     0.7300   0.7315   0.7325   0.7340   0.7369   0.7407   0.7445   0.7458
     0.7458   0.7477   0.7563   0.7836   0.7872   0.7891   0.7895   0.7945
     0.8054   0.8060   0.8065   0.8080   0.8144   0.8247   0.8277   0.8373
     0.8383   0.8422   0.8455   0.8471   0.8543   0.8978   0.8982   0.9450
     0.9497   0.9529   0.9533   0.9570   0.9574   0.9625   0.9677   0.9720
     0.9739   0.9781   0.9791   0.9800   0.9841   0.9873   0.9892   0.9935
     0.9989   1.0032   1.0043   1.0060   1.0071   1.0110   1.0202   1.0212
     1.0288   1.0299   1.0303   1.0306   1.0338   1.0344   1.0359   1.0405
     1.0512   1.0529   1.0536   1.0537   1.0572   1.0575   1.0619   1.0740
     1.0753   1.0789   1.0868   1.0896   1.0915   1.0933   1.0966   1.1014
     1.1018   1.1025   1.1027   1.1037   1.1076   1.1390   1.1528   1.1618
     1.1906   1.1918   1.1939   1.2022   1.2057   1.2115   1.2129   1.2159
     1.2311   1.2338   1.2355   1.2435   1.2497   1.2512   1.2533   1.2551
     1.2579   1.2602   1.2633   1.2637   1.2644   1.2650   1.2661   1.2677
     1.2701   1.2731   1.2746   1.2805   1.2880   1.2932   1.2961   1.2968
     1.2997   1.3034   1.3046   1.3256   1.3313   1.3321   1.3349   1.3385
     1.3393   1.3407   1.3430   1.3541   1.3614   1.3625   1.3638   1.3741
     1.3750   1.3752   1.3766   1.3781   1.3817   1.3920   1.3938   1.3960
     1.3971   1.4118   1.4130   1.4136   1.4182   1.4351   1.4373   1.4421
     1.4423   1.4441   1.4443   1.4543   1.4566   1.4594   1.4599   1.4739
     1.4749   1.4873   1.4891   1.4897   1.4903   1.5076   1.5088   1.5093
     1.5119   1.5139   1.5143   1.5155   1.5160   1.5369   1.5410   1.5437
     1.5513   1.5523   1.5563   1.5662   1.5751   1.5814   1.5820   1.5831
     1.5858   1.5877   1.5987   1.6003   1.6101   1.6255   1.6463   1.6532
     1.6541   1.6672   1.7544   1.7612   1.7754   1.7873   1.7932   1.7940
     1.8138   1.8354   1.8510   1.8534   1.8545   1.8663   1.8766   1.8791
     1.8813   1.9110   1.9152   1.9184   2.0193   2.1655   2.4629   2.4788
     2.4902   2.4909   2.5404   2.5634   2.5659   2.6248   2.6322   2.6369
     2.6410   2.6480   2.6747   2.7723   2.7752   2.8312   2.8330   2.8469
     2.8502   2.9870   2.9879   3.2204   3.2332   3.2334   3.2439   3.3559
     3.4940   3.5264   3.7362   3.7482   3.8081   4.0096   4.1455   4.1594
     4.1734   4.1907   4.3788   4.3940   4.4030   4.4062   4.4786   4.5693
     4.5725   4.7545   4.7826   4.8448   4.8464   4.9399   5.1275   5.1676
     5.1721   5.3306   5.4038   5.4232   5.4264   5.4291   5.4846   5.4886
     5.6590   5.7323   5.7560   5.8266   6.3899   6.4120   6.4770   6.5086
     6.5239   6.5310   6.5451   6.6057   6.6316   6.7134   6.7346   6.7563
     6.8842   6.9114   7.0882   7.1045   7.1076   7.1282   7.1371   7.1586
     7.1718   7.1905   7.2087   7.2127   7.3427   7.3968   7.4244   7.4314
     7.4910   7.5812   7.6039   7.6453   7.7270   7.8218   8.0080   8.2058
     8.2084   8.2758   8.3711   8.4127   8.4224   8.4367   8.4577   8.4840
     8.4883   8.5143   8.5306   8.5393   8.6402   8.7643   8.7754   8.7787
     8.7931   8.8176   8.8306   8.8475   8.9758   9.0083   9.0573   9.0853
     9.1797   9.1947   9.2115   9.2430   9.2870   9.2905   9.4254   9.4353
     9.4549   9.4577   9.4675   9.4703   9.5321   9.5468   9.5631   9.5835
     9.6563   9.7276   9.7425   9.8000   9.8320   9.8525   9.8554   9.9543

          k = 0.2500 0.0000 0.0000 (256240 PWs)   bands (ev):

   -16.9011 -16.0572 -15.8738 -15.5403 -15.0675 -14.9040 -14.8470 -14.8112
   -14.0151 -13.8587 -13.6126 -13.1645 -13.0737 -13.0194 -12.9610 -12.2490
   -12.1531 -12.0788 -11.9813 -11.1485 -11.0416 -10.7305 -10.6090 -10.3027
   -10.0957  -9.8193  -9.7995  -9.3920  -9.1744  -9.0915  -8.6326  -7.9163
    -7.7203  -7.6066  -7.5044  -7.4468  -7.3545  -6.9563  -6.8340  -6.2930
    -6.1556  -6.0321  -5.9162  -5.7999  -5.7757  -5.5688  -5.2905  -5.2447
    -5.2350  -5.1258  -4.8479  -4.7965  -4.6549  -4.5541  -4.4226  -4.4037
    -4.3740  -4.3512  -4.2883  -4.2169  -4.0699  -3.9856  -3.9514  -3.9383
    -3.9149  -3.7965  -3.7781  -3.7651  -3.6494  -3.5507  -3.5314  -3.5195
    -3.4780  -3.4404  -3.3855  -3.3345  -3.3016  -3.2182  -3.1740  -3.1529
    -3.0828  -2.9720  -2.9317  -2.8854  -2.7890  -2.7346  -2.7335  -2.7161
    -2.5876  -2.5615  -2.5523  -2.4801  -2.4112  -2.3335  -2.3074  -2.2694
    -2.2400  -2.1545  -2.0348  -2.0338  -2.0170  -2.0166  -1.9893  -1.9563
    -1.9316  -1.8793  -1.8364  -1.8258  -1.7704  -1.7650  -1.7372  -1.7364
    -1.7291  -1.7284  -1.7106  -1.7082  -1.6807  -1.6686  -1.6559  -1.6422
    -1.6302  -1.5894  -1.5851  -1.5573  -1.5395  -1.5247  -1.5190  -1.5159
    -1.5137  -1.5135  -1.5092  -1.4634  -1.4548  -1.4391  -1.4370  -1.4274
    -1.4252  -1.3935  -1.3079  -1.2807  -1.2676  -1.2486  -1.2427  -1.2125
    -1.2048  -1.1826  -1.1803  -1.1781  -1.1731  -1.1631  -1.1479  -1.1440
    -1.1301  -1.1209  -1.1172  -1.1159  -1.1109  -1.0980  -1.0830  -1.0719
    -1.0695  -1.0654  -1.0579  -1.0489  -1.0467  -1.0445  -1.0294  -1.0112
    -1.0003  -0.9907  -0.9864  -0.9835  -0.9671  -0.9639  -0.9522  -0.9488
    -0.9466  -0.9427  -0.9375  -0.9300  -0.9251  -0.9182  -0.9172  -0.9153
    -0.9134  -0.9114  -0.9102  -0.9021  -0.8984  -0.8841  -0.8811  -0.8777
    -0.8409  -0.8377  -0.8366  -0.8311  -0.7905  -0.7869  -0.7512  -0.7510
    -0.7350  -0.7300  -0.7247  -0.7075  -0.7064  -0.6961  -0.6912  -0.6896
    -0.6842  -0.6814  -0.6778  -0.6689  -0.6581  -0.5483  -0.5420  -0.5389
    -0.5369  -0.5125  -0.5048  -0.5038  -0.4972  -0.4878  -0.4858  -0.4854
    -0.4844  -0.4711  -0.4638  -0.4633  -0.4623  -0.4578  -0.4426  -0.4229
    -0.4223  -0.4210  -0.4183  -0.4168  -0.3987  -0.3965  -0.3962  -0.3937
    -0.3720  -0.3360  -0.3355  -0.3349  -0.3321  -0.3282  -0.3235  -0.3164
    -0.3088  -0.2932  -0.2925  -0.2877  -0.2751  -0.2702  -0.2686  -0.2662
    -0.2587  -0.2313  -0.2307  -0.2275  -0.2255  -0.2181  -0.2168  -0.2142
    -0.2064  -0.1950  -0.1909  -0.1846  -0.1754  -0.1671  -0.1614  -0.1385
    -0.1351  -0.1339  -0.1326  -0.1292  -0.1193  -0.1177  -0.1158  -0.1141
    -0.1048  -0.0890  -0.0885  -0.0849  -0.0761  -0.0724  -0.0497  -0.0486
    -0.0470  -0.0426  -0.0061  -0.0017   0.0021   0.0047   0.0063   0.0214
     0.0270   0.0422   0.0426   0.0446   0.0507   0.0538   0.0564   0.0619
     0.0656   0.0670   0.0713   0.0730   0.0750   0.0766   0.0779   0.0952
     0.0971   0.0976   0.1019   0.1050   0.1090   0.1216   0.1228   0.1369
     0.1435   0.1553   0.1752   0.1776   0.1797   0.1804   0.1829   0.1857
     0.1943   0.2029   0.2039   0.2050   0.2069   0.2081   0.2222   0.2436
     0.2458   0.3057   0.3138   0.3157   0.3167   0.3207   0.3320   0.3339
     0.3355   0.3366   0.3403   0.3435   0.3491   0.3511   0.3529   0.3544
     0.3584   0.3628   0.3703   0.3713   0.3724   0.3800   0.3836   0.3887
     0.3938   0.3959   0.3994   0.4032   0.4137   0.4186   0.4324   0.4350
     0.4553   0.4668   0.4692   0.4846   0.4861   0.5023   0.5051   0.5067
     0.5084   0.5112   0.5260   0.5307   0.5385   0.5417   0.5464   0.5493
     0.5504   0.5541   0.5569   0.5593   0.5618   0.5771   0.5807   0.5890
     0.5959   0.6028   0.6070   0.6088   0.6109   0.6137   0.6154   0.6195
     0.6285   0.6400   0.6421   0.6445   0.6463   0.6551   0.6585   0.6617
     0.6626   0.6686   0.6730   0.6743   0.6803   0.6840   0.6886   0.7004
     0.7039   0.7201   0.7224   0.7259   0.7301   0.7329   0.7346   0.7398
     0.7503   0.7670   0.7689   0.7864   0.7911   0.8037   0.8044   0.8067
     0.8105   0.8120   0.8181   0.8288   0.8338   0.8386   0.8412   0.8430
     0.8505   0.8557   0.8614   0.8668   0.8772   0.8830   0.8873   0.8878
     0.8977   0.9110   0.9181   0.9203   0.9214   0.9242   0.9425   0.9446
     0.9521   0.9561   0.9575   0.9581   0.9598   0.9639   0.9657   0.9698
     0.9729   0.9802   1.0032   1.0110   1.0139   1.0186   1.0190   1.0321
     1.0334   1.0459   1.0524   1.0537   1.0554   1.0565   1.0619   1.0644
     1.0665   1.0777   1.0809   1.0819   1.0823   1.0828   1.0845   1.0859
     1.0870   1.0899   1.0939   1.0950   1.0967   1.1034   1.1054   1.1138
     1.1180   1.1248   1.1271   1.1321   1.1329   1.1383   1.1398   1.1470
     1.1537   1.1553   1.1634   1.1682   1.1700   1.1728   1.1748   1.1805
     1.1860   1.1941   1.1988   1.2017   1.2060   1.2106   1.2169   1.2175
     1.2233   1.2260   1.2359   1.2471   1.2523   1.2547   1.2567   1.2687
     1.2903   1.2985   1.2999   1.3054   1.3079   1.3116   1.3144   1.3156
     1.3181   1.3184   1.3245   1.3259   1.3314   1.3398   1.3422   1.3433
     1.3511   1.3603   1.3625   1.3633   1.3642   1.3680   1.3727   1.3745
     1.3771   1.3793   1.3813   1.3830   1.3844   1.3869   1.3940   1.3970
     1.4053   1.4109   1.4145   1.4156   1.4211   1.4215   1.4222   1.4239
     1.4311   1.4428   1.4439   1.4443   1.4626   1.4639   1.4665   1.4728
     1.4788   1.4841   1.4849   1.4861   1.4883   1.4900   1.4913   1.4957
     1.4971   1.4990   1.5035   1.5057   1.5119   1.5258   1.5267   1.5296
     1.5298   1.5317   1.5327   1.5353   1.5461   1.5464   1.5531   1.5579
     1.5630   1.5703   1.5712   1.5733   1.5784   1.5818   1.5932   1.6089
     1.6166   1.6244   1.6442   1.6663   1.6860   1.6880   1.6905   1.7085
     1.7326   1.7749   1.8026   1.8239   1.8269   1.8303   1.8418   1.8614
     1.8815   1.9003   2.0869   2.0945   2.1264   2.1396   2.1539   2.1555
     2.2076   2.2768   2.3328   2.3426   2.6193   2.6275   2.6315   2.6386
     3.0388   3.0395   3.0764   3.2518   3.2559   3.2805   3.2819   3.2945
     3.3539   3.4019   3.5279   3.5660   3.6418   3.6709   3.6952   3.7091
     3.7535   3.7733   3.7836   3.7914   3.8226   3.9296   3.9466   3.9866
     4.0477   4.0851   4.2337   4.2810   4.2998   4.3407   4.4285   4.5208
     4.6730   4.8436   4.8771   4.9100   5.1174   5.2394   5.2838   5.2892
     5.2985   5.3309   5.4442   5.5338   5.5439   5.5629   5.6014   5.6468
     5.6799   5.6924   5.7601   5.7896   5.8066   5.8188   5.9009   5.9091
     6.0230   6.0720   6.0790   6.0953   6.1447   6.3991   6.6298   6.7407
     6.7635   6.7762   6.8124   6.8286   6.9191   6.9647   7.0293   7.0841
     7.1054   7.1167   7.1221   7.1378   7.2801   7.3272   7.3564   7.3843
     7.4271   7.5615   7.6052   7.6233   7.6306   7.7291   7.8365   7.8596
     7.8993   7.9994   8.0513   8.0612   8.0797   8.0857   8.1384   8.1573
     8.3285   8.3495   8.3784   8.3799   8.4347   8.4760   8.4854   8.4981
     8.5389   8.7032   8.7128   8.9077   8.9821   9.0004   9.0114   9.0261
     9.1705   9.2019   9.2346   9.2506   9.2602   9.2749   9.2893   9.3187
     9.3345   9.3462   9.3600   9.4136   9.4610   9.4810   9.4980   9.5439
     9.5860   9.6810   9.7547   9.7757   9.7862   9.7881   9.8501   9.8863

          k = 0.2500-0.2165 0.0000 (256316 PWs)   bands (ev):

   -16.9002 -16.1127 -15.7621 -15.4367 -15.3535 -15.1269 -14.6239 -14.4645
   -14.1386 -14.0213 -13.5833 -13.2069 -13.1436 -13.0703 -12.6857 -12.5747
   -12.0890 -11.9106 -11.4095 -11.3636 -11.2159 -11.0158 -10.8610 -10.5676
    -9.7649  -9.7023  -9.3322  -9.1667  -9.0383  -8.9718  -8.6020  -8.5545
    -8.3807  -8.3406  -7.1601  -6.9306  -6.7432  -6.5963  -6.5458  -6.4141
    -6.3794  -6.2272  -6.0608  -5.9846  -5.6537  -5.6439  -5.5140  -5.3057
    -5.1709  -4.9596  -4.7931  -4.7561  -4.6361  -4.6129  -4.5894  -4.4436
    -4.3770  -4.3163  -4.2857  -4.2748  -4.2092  -4.1192  -4.0807  -3.9879
    -3.9437  -3.7870  -3.7118  -3.6544  -3.5702  -3.5107  -3.4870  -3.4418
    -3.3966  -3.3939  -3.3083  -3.2585  -3.1966  -3.1300  -3.0863  -3.0269
    -2.9890  -2.9403  -2.8876  -2.8540  -2.8456  -2.8427  -2.8090  -2.7687
    -2.6514  -2.6271  -2.5916  -2.5202  -2.3813  -2.2690  -2.2522  -2.2427
    -2.1567  -2.1171  -2.1034  -2.1033  -2.0973  -2.0652  -2.0210  -1.9461
    -1.9450  -1.9263  -1.9014  -1.8928  -1.8479  -1.7880  -1.7634  -1.7484
    -1.7471  -1.7141  -1.6938  -1.6865  -1.6798  -1.6593  -1.6537  -1.6475
    -1.6420  -1.6337  -1.6171  -1.6134  -1.6125  -1.6113  -1.6045  -1.6021
    -1.6003  -1.5209  -1.5128  -1.4804  -1.4053  -1.4044  -1.3247  -1.3055
    -1.2984  -1.2664  -1.2657  -1.2621  -1.2169  -1.2135  -1.2117  -1.1983
    -1.1979  -1.1862  -1.1849  -1.1797  -1.1739  -1.1635  -1.1602  -1.1526
    -1.1521  -1.1455  -1.1413  -1.1368  -1.1287  -1.1272  -1.1179  -1.1160
    -1.0810  -1.0693  -1.0678  -1.0620  -1.0565  -1.0516  -1.0489  -1.0473
    -1.0222  -1.0150  -1.0082  -0.9770  -0.9755  -0.9741  -0.9666  -0.9592
    -0.9532  -0.9405  -0.9314  -0.9310  -0.9148  -0.9073  -0.8976  -0.8960
    -0.8924  -0.8914  -0.8865  -0.8844  -0.8624  -0.8589  -0.8551  -0.8367
    -0.8344  -0.8181  -0.8084  -0.7982  -0.7972  -0.7970  -0.7244  -0.7182
    -0.7143  -0.7132  -0.7074  -0.7051  -0.7029  -0.6620  -0.6574  -0.6494
    -0.6486  -0.6422  -0.6408  -0.6370  -0.6318  -0.6282  -0.5923  -0.5893
    -0.5610  -0.5506  -0.5458  -0.5176  -0.5052  -0.5016  -0.5000  -0.4986
    -0.4923  -0.4714  -0.4694  -0.4621  -0.4514  -0.4407  -0.4378  -0.4369
    -0.4249  -0.4197  -0.4116  -0.3950  -0.3933  -0.3839  -0.3750  -0.3733
    -0.3632  -0.3479  -0.3447  -0.3431  -0.3308  -0.3299  -0.3214  -0.3165
    -0.3045  -0.3040  -0.2994  -0.2989  -0.2945  -0.2935  -0.2892  -0.2868
    -0.2734  -0.2670  -0.2587  -0.2537  -0.2526  -0.2345  -0.2281  -0.2131
    -0.2053  -0.2018  -0.1931  -0.1808  -0.1761  -0.1757  -0.1648  -0.1557
    -0.1539  -0.1525  -0.1456  -0.1395  -0.1179  -0.0946  -0.0911  -0.0889
    -0.0540  -0.0530  -0.0450  -0.0446  -0.0413  -0.0410  -0.0248  -0.0244
    -0.0210  -0.0057  -0.0047   0.0021   0.0088   0.0117   0.0139   0.0202
     0.0223   0.0249   0.0258   0.0339   0.0467   0.0523   0.0567   0.0588
     0.0606   0.0624   0.0644   0.0661   0.0668   0.0705   0.0736   0.0816
     0.0935   0.0940   0.0951   0.0956   0.1271   0.1292   0.1351   0.1379
     0.1400   0.1456   0.1613   0.1629   0.1724   0.1825   0.1936   0.1950
     0.2014   0.2081   0.2134   0.2147   0.2162   0.2225   0.2239   0.2302
     0.2360   0.2416   0.2481   0.2659   0.2716   0.3248   0.3301   0.3392
     0.3404   0.3420   0.3446   0.3474   0.3490   0.3509   0.3566   0.3591
     0.3616   0.3721   0.3738   0.3803   0.3820   0.3851   0.3905   0.3941
     0.3966   0.4021   0.4077   0.4223   0.4301   0.4345   0.4425   0.4452
     0.4536   0.4590   0.4667   0.4704   0.4995   0.5070   0.5116   0.5155
     0.5199   0.5211   0.5237   0.5307   0.5337   0.5361   0.5395   0.5421
     0.5434   0.5488   0.5506   0.5590   0.5735   0.5753   0.5824   0.5849
     0.5958   0.5996   0.6206   0.6296   0.6310   0.6318   0.6345   0.6614
     0.6659   0.6678   0.6682   0.6720   0.6734   0.6761   0.6802   0.6863
     0.6887   0.6923   0.6965   0.6995   0.7072   0.7141   0.7158   0.7179
     0.7251   0.7308   0.7328   0.7341   0.7350   0.7425   0.7463   0.7471
     0.7511   0.7527   0.7588   0.7655   0.7721   0.7736   0.7746   0.7792
     0.7799   0.7813   0.7829   0.7847   0.7895   0.8153   0.8203   0.8292
     0.8314   0.8420   0.8460   0.8630   0.8706   0.8847   0.8863   0.8873
     0.8888   0.8893   0.8930   0.8937   0.9150   0.9164   0.9171   0.9177
     0.9186   0.9195   0.9262   0.9321   0.9426   0.9458   0.9473   0.9571
     0.9587   0.9645   0.9688   0.9809   0.9910   0.9918   0.9951   1.0180
     1.0191   1.0243   1.0262   1.0271   1.0290   1.0307   1.0372   1.0410
     1.0521   1.0632   1.0655   1.0691   1.0806   1.0818   1.0898   1.0992
     1.1034   1.1137   1.1211   1.1252   1.1424   1.1432   1.1476   1.1500
     1.1522   1.1531   1.1545   1.1554   1.1560   1.1583   1.1603   1.1678
     1.1684   1.1729   1.1786   1.1822   1.1864   1.1981   1.2018   1.2174
     1.2248   1.2278   1.2291   1.2349   1.2385   1.2389   1.2413   1.2423
     1.2496   1.2512   1.2529   1.2550   1.2569   1.2624   1.2647   1.2663
     1.2687   1.2715   1.2809   1.2844   1.2863   1.2870   1.2879   1.2894
     1.2918   1.3026   1.3040   1.3076   1.3087   1.3313   1.3321   1.3400
     1.3411   1.3493   1.3545   1.3577   1.3606   1.3646   1.3722   1.3733
     1.3806   1.3857   1.3887   1.3928   1.3943   1.3962   1.3979   1.4048
     1.4087   1.4107   1.4111   1.4199   1.4225   1.4264   1.4356   1.4422
     1.4438   1.4451   1.4463   1.4473   1.4481   1.4546   1.4556   1.4596
     1.4654   1.4663   1.4712   1.4755   1.4808   1.4847   1.4873   1.4955
     1.4988   1.5001   1.5010   1.5050   1.5060   1.5062   1.5081   1.5120
     1.5162   1.5166   1.5300   1.5409   1.5411   1.5468   1.5533   1.5586
     1.5645   1.5700   1.5838   1.5869   1.5908   1.5963   1.6115   1.6133
     1.6194   1.6211   1.6408   1.6473   1.6682   1.7023   1.7306   1.7319
     1.7488   1.8015   1.8180   1.8246   1.8414   1.8441   1.8532   1.8544
     1.8583   1.8665   1.9132   1.9188   2.1167   2.1878   2.1966   2.2201
     2.2333   2.3534   2.3585   2.6427   2.6473   2.8104   2.8467   2.8525
     2.8557   2.8659   2.8691   2.9049   2.9072   3.0393   3.0467   3.1291
     3.1559   3.3744   3.5932   3.6095   3.6752   3.6967   3.7523   3.7747
     3.9010   3.9060   3.9119   3.9223   4.0510   4.0656   4.1140   4.1338
     4.2212   4.2266   4.3502   4.4262   4.4386   4.4763   4.6097   4.6230
     4.6507   4.7288   4.7430   4.7620   4.9148   5.0095   5.0136   5.0834
     5.1166   5.1407   5.2928   5.3629   5.3732   5.4706   5.4917   5.5142
     5.5216   5.5259   5.5625   5.8020   5.8275   5.8744   5.9559   5.9841
     5.9983   6.0378   6.2516   6.5287   6.6342   6.6708   6.7009   6.7500
     6.8179   6.8264   6.9300   6.9435   7.0274   7.1221   7.1373   7.1572
     7.1632   7.1848   7.1949   7.2648   7.2812   7.2973   7.3762   7.3965
     7.4096   7.4158   7.4536   7.5044   7.5074   7.6858   7.7260   7.7521
     7.8226   7.8623   7.9143   8.0435   8.0723   8.1902   8.2596   8.2735
     8.3075   8.3346   8.4337   8.5425   8.6039   8.6131   8.6405   8.6607
     8.6647   8.7078   8.7109   8.7480   8.7743   8.7934   8.9680   8.9910
     9.0135   9.0406   9.1304   9.1437   9.2014   9.2239   9.2515   9.2598
     9.2834   9.2933   9.3086   9.3322   9.3418   9.4030   9.4316   9.4521
     9.4847   9.4936   9.6195   9.6305   9.6936   9.8208   9.9317   9.9878

          k =-0.5000 0.0000 0.0000 (256496 PWs)   bands (ev):

   -16.8166 -15.9146 -15.6783 -15.5370 -15.5120 -15.4940 -14.6965 -14.4944
   -14.4344 -14.4118 -13.0759 -12.7959 -12.6806 -12.6272 -12.3058 -12.2928
   -11.8501 -11.8306 -11.7343 -11.7232 -11.1728 -11.1520 -10.9405 -10.6818
   -10.2367 -10.1924  -9.8453  -9.6853  -9.1027  -9.0791  -8.8880  -8.8421
    -7.6986  -7.6432  -7.4952  -7.3210  -7.3078  -7.2494  -6.0868  -6.0053
    -5.7973  -5.6275  -5.2674  -5.2407  -5.2191  -5.1319  -4.9058  -4.8654
    -4.7827  -4.7422  -4.7401  -4.7353  -4.7286  -4.6497  -4.6355  -4.6063
    -4.5719  -4.4973  -4.4396  -4.3694  -4.3503  -4.2816  -4.2322  -4.0616
    -3.9872  -3.9582  -3.9094  -3.9030  -3.7203  -3.6173  -3.5892  -3.5490
    -3.5119  -3.4569  -3.3590  -3.3570  -3.3555  -3.3542  -3.3126  -3.2954
    -3.2783  -3.2433  -3.1215  -3.1017  -2.8588  -2.8243  -2.7895  -2.7285
    -2.6918  -2.6746  -2.5787  -2.5464  -2.5299  -2.5052  -2.3922  -2.3722
    -2.2486  -2.2372  -2.2348  -2.2299  -1.9601  -1.8834  -1.8195  -1.8146
    -1.8132  -1.8131  -1.8126  -1.8091  -1.8048  -1.7094  -1.7015  -1.6826
    -1.6722  -1.5881  -1.5866  -1.5861  -1.5853  -1.5393  -1.5389  -1.5352
    -1.5334  -1.5051  -1.4740  -1.4333  -1.4260  -1.4236  -1.4223  -1.4081
    -1.3923  -1.3648  -1.3624  -1.3596  -1.3551  -1.3436  -1.3404  -1.3300
    -1.2954  -1.2929  -1.2886  -1.2858  -1.2793  -1.2772  -1.2742  -1.2706
    -1.2632  -1.2412  -1.2284  -1.2264  -1.2247  -1.2130  -1.2043  -1.2040
    -1.2025  -1.2004  -1.1406  -1.1395  -1.1217  -1.1195  -1.1172  -1.1152
    -1.1003  -1.0927  -1.0916  -1.0883  -1.0842  -1.0816  -1.0738  -1.0471
    -1.0443  -1.0430  -1.0420  -1.0408  -1.0224  -1.0190  -1.0047  -0.9921
    -0.9906  -0.9469  -0.9443  -0.9381  -0.9180  -0.9172  -0.9142  -0.9130
    -0.8920  -0.8884  -0.8875  -0.8845  -0.8826  -0.8809  -0.8698  -0.8687
    -0.8655  -0.8645  -0.8618  -0.8453  -0.8416  -0.8362  -0.7787  -0.7761
    -0.7756  -0.7736  -0.7319  -0.7300  -0.6733  -0.6484  -0.6473  -0.6455
    -0.6447  -0.6289  -0.6124  -0.6107  -0.6091  -0.6075  -0.6054  -0.6002
    -0.5897  -0.5720  -0.5706  -0.5678  -0.5627  -0.5603  -0.5599  -0.5450
    -0.5388  -0.5347  -0.5301  -0.5116  -0.4760  -0.4494  -0.4400  -0.4207
    -0.4156  -0.4028  -0.3937  -0.3928  -0.3874  -0.3695  -0.3591  -0.3479
    -0.3459  -0.3448  -0.3427  -0.3399  -0.3381  -0.3183  -0.3068  -0.3054
    -0.3044  -0.3036  -0.3003  -0.2681  -0.2672  -0.2647  -0.2644  -0.2542
    -0.2325  -0.2320  -0.2315  -0.2302  -0.2207  -0.2193  -0.1989  -0.1874
    -0.1869  -0.1853  -0.1839  -0.1736  -0.1721  -0.1559  -0.1435  -0.1408
    -0.1353  -0.0758  -0.0745  -0.0725  -0.0713  -0.0680  -0.0666  -0.0643
    -0.0629  -0.0479  -0.0284  -0.0263  -0.0219  -0.0188   0.0092   0.0121
     0.0332   0.0362   0.0383   0.0386   0.0395   0.0409   0.0412   0.0432
     0.0434   0.0441   0.0447   0.0480   0.0559   0.1025   0.1124   0.1199
     0.1209   0.1266   0.1297   0.1323   0.1339   0.1363   0.1384   0.1407
     0.1422   0.1453   0.1463   0.1487   0.1495   0.1517   0.1554   0.1611
     0.1645   0.1649   0.1794   0.1798   0.1813   0.1813   0.1815   0.1840
     0.1906   0.1909   0.1922   0.1928   0.2033   0.2058   0.2154   0.2165
     0.2172   0.2177   0.2244   0.2360   0.2461   0.2476   0.2579   0.2968
     0.3457   0.3478   0.3491   0.3514   0.3796   0.3813   0.3828   0.3833
     0.3935   0.3944   0.3967   0.3996   0.4035   0.4047   0.4053   0.4083
     0.4110   0.4122   0.4138   0.4152   0.4190   0.4234   0.4248   0.4295
     0.4329   0.4365   0.4380   0.4391   0.4483   0.4507   0.4617   0.4621
     0.4655   0.4674   0.4784   0.4867   0.5051   0.5447   0.5499   0.5559
     0.5569   0.5651   0.5721   0.5807   0.5844   0.5858   0.5881   0.5889
     0.5911   0.5927   0.5952   0.5962   0.5974   0.5997   0.6020   0.6044
     0.6048   0.6074   0.6092   0.6120   0.6166   0.6219   0.6295   0.6421
     0.6473   0.6487   0.6611   0.6653   0.6780   0.6801   0.6831   0.6841
     0.6916   0.6932   0.6952   0.6970   0.6980   0.7011   0.7060   0.7085
     0.7148   0.7158   0.7268   0.7292   0.7298   0.7330   0.7487   0.7620
     0.7673   0.7682   0.7707   0.7748   0.7809   0.7895   0.7905   0.7973
     0.8130   0.8237   0.8256   0.8279   0.8303   0.8307   0.8349   0.8640
     0.8771   0.8948   0.9001   0.9008   0.9034   0.9037   0.9051   0.9074
     0.9110   0.9133   0.9140   0.9156   0.9190   0.9259   0.9288   0.9339
     0.9461   0.9479   0.9508   0.9525   0.9657   0.9677   0.9689   0.9705
     0.9707   0.9715   0.9853   0.9991   1.0097   1.0112   1.0118   1.0172
     1.0721   1.0750   1.0753   1.0782   1.0797   1.0961   1.1077   1.1087
     1.1102   1.1108   1.1245   1.1261   1.1316   1.1382   1.1405   1.1436
     1.1524   1.1548   1.1685   1.1723   1.1740   1.1783   1.1798   1.1814
     1.1834   1.1866   1.1871   1.1883   1.1949   1.1956   1.1979   1.1981
     1.1990   1.1997   1.2001   1.2051   1.2088   1.2297   1.2388   1.2397
     1.2398   1.2433   1.2521   1.2657   1.2711   1.2750   1.2768   1.2778
     1.2807   1.2919   1.2953   1.3023   1.3033   1.3042   1.3047   1.3059
     1.3141   1.3155   1.3161   1.3184   1.3209   1.3270   1.3372   1.3453
     1.3609   1.3626   1.3691   1.3735   1.3769   1.3773   1.3786   1.3793
     1.3797   1.3801   1.3850   1.3884   1.3911   1.3925   1.3930   1.3935
     1.3941   1.3956   1.4000   1.4034   1.4041   1.4044   1.4051   1.4056
     1.4106   1.4118   1.4180   1.4256   1.4286   1.4482   1.4511   1.4520
     1.4531   1.4550   1.4556   1.4567   1.4570   1.4712   1.4746   1.4777
     1.4793   1.4907   1.4920   1.4968   1.4991   1.5104   1.5113   1.5122
     1.5128   1.5236   1.5299   1.5325   1.5354   1.5368   1.5393   1.5402
     1.5410   1.5417   1.5474   1.5553   1.5600   1.5633   1.5702   1.5749
     1.5760   1.5763   1.5774   1.5839   1.5920   1.5931   1.6314   1.6397
     1.6433   1.6671   1.6697   1.6721   1.6752   1.7010   1.9309   2.0927
     2.0948   2.1017   2.1107   2.2947   2.3069   2.3212   2.3311   2.3471
     2.3490   2.3535   2.3570   2.6595   2.6919   2.6946   2.7039   2.8773
     2.8944   2.8954   2.9011   3.2378   3.2456   3.2495   3.2507   3.4115
     3.5256   3.5522   3.7942   3.8312   3.8415   3.8615   3.9856   3.9871
     3.9933   4.0164   4.1026   4.1341   4.1398   4.1441   4.2116   4.2721
     4.3233   4.4598   4.6898   4.7339   4.8193   4.8348   4.8459   4.8703
     4.8899   4.8952   4.9349   4.9488   5.0789   5.0797   5.0926   5.1111
     5.1156   5.1161   5.1244   5.1402   5.1419   5.1631   5.1787   5.1899
     5.4614   5.4882   5.5866   5.5912   5.6559   5.7182   5.7788   5.7859
     5.9131   6.0445   6.0495   6.0715   6.0861   6.1065   6.1173   6.1223
     6.1416   6.2700   6.3422   6.4887   6.5223   6.5289   6.5437   6.5620
     7.1376   7.1521   7.1668   7.1792   7.1956   7.2016   7.3948   7.4760
     7.6405   7.6636   7.6653   7.6682   7.6693   7.6740   7.7075   7.7592
     7.8769   7.8849   7.9300   7.9474   7.9593   7.9640   8.0343   8.0904
     8.1241   8.1414   8.1795   8.1879   8.2218   8.2342   8.2646   8.4551
     8.5180   8.5839   8.6142   8.8772   8.8833   8.8975   8.8986   8.9713
     8.9944   8.9967   9.1008   9.1393   9.1449   9.1759   9.2312   9.3265
     9.3296   9.3879   9.4711   9.4951   9.4986   9.5084   9.5672   9.5896
     9.5955   9.6018   9.6150   9.6196   9.6590   9.7368   9.7749   9.8123

          k =-0.5000-0.2165 0.0000 (256328 PWs)   bands (ev):

   -16.8163 -15.8716 -15.7461 -15.7375 -15.2982 -15.0928 -15.0695 -15.0453
   -13.9277 -13.7285 -13.6320 -13.5998 -12.5097 -12.3094 -11.9397 -11.9353
   -11.8598 -11.6484 -11.6100 -11.5084 -11.4693 -11.4646 -11.3515 -11.3255
    -9.9585  -9.9039  -9.6753  -9.6654  -9.0011  -8.8797  -8.7380  -8.6627
    -8.2371  -8.1660  -7.9314  -7.8867  -6.3671  -6.2345  -6.1436  -5.8534
    -5.7965  -5.5336  -5.5087  -5.3108  -5.2462  -5.1538  -5.1197  -5.1184
    -5.1118  -5.1097  -5.0141  -4.9499  -4.9187  -4.5076  -4.4250  -4.3766
    -4.2930  -4.2429  -4.1596  -4.1490  -4.1366  -4.1345  -4.1210  -4.1013
    -4.0639  -4.0367  -3.9527  -3.8341  -3.8109  -3.7606  -3.7502  -3.6890
    -3.6401  -3.6226  -3.5564  -3.5433  -3.5055  -3.4523  -3.3963  -3.3528
    -3.1714  -3.1056  -3.0062  -2.9987  -2.6580  -2.5698  -2.5268  -2.5152
    -2.5130  -2.5094  -2.5039  -2.4769  -2.4555  -2.4526  -2.4070  -2.2954
    -2.2783  -2.2635  -2.0943  -2.0585  -2.0360  -2.0311  -2.0113  -1.9919
    -1.9814  -1.9573  -1.9458  -1.9331  -1.9193  -1.8600  -1.7422  -1.7392
    -1.7371  -1.7316  -1.7000  -1.6628  -1.5414  -1.5284  -1.4667  -1.4397
    -1.4296  -1.4290  -1.4280  -1.4278  -1.4000  -1.3919  -1.3887  -1.3866
    -1.3706  -1.3690  -1.3681  -1.3677  -1.3235  -1.3224  -1.3216  -1.3207
    -1.3198  -1.3177  -1.3131  -1.3086  -1.2948  -1.2942  -1.2934  -1.2925
    -1.2902  -1.2484  -1.2437  -1.2425  -1.2394  -1.2000  -1.1810  -1.1682
    -1.1639  -1.1495  -1.1276  -1.1266  -1.1256  -1.1250  -1.1135  -1.1096
    -1.1072  -1.1034  -1.0832  -1.0583  -1.0565  -1.0562  -1.0544  -1.0519
    -1.0516  -1.0512  -1.0495  -1.0428  -1.0259  -1.0124  -0.9976  -0.9970
    -0.9920  -0.9891  -0.9848  -0.9801  -0.9795  -0.9751  -0.9733  -0.9721
    -0.9710  -0.9704  -0.9674  -0.9605  -0.8890  -0.8228  -0.8202  -0.8192
    -0.8140  -0.7893  -0.7886  -0.7878  -0.7868  -0.7719  -0.7101  -0.7091
    -0.7070  -0.7062  -0.7027  -0.6994  -0.6985  -0.6977  -0.6965  -0.6941
    -0.6886  -0.6414  -0.6367  -0.6360  -0.6340  -0.6303  -0.6269  -0.6262
    -0.6251  -0.6080  -0.6069  -0.6008  -0.5933  -0.5622  -0.5184  -0.5157
    -0.5113  -0.5105  -0.5079  -0.5053  -0.5008  -0.4719  -0.4370  -0.4355
    -0.4334  -0.4313  -0.3869  -0.3857  -0.3840  -0.3831  -0.3660  -0.3658
    -0.3638  -0.3623  -0.3448  -0.3411  -0.3398  -0.3317  -0.3268  -0.3264
    -0.3241  -0.3236  -0.3009  -0.2897  -0.2872  -0.2662  -0.2130  -0.2122
    -0.2076  -0.2063  -0.1936  -0.1932  -0.1920  -0.1917  -0.1786  -0.1781
    -0.1765  -0.1747  -0.1034  -0.0954  -0.0936  -0.0923  -0.0921  -0.0901
    -0.0893  -0.0879  -0.0867  -0.0858  -0.0840  -0.0821  -0.0499  -0.0493
    -0.0488  -0.0477  -0.0397  -0.0378  -0.0376  -0.0365  -0.0335  -0.0325
    -0.0294  -0.0289  -0.0055   0.0267   0.0360   0.0380   0.0384   0.0426
     0.0601   0.0614   0.0661   0.0707   0.1013   0.1102   0.1159   0.1197
     0.1222   0.1348   0.1374   0.1415   0.1437   0.1444   0.1447   0.1492
     0.1521   0.1535   0.1558   0.1567   0.1579   0.1630   0.1643   0.1647
     0.1661   0.1693   0.1697   0.1711   0.1715   0.1818   0.1858   0.1869
     0.1882   0.1893   0.2138   0.2142   0.2145   0.2147   0.2213   0.2234
     0.2259   0.2283   0.2584   0.2733   0.2746   0.2755   0.2785   0.3056
     0.3060   0.3079   0.3113   0.3174   0.3568   0.3764   0.3817   0.3854
     0.3878   0.3895   0.3910   0.3925   0.4019   0.4055   0.4064   0.4075
     0.4104   0.4182   0.4188   0.4220   0.4256   0.4269   0.4295   0.4310
     0.4337   0.4361   0.4384   0.4392   0.4431   0.4459   0.4517   0.4622
     0.5057   0.5085   0.5127   0.5152   0.5172   0.5194   0.5215   0.5235
     0.5318   0.5322   0.5323   0.5342   0.5577   0.5634   0.5685   0.5707
     0.5713   0.5748   0.5771   0.5828   0.5841   0.6057   0.6136   0.6162
     0.6177   0.6210   0.6274   0.6286   0.6301   0.6305   0.6320   0.6324
     0.6375   0.6382   0.6392   0.6432   0.6503   0.6515   0.6539   0.6565
     0.6579   0.6635   0.6727   0.6748   0.7057   0.7200   0.7292   0.7400
     0.7403   0.7432   0.7457   0.7465   0.7486   0.7496   0.7533   0.7539
     0.7559   0.7610   0.7687   0.7745   0.7903   0.7913   0.7921   0.7924
     0.7931   0.7941   0.7952   0.8011   0.8161   0.8335   0.8455   0.8465
     0.8505   0.8543   0.8731   0.8752   0.8763   0.8781   0.8858   0.8937
     0.9100   0.9103   0.9108   0.9147   0.9351   0.9363   0.9387   0.9406
     0.9864   0.9877   0.9891   0.9906   0.9968   1.0195   1.0205   1.0219
     1.0234   1.0410   1.0647   1.0719   1.0737   1.0768   1.0781   1.0873
     1.0891   1.0938   1.1010   1.1021   1.1034   1.1046   1.1067   1.1071
     1.1074   1.1078   1.1102   1.1105   1.1123   1.1162   1.1218   1.1336
     1.1360   1.1375   1.1414   1.1426   1.1449   1.1454   1.1463   1.1479
     1.1515   1.1590   1.1607   1.1623   1.1770   1.1816   1.1860   1.1875
     1.1890   1.1904   1.1947   1.1965   1.2042   1.2062   1.2085   1.2097
     1.2363   1.2498   1.2523   1.2534   1.2572   1.2575   1.2610   1.2639
     1.2796   1.2830   1.2842   1.2849   1.2863   1.2952   1.3017   1.3030
     1.3084   1.3116   1.3194   1.3235   1.3300   1.3320   1.3333   1.3347
     1.3407   1.3418   1.3427   1.3443   1.3473   1.3492   1.3497   1.3511
     1.3672   1.4103   1.4109   1.4142   1.4152   1.4161   1.4167   1.4170
     1.4177   1.4179   1.4228   1.4265   1.4302   1.4344   1.4355   1.4369
     1.4399   1.4436   1.4456   1.4461   1.4476   1.4511   1.4524   1.4554
     1.4566   1.4573   1.4583   1.4589   1.4596   1.4683   1.4690   1.4720
     1.4773   1.4784   1.4799   1.4803   1.5112   1.5119   1.5121   1.5124
     1.5242   1.5245   1.5269   1.5278   1.5320   1.5380   1.5415   1.5462
     1.5544   1.5622   1.5641   1.5648   1.5839   1.6090   1.6195   1.6217
     1.6338   1.6344   1.6364   1.6370   1.6598   1.6615   1.6657   1.6687
     1.6714   1.6759   1.6762   1.6774   1.6797   1.6805   1.6823   1.6835
     1.8706   1.8951   1.8982   1.9000   1.9392   2.3913   2.4162   2.4191
     2.4233   2.6209   2.6220   2.6237   2.6248   2.8229   2.8551   2.8657
     2.8690   3.1109   3.1533   3.1689   3.1743   3.4150   3.5160   3.5163
     3.5177   3.5582   3.6887   3.7069   3.7089   3.7285   3.9888   3.9910
     3.9935   3.9974   4.2830   4.2895   4.2921   4.2953   4.3414   4.4180
     4.4201   4.4256   4.5339   4.5952   4.6296   4.6403   4.6410   4.6525
     4.6618   4.7402   4.8098   4.8993   4.9444   4.9803   5.0321   5.1173
     5.1683   5.2015   5.2367   5.2391   5.2571   5.2667   5.3002   5.3390
     5.3870   5.4215   5.4252   5.4435   5.4697   5.5527   5.7656   5.7903
     5.8121   5.8161   5.8180   5.8211   5.9329   5.9707   5.9803   5.9962
     6.6311   6.8153   6.8272   6.8655   6.8782   7.0681   7.1612   7.1944
     7.2002   7.2045   7.2236   7.2269   7.2492   7.2595   7.3457   7.3623
     7.3727   7.3922   7.4276   7.4335   7.4370   7.4395   7.6135   7.6868
     7.6967   7.7132   7.7592   7.9022   7.9429   7.9887   8.0569   8.0676
     8.0742   8.1103   8.2825   8.2871   8.2930   8.3019   8.3238   8.3354
     8.8651   8.8807   8.9255   8.9480   8.9572   8.9584   8.9681   8.9737
     8.9982   9.0278   9.0334   9.0345   9.0415   9.0588   9.0999   9.1359
     9.1408   9.1431   9.1600   9.2293   9.3120   9.5095   9.6024   9.6167
     9.6278   9.6470   9.6476   9.6668   9.6710   9.7549   9.8317   9.8825

     the Fermi energy is     3.3844 ev

!    total energy              =  -12709.41059349 Ry
     Harris-Foulkes estimate   =  -12709.41059349 Ry
     estimated scf accuracy    <          4.2E-09 Ry

     The total energy is the sum of the following terms:

     one-electron contribution = -109362.83709011 Ry
     hartree contribution      =   56046.74250799 Ry
     xc contribution           =   -4449.29352871 Ry
     ewald contribution        =   45062.34389892 Ry
     Dispersion Correction     =      -3.00346385 Ry
     smearing contrib. (-TS)   =      -3.36291772 Ry

     convergence has been achieved in  54 iterations

     Writing output data file gc.save
 
     init_run     :    100.00s CPU    106.96s WALL (       1 calls)
     electrons    :  13986.61s CPU  14956.02s WALL (       1 calls)

     Called by init_run:
     wfcinit      :     97.59s CPU    104.17s WALL (       1 calls)
     potinit      :      0.41s CPU      0.43s WALL (       1 calls)

     Called by electrons:
     c_bands      :  12776.25s CPU  13627.38s WALL (      54 calls)
     sum_band     :   1007.71s CPU   1093.55s WALL (      54 calls)
     v_of_rho     :      3.58s CPU      4.41s WALL (      55 calls)
     newd         :     10.37s CPU     17.05s WALL (      55 calls)
     mix_rho      :    188.56s CPU    213.57s WALL (      54 calls)

     Called by c_bands:
     init_us_2    :     44.96s CPU     45.62s WALL (     654 calls)
     cegterg      :  12577.11s CPU  13420.91s WALL (     330 calls)

     Called by sum_band:
     sum_band:bec :      5.62s CPU      6.39s WALL (     324 calls)
     addusdens    :      9.81s CPU     16.79s WALL (      54 calls)

     Called by *egterg:
     h_psi        :   4764.92s CPU   5143.13s WALL (    2087 calls)
     s_psi        :   1166.22s CPU   1179.46s WALL (    2087 calls)
     g_psi        :     11.74s CPU     11.75s WALL (    1751 calls)
     cdiaghg      :   3460.85s CPU   3589.62s WALL (    2075 calls)

     Called by h_psi:
     add_vuspsi   :   1172.96s CPU   1188.19s WALL (    2087 calls)

     General routines
     calbec       :   1661.10s CPU   1673.06s WALL (    2411 calls)
     fft          :      4.14s CPU      4.81s WALL (     714 calls)
     ffts         :    110.20s CPU    124.84s WALL (   29075 calls)
     fftw         :   2744.54s CPU   3050.42s WALL ( 1515442 calls)
     davcio       :      0.40s CPU      3.67s WALL (       6 calls)
 
     Parallel routines
     fft_scatter  :   1786.86s CPU   1950.63s WALL ( 1545231 calls)
 
     PWSCF        :     3h54m CPU        4h11m WALL

 
   This run was terminated on:  12:59:33   1May2017            

=------------------------------------------------------------------------------=
   JOB DONE.
=------------------------------------------------------------------------------=
