mpirun: INFO: switching to OpenMPI runtime version 1.10.2

     Program PWSCF v.5.4.0 starts on 12Sep2017 at 11:38:19 

     This program is part of the open-source Quantum ESPRESSO suite
     for quantum simulation of materials; please cite
         "P. Giannozzi et al., J. Phys.:Condens. Matter 21 395502 (2009);
          URL http://www.quantum-espresso.org", 
     in publications or presentations arising from this work. More details at
     http://www.quantum-espresso.org/quote

     Parallel version (MPI & OpenMP), running on      28 processor cores
     Number of MPI processes:                28
     Threads/MPI process:                     1
     R & G space division:  proc/nbgrp/npool/nimage =      28
     Waiting for input...
     Reading input from standard input

     Current dimensions of program PWSCF are:
     Max number of different atomic species (ntypx) = 10
     Max number of k-points (npk) =  40000
     Max angular momentum in pseudopotentials (lmaxx) =  3
     WARNING: atomic wfc #  2 for atom type 4 has zero norm
     WARNING: atomic wfc #  4 for atom type 4 has zero norm
     WARNING: atomic wfc #  5 for atom type 4 has zero norm

     -------------------------------------
     Parameters for Dispersion Correction:
     -------------------------------------
       atom      VdW radius       C_6     

        Cu         2.952        374.666
        C_h        2.744         60.710
        C          2.744         60.710
        O          2.536         24.284
        H          1.892          4.857

     Subspace diagonalization in iterative solution of the eigenvalue problem:
     one sub-group per band group will be used
     scalapack distributed-memory algorithm (size of sub-group:  3*  3 procs)

 
     Parallelization info
     --------------------
     sticks:   dense  smooth     PW     G-vecs:    dense   smooth      PW
     Min         408     408    108                73226    73226    9928
     Max         410     410    109                73231    73231    9931
     Sum       11433   11433   3039              2050409  2050409  278033
 


     bravais-lattice index     =            0
     lattice parameter (alat)  =      13.9425  a.u.
     unit-cell volume          =   21209.0878 (a.u.)^3
     number of atoms/cell      =          137
     number of atomic types    =            5
     number of electrons       =      1232.00
     number of Kohn-Sham states=          739
     kinetic-energy cutoff     =      80.0000  Ry
     charge density cutoff     =     320.0000  Ry
     convergence threshold     =      1.0E-08
     mixing beta               =       0.7000
     number of iterations used =            8  local-TF  mixing
     Exchange-correlation      =  SLA  PW   PBE  PBE ( 1  4  3  4 0 0)
     nstep                     =           50


     celldm(1)=  13.942539  celldm(2)=   0.000000  celldm(3)=   0.000000
     celldm(4)=   0.000000  celldm(5)=   0.000000  celldm(6)=   0.000000

     crystal axes: (cart. coord. in units of alat)
               a(1) = (   1.000000   0.000000   0.000000 )  
               a(2) = (   0.000000   2.309401   0.000000 )  
               a(3) = (   0.000000   0.000000   3.388418 )  

     reciprocal axes: (cart. coord. in units 2 pi/alat)
               b(1) = (  1.000000  0.000000  0.000000 )  
               b(2) = (  0.000000  0.433013  0.000000 )  
               b(3) = (  0.000000  0.000000  0.295123 )  


     PseudoPot. # 1 for Cu read from file:
     /home/549/hxw549/Short/pseudopotentials/Cu.pbe-n-van_ak.UPF
     MD5 check sum: 601f7c30f7467666bec936e0661ce3e1
     Pseudo is Ultrasoft + core correction, Zval = 11.0
     Generated by new atomic code, or converted to UPF format
     Using radial grid of  867 points,  6 beta functions with: 
                l(1) =   0
                l(2) =   0
                l(3) =   1
                l(4) =   1
                l(5) =   2
                l(6) =   2
     Q(r) pseudized with  8 coefficients,  rinner =    1.400   1.400   1.400
                                                       1.400   1.400

     PseudoPot. # 2 for C  read from file:
     /home/549/hxw549/Short/pseudopotentials/C.star1s-pbe-mt_gipaw.UPF
     MD5 check sum: ef0cb3dee31bd9e4ba2a832a2c716264
     Pseudo is Norm-conserving, Zval =  5.0
     Generated by new atomic code, or converted to UPF format
     Using radial grid of 1073 points,  1 beta functions with: 
                l(1) =   0

     PseudoPot. # 3 for C  read from file:
     /home/549/hxw549/Short/pseudopotentials/C.pbe-mt_gipaw.UPF
     MD5 check sum: 5ac2f21f2c440b14befe521540822c15
     Pseudo is Norm-conserving, Zval =  4.0
     Generated by new atomic code, or converted to UPF format
     Using radial grid of 1073 points,  1 beta functions with: 
                l(1) =   0

     PseudoPot. # 4 for O  read from file:
     /home/549/hxw549/Short/pseudopotentials/O.pbe-van_gipaw.UPF
     MD5 check sum: 5ce2a047509d4f331db576c963e74b29
     Pseudo is Ultrasoft, Zval =  6.0
     Generated by new atomic code, or converted to UPF format
     Using radial grid of 1095 points,  4 beta functions with: 
                l(1) =   0
                l(2) =   0
                l(3) =   1
                l(4) =   1
     Q(r) pseudized with 0 coefficients 


     PseudoPot. # 5 for H  read from file:
     /home/549/hxw549/Short/pseudopotentials/H.pbe-van_ak.UPF
     MD5 check sum: 077eb6d537518a38cb46c6de387227b7
     Pseudo is Ultrasoft, Zval =  1.0
     Generated by new atomic code, or converted to UPF format
     Using radial grid of  615 points,  1 beta functions with: 
                l(1) =   0
     Q(r) pseudized with  8 coefficients,  rinner =    0.800

     atomic species   valence    mass     pseudopotential
        Cu            11.00    63.54600     Cu( 1.00)
        C_h            5.00    12.01070     C ( 1.00)
        C              4.00    12.01070     C ( 1.00)
        O              6.00    15.99940     O ( 1.00)
        H              1.00     1.00783     H ( 1.00)

     No symmetry found



   Cartesian axes

     site n.     atom                  positions (alat units)
         1           Cu  tau(   1) = (   0.0000000  -0.0001124   1.0011868  )
         2           Cu  tau(   2) = (   0.2499898   0.2314890   1.0028858  )
         3           Cu  tau(   3) = (   0.5000000  -0.0001538   1.0011207  )
         4           Cu  tau(   4) = (   0.7500102   0.2314890   1.0028858  )
         5           Cu  tau(   5) = (   0.0000000   0.4622551   1.0053524  )
         6           Cu  tau(   6) = (   0.2500088   0.6924579   1.0058364  )
         7           Cu  tau(   7) = (   0.5000000   0.4622629   1.0051606  )
         8           Cu  tau(   8) = (   0.7499912   0.6924579   1.0058364  )
         9           Cu  tau(   9) = (   0.0000000   0.9231945   1.0037099  )
        10           Cu  tau(  10) = (   0.2501144   1.1547114   1.0017292  )
        11           Cu  tau(  11) = (   0.5000000   0.9229888   1.0040738  )
        12           Cu  tau(  12) = (   0.7498856   1.1547114   1.0017292  )
        13           Cu  tau(  13) = (   0.0000000   1.3863962   1.0012899  )
        14           Cu  tau(  14) = (   0.2500136   1.6173447   1.0021190  )
        15           Cu  tau(  15) = (   0.5000000   1.3867257   1.0015878  )
        16           Cu  tau(  16) = (   0.7499864   1.6173447   1.0021190  )
        17           Cu  tau(  17) = (   0.0000000   1.8473422   1.0020731  )
        18           Cu  tau(  18) = (   0.2500067   2.0777255   1.0012575  )
        19           Cu  tau(  19) = (   0.5000000   1.8472488   1.0019769  )
        20           Cu  tau(  20) = (   0.7499933   2.0777255   1.0012575  )
        21           Cu  tau(  21) = (   0.0000000   0.2290971   1.2510133  )
        22           Cu  tau(  22) = (   0.2500654  -0.0010279   1.2492517  )
        23           Cu  tau(  23) = (   0.5000000   0.2291363   1.2509787  )
        24           Cu  tau(  24) = (   0.7499346  -0.0010279   1.2492517  )
        25           Cu  tau(  25) = (   0.0000000   0.6932770   1.2534390  )
        26           Cu  tau(  26) = (   0.2500647   0.4607032   1.2532007  )
        27           Cu  tau(  27) = (   0.5000000   0.6927500   1.2537658  )
        28           Cu  tau(  28) = (   0.7499353   0.4607032   1.2532007  )
        29           Cu  tau(  29) = (   0.0000000   1.1559961   1.2495084  )
        30           Cu  tau(  30) = (   0.2500511   0.9251246   1.2516105  )
        31           Cu  tau(  31) = (   0.5000000   1.1560617   1.2496092  )
        32           Cu  tau(  32) = (   0.7499489   0.9251246   1.2516105  )
        33           Cu  tau(  33) = (   0.0000000   1.6169015   1.2499722  )
        34           Cu  tau(  34) = (   0.2500720   1.3863550   1.2492996  )
        35           Cu  tau(  35) = (   0.5000000   1.6173459   1.2506856  )
        36           Cu  tau(  36) = (   0.7499280   1.3863550   1.2492996  )
        37           Cu  tau(  37) = (   0.0000000   2.0785906   1.2492456  )
        38           Cu  tau(  38) = (   0.2500782   1.8481473   1.2503424  )
        39           Cu  tau(  39) = (   0.5000000   2.0786197   1.2492262  )
        40           Cu  tau(  40) = (   0.7499218   1.8481473   1.2503424  )
        41           Cu  tau(  41) = (   0.0000000  -0.0018773   1.5009156  )
        42           Cu  tau(  42) = (   0.2502427   0.2272264   1.5012140  )
        43           Cu  tau(  43) = (   0.5000000  -0.0019371   1.5013637  )
        44           Cu  tau(  44) = (   0.7497573   0.2272264   1.5012140  )
        45           Cu  tau(  45) = (   0.0000000   0.4594394   1.5003477  )
        46           Cu  tau(  46) = (   0.2502570   0.6942932   1.5009157  )
        47           Cu  tau(  47) = (   0.5000000   0.4586584   1.5016837  )
        48           Cu  tau(  48) = (   0.7497430   0.6942932   1.5009157  )
        49           Cu  tau(  49) = (   0.0000000   0.9268538   1.5010944  )
        50           Cu  tau(  50) = (   0.2498040   1.1568891   1.5005333  )
        51           Cu  tau(  51) = (   0.5000000   0.9268357   1.5007380  )
        52           Cu  tau(  52) = (   0.7501960   1.1568891   1.5005333  )
        53           Cu  tau(  53) = (   0.0000000   1.3863456   1.5003872  )
        54           Cu  tau(  54) = (   0.2501219   1.6169806   1.4997659  )
        55           Cu  tau(  55) = (   0.5000000   1.3861347   1.5004185  )
        56           Cu  tau(  56) = (   0.7498781   1.6169806   1.4997659  )
        57           Cu  tau(  57) = (   0.0000000   1.8484356   1.4996601  )
        58           Cu  tau(  58) = (   0.2501193   2.0791885   1.5009757  )
        59           Cu  tau(  59) = (   0.5000000   1.8497941   1.5008599  )
        60           Cu  tau(  60) = (   0.7498807   2.0791885   1.5009757  )
        61           Cu  tau(  61) = (   0.0000000   0.2272141   1.7507006  )
        62           Cu  tau(  62) = (   0.2502201  -0.0034017   1.7557585  )
        63           Cu  tau(  63) = (   0.5000000   0.2232551   1.7551867  )
        64           Cu  tau(  64) = (   0.7497799  -0.0034017   1.7557585  )
        65           Cu  tau(  65) = (   0.0000000   0.6930571   1.7454147  )
        66           Cu  tau(  66) = (   0.2511988   0.4604074   1.7460219  )
        67           Cu  tau(  67) = (   0.5000000   0.6943777   1.7466636  )
        68           Cu  tau(  68) = (   0.7488012   0.4604074   1.7460219  )
        69           Cu  tau(  69) = (   0.0000000   1.1589833   1.7543557  )
        70           Cu  tau(  70) = (   0.2498986   0.9284865   1.7514360  )
        71           Cu  tau(  71) = (   0.5000000   1.1581142   1.7531021  )
        72           Cu  tau(  72) = (   0.7501014   0.9284865   1.7514360  )
        73           Cu  tau(  73) = (   0.0000000   1.6180631   1.7507280  )
        74           Cu  tau(  74) = (   0.2497278   1.3878292   1.7524236  )
        75           Cu  tau(  75) = (   0.5000000   1.6185358   1.7501560  )
        76           Cu  tau(  76) = (   0.7502722   1.3878292   1.7524236  )
        77           Cu  tau(  77) = (   0.0000000   2.0767807   1.7530692  )
        78           Cu  tau(  78) = (   0.2506793   1.8476229   1.7502174  )
        79           Cu  tau(  79) = (   0.5000000   2.0808455   1.7577646  )
        80           Cu  tau(  80) = (   0.7493207   1.8476229   1.7502174  )
        81           Cu  tau(  81) = (   0.0000000  -0.0012284   2.0022710  )
        82           Cu  tau(  82) = (   0.2496273   0.2339959   1.9924918  )
        83           Cu  tau(  83) = (   0.5000000  -0.0044412   2.0226497  )
        84           Cu  tau(  84) = (   0.7503727   0.2339959   1.9924918  )
        85           Cu  tau(  85) = (   0.0000000   0.4635570   1.9910147  )
        86           Cu  tau(  86) = (   0.2506563   0.6918608   1.9912023  )
        87           Cu  tau(  87) = (   0.5000000   0.4630711   1.9929706  )
        88           Cu  tau(  88) = (   0.7493437   0.6918608   1.9912023  )
        89           Cu  tau(  89) = (   0.0000000   0.9209914   1.9923815  )
        90           Cu  tau(  90) = (   0.2486433   1.1594323   2.0034163  )
        91           Cu  tau(  91) = (   0.5000000   0.9237114   1.9939278  )
        92           Cu  tau(  92) = (   0.7513567   1.1594323   2.0034163  )
        93           Cu  tau(  93) = (   0.0000000   1.3927493   2.0020949  )
        94           Cu  tau(  94) = (   0.2515934   1.6194884   2.0009081  )
        95           Cu  tau(  95) = (   0.5000000   1.3906810   1.9975250  )
        96           Cu  tau(  96) = (   0.7484066   1.6194884   2.0009081  )
        97           Cu  tau(  97) = (   0.0000000   1.8437997   2.0030740  )
        98           Cu  tau(  98) = (   0.2472165   2.0727862   2.0006750  )
        99           Cu  tau(  99) = (   0.5000000   1.8474924   2.0031450  )
       100           Cu  tau( 100) = (   0.7527835   2.0727862   2.0006750  )
       101           C   tau( 101) = (   0.0000000   0.0909116   2.3757143  )
       102           C   tau( 102) = (   0.0000000   0.2860842   2.3844548  )
       103           C   tau( 103) = (   0.1667206  -0.0023221   2.3640252  )
       104           C   tau( 104) = (   0.1664100   0.3825093   2.3845947  )
       105           C   tau( 105) = (   0.3323314   0.0914664   2.3568410  )
       106           C   tau( 106) = (   0.3327992   0.2862247   2.3713917  )
       107           C   tau( 107) = (   0.5000000  -0.0021686   2.3289559  )
       108           C   tau( 108) = (   0.5000000   0.3827790   2.3739144  )
       109           C   tau( 109) = (   0.6676686   0.0914664   2.3568410  )
       110           C   tau( 110) = (   0.6672008   0.2862247   2.3713917  )
       111           C   tau( 111) = (   0.8332794  -0.0023221   2.3640252  )
       112           C   tau( 112) = (   0.8335900   0.3825093   2.3845947  )
       113           C   tau( 113) = (   0.0000000   0.6729687   2.3904796  )
       114           C   tau( 114) = (   0.0000000   0.8667256   2.3839038  )
       115           C   tau( 115) = (   0.1664436   0.5763749   2.3885814  )
       116           C   tau( 116) = (   0.1666136   0.9632494   2.3785655  )
       117           C   tau( 117) = (   0.3331423   0.6729953   2.3846639  )
       118           C   tau( 118) = (   0.3331577   0.8667554   2.3808818  )
       119           C   tau( 119) = (   0.5000000   0.5763623   2.3826941  )
       120           C   tau( 120) = (   0.5000000   0.9631968   2.3749681  )
       121           C   tau( 121) = (   0.6668577   0.6729953   2.3846639  )
       122           C   tau( 122) = (   0.6668423   0.8667554   2.3808818  )
       123           C   tau( 123) = (   0.8335564   0.5763749   2.3885814  )
       124           C   tau( 124) = (   0.8333864   0.9632494   2.3785655  )
       125           C   tau( 125) = (   0.0000000   1.2526117   2.3627777  )
       126           C   tau( 126) = (   0.1665410   1.1586079   2.3669448  )
       127           C   tau( 127) = (   0.3335017   1.2516977   2.3567510  )
       128           C   tau( 128) = (   0.5000000   1.1584676   2.3662578  )
       129           C   tau( 129) = (   0.6664983   1.2516977   2.3567510  )
       130           C   tau( 130) = (   0.8334590   1.1586079   2.3669448  )
       131           H   tau( 131) = (   0.1664277  -0.1503820   2.3577150  )
       132           H   tau( 132) = (   0.5000000  -0.1496242   2.3442672  )
       133           H   tau( 133) = (   0.8335723  -0.1503820   2.3577150  )
       134           H   tau( 134) = (   0.0000000   1.4008679   2.3643044  )
       135           O   tau( 135) = (   0.3334167   1.3998201   2.3514427  )
       136           H   tau( 136) = (   0.3331629   1.5082495   2.3514427  )
       137           H   tau( 137) = (   0.6665833   1.3998201   2.3514427  )

     number of k points=     6  gaussian smearing, width (Ry)=  0.1000
                       cart. coord. in units 2pi/alat
        k(    1) = (   0.0000000   0.0000000   0.0000000), wk =   0.2500000
        k(    2) = (   0.0000000  -0.2165064   0.0000000), wk =   0.2500000
        k(    3) = (   0.2500000   0.0000000   0.0000000), wk =   0.5000000
        k(    4) = (   0.2500000  -0.2165064   0.0000000), wk =   0.5000000
        k(    5) = (  -0.5000000   0.0000000   0.0000000), wk =   0.2500000
        k(    6) = (  -0.5000000  -0.2165064   0.0000000), wk =   0.2500000

     Dense  grid:  2050409 G-vectors     FFT dimensions: (  80, 192, 270)

     Largest allocated arrays     est. size (Mb)     dimensions
        Kohn-Sham Wavefunctions       103.41 Mb     (    9171,  739)
        NL pseudopotentials           258.05 Mb     (    9171, 1844)
        Each V/rho on FFT grid          2.34 Mb     (  153600)
        Each G-vector array             0.56 Mb     (   73230)
        G-vector shells                 0.27 Mb     (   35784)
     Largest temporary arrays     est. size (Mb)     dimensions
        Auxiliary wavefunctions       413.66 Mb     (    9171, 2956)
        Each subspace H/S matrix       14.80 Mb     (     985,  985)
        Each <psi_i|beta_j> matrix     20.79 Mb     (    1844,  739)
        Arrays for rho mixing          18.75 Mb     (  153600,    8)

     Initial potential from superposition of free atoms
     Check: negative starting charge=   -0.002198

     starting charge 1215.81748, renormalised to 1232.00000

     negative rho (up, down):  2.227E-03 0.000E+00
     Starting wfc are 1150 randomized atomic wfcs

     total cpu time spent up to now is      174.1 secs

     Self-consistent Calculation

     iteration #  1     ecut=    80.00 Ry     beta=0.70
     Davidson diagonalization with overlap
     c_bands:  1 eigenvalues not converged
     ethr =  1.00E-04,  avg # of iterations = 20.0

     negative rho (up, down):  2.999E+01 0.000E+00

     total cpu time spent up to now is     3013.3 secs

     total energy              =   -8154.53941134 Ry
     Harris-Foulkes estimate   =  -14805.74192580 Ry
     estimated scf accuracy    <  143836.43487274 Ry

     iteration #  2     ecut=    80.00 Ry     beta=0.70
     Davidson diagonalization with overlap
     ethr =  1.00E-02,  avg # of iterations = 13.0

     negative rho (up, down):  2.170E+01 0.000E+00

     total cpu time spent up to now is     4623.5 secs

     total energy              =  -12598.37336034 Ry
     Harris-Foulkes estimate   =  -13182.31392767 Ry
     estimated scf accuracy    <    1767.45215256 Ry

     iteration #  3     ecut=    80.00 Ry     beta=0.70
     Davidson diagonalization with overlap
     ethr =  1.00E-02,  avg # of iterations =  5.0

     negative rho (up, down):  1.574E+01 0.000E+00

     total cpu time spent up to now is     5283.9 secs

     total energy              =  -12662.48881896 Ry
     Harris-Foulkes estimate   =  -12752.66225556 Ry
     estimated scf accuracy    <     532.05455511 Ry

     iteration #  4     ecut=    80.00 Ry     beta=0.70
     Davidson diagonalization with overlap
     ethr =  1.00E-02,  avg # of iterations =  3.7

     negative rho (up, down):  1.621E+01 0.000E+00

     total cpu time spent up to now is     5769.2 secs

     total energy              =  -12721.65005837 Ry
     Harris-Foulkes estimate   =  -12705.46678039 Ry
     estimated scf accuracy    <    1242.16020493 Ry

     iteration #  5     ecut=    80.00 Ry     beta=0.70
     Davidson diagonalization with overlap
     ethr =  1.00E-02,  avg # of iterations =  1.0

     negative rho (up, down):  1.307E+01 0.000E+00

     total cpu time spent up to now is     6069.9 secs

     total energy              =  -12697.04410298 Ry
     Harris-Foulkes estimate   =  -12726.80355907 Ry
     estimated scf accuracy    <    2658.57291180 Ry

     iteration #  6     ecut=    80.00 Ry     beta=0.70
     Davidson diagonalization with overlap
     ethr =  1.00E-02,  avg # of iterations =  1.5

     negative rho (up, down):  8.426E+00 0.000E+00

     total cpu time spent up to now is     6379.9 secs

     total energy              =  -12631.66380570 Ry
     Harris-Foulkes estimate   =  -12712.46255410 Ry
     estimated scf accuracy    <    2494.30438781 Ry

     iteration #  7     ecut=    80.00 Ry     beta=0.70
     Davidson diagonalization with overlap
     ethr =  1.00E-02,  avg # of iterations =  3.5

     negative rho (up, down):  6.484E+00 0.000E+00

     total cpu time spent up to now is     6772.2 secs

     total energy              =  -12626.56080889 Ry
     Harris-Foulkes estimate   =  -12671.06154544 Ry
     estimated scf accuracy    <     668.17415199 Ry

     iteration #  8     ecut=    80.00 Ry     beta=0.70
     Davidson diagonalization with overlap
     ethr =  1.00E-02,  avg # of iterations =  3.7

     negative rho (up, down):  5.877E+00 0.000E+00

     total cpu time spent up to now is     7125.0 secs

     total energy              =  -12622.91453454 Ry
     Harris-Foulkes estimate   =  -12637.25552005 Ry
     estimated scf accuracy    <     379.89063392 Ry

     iteration #  9     ecut=    80.00 Ry     beta=0.70
     Davidson diagonalization with overlap
     ethr =  1.00E-02,  avg # of iterations =  2.2

     negative rho (up, down):  4.095E+00 0.000E+00

     total cpu time spent up to now is     7449.3 secs

     total energy              =  -12606.90567725 Ry
     Harris-Foulkes estimate   =  -12628.83188424 Ry
     estimated scf accuracy    <     261.01782790 Ry

     iteration # 10     ecut=    80.00 Ry     beta=0.70
     Davidson diagonalization with overlap
     ethr =  1.00E-02,  avg # of iterations =  1.0

     negative rho (up, down):  2.038E+00 0.000E+00

     total cpu time spent up to now is     7752.7 secs

     total energy              =  -12577.27512578 Ry
     Harris-Foulkes estimate   =  -12610.19827753 Ry
     estimated scf accuracy    <     217.09878643 Ry

     iteration # 11     ecut=    80.00 Ry     beta=0.70
     Davidson diagonalization with overlap
     ethr =  1.00E-02,  avg # of iterations =  2.0

     negative rho (up, down):  2.164E+00 0.000E+00

     total cpu time spent up to now is     8073.0 secs

     total energy              =  -12545.69849546 Ry
     Harris-Foulkes estimate   =  -12589.98623804 Ry
     estimated scf accuracy    <     228.84878924 Ry

     iteration # 12     ecut=    80.00 Ry     beta=0.70
     Davidson diagonalization with overlap
     ethr =  1.00E-02,  avg # of iterations =  2.2

     negative rho (up, down):  7.322E+00 0.000E+00

     total cpu time spent up to now is     8400.4 secs

     total energy              =  -12531.08821201 Ry
     Harris-Foulkes estimate   =  -12563.17579435 Ry
     estimated scf accuracy    <     247.26166454 Ry

     iteration # 13     ecut=    80.00 Ry     beta=0.70
     Davidson diagonalization with overlap
     ethr =  1.00E-02,  avg # of iterations =  2.0

     negative rho (up, down):  5.470E+00 0.000E+00

     total cpu time spent up to now is     8722.5 secs

     total energy              =  -12543.35068226 Ry
     Harris-Foulkes estimate   =  -12553.80151799 Ry
     estimated scf accuracy    <     251.61672457 Ry

     iteration # 14     ecut=    80.00 Ry     beta=0.70
     Davidson diagonalization with overlap
     ethr =  1.00E-02,  avg # of iterations =  1.0

     negative rho (up, down):  4.862E+00 0.000E+00

     total cpu time spent up to now is     9023.5 secs

     total energy              =  -12544.15998330 Ry
     Harris-Foulkes estimate   =  -12549.52565350 Ry
     estimated scf accuracy    <      95.14774447 Ry

     iteration # 15     ecut=    80.00 Ry     beta=0.70
     Davidson diagonalization with overlap
     ethr =  7.72E-03,  avg # of iterations =  1.0

     negative rho (up, down):  2.711E+00 0.000E+00

     total cpu time spent up to now is     9326.8 secs

     total energy              =  -12543.76769384 Ry
     Harris-Foulkes estimate   =  -12545.53341585 Ry
     estimated scf accuracy    <      39.59658924 Ry

     iteration # 16     ecut=    80.00 Ry     beta=0.70
     Davidson diagonalization with overlap
     ethr =  3.21E-03,  avg # of iterations =  1.0

     negative rho (up, down):  2.851E+00 0.000E+00

     total cpu time spent up to now is     9628.7 secs

     total energy              =  -12538.01329023 Ry
     Harris-Foulkes estimate   =  -12544.47669565 Ry
     estimated scf accuracy    <      37.45689578 Ry

     iteration # 17     ecut=    80.00 Ry     beta=0.70
     Davidson diagonalization with overlap
     ethr =  3.04E-03,  avg # of iterations =  2.2

     negative rho (up, down):  4.137E+00 0.000E+00

     total cpu time spent up to now is     9951.0 secs

     total energy              =  -12538.05535696 Ry
     Harris-Foulkes estimate   =  -12539.93643241 Ry
     estimated scf accuracy    <      39.20153653 Ry

     iteration # 18     ecut=    80.00 Ry     beta=0.70
     Davidson diagonalization with overlap
     ethr =  3.04E-03,  avg # of iterations =  2.2

     negative rho (up, down):  3.733E+00 0.000E+00

     total cpu time spent up to now is    10272.3 secs

     total energy              =  -12538.03819618 Ry
     Harris-Foulkes estimate   =  -12539.18905017 Ry
     estimated scf accuracy    <      13.48758776 Ry

     iteration # 19     ecut=    80.00 Ry     beta=0.70
     Davidson diagonalization with overlap
     ethr =  1.09E-03,  avg # of iterations =  7.7

     negative rho (up, down):  3.105E+00 0.000E+00

     total cpu time spent up to now is    10714.3 secs

     total energy              =  -12537.22578068 Ry
     Harris-Foulkes estimate   =  -12538.33617032 Ry
     estimated scf accuracy    <      11.76486730 Ry

     iteration # 20     ecut=    80.00 Ry     beta=0.70
     Davidson diagonalization with overlap
     ethr =  9.55E-04,  avg # of iterations =  1.3

     negative rho (up, down):  2.563E+00 0.000E+00

     total cpu time spent up to now is    11021.4 secs

     total energy              =  -12536.40671938 Ry
     Harris-Foulkes estimate   =  -12537.42182777 Ry
     estimated scf accuracy    <      13.58834077 Ry

     iteration # 21     ecut=    80.00 Ry     beta=0.70
     Davidson diagonalization with overlap
     ethr =  9.55E-04,  avg # of iterations =  1.0

     negative rho (up, down):  2.489E+00 0.000E+00

     total cpu time spent up to now is    11321.5 secs

     total energy              =  -12535.47633578 Ry
     Harris-Foulkes estimate   =  -12536.63553673 Ry
     estimated scf accuracy    <      11.15428082 Ry

     iteration # 22     ecut=    80.00 Ry     beta=0.70
     Davidson diagonalization with overlap
     ethr =  9.05E-04,  avg # of iterations =  2.0

     negative rho (up, down):  1.625E+00 0.000E+00

     total cpu time spent up to now is    11641.7 secs

     total energy              =  -12533.56852381 Ry
     Harris-Foulkes estimate   =  -12535.88177862 Ry
     estimated scf accuracy    <       6.98412034 Ry

     iteration # 23     ecut=    80.00 Ry     beta=0.70
     Davidson diagonalization with overlap
     ethr =  5.67E-04,  avg # of iterations =  5.5

     negative rho (up, down):  9.626E-01 0.000E+00

     total cpu time spent up to now is    12037.8 secs

     total energy              =  -12533.39887158 Ry
     Harris-Foulkes estimate   =  -12533.88685699 Ry
     estimated scf accuracy    <       3.94957216 Ry

     iteration # 24     ecut=    80.00 Ry     beta=0.70
     Davidson diagonalization with overlap
     ethr =  3.21E-04,  avg # of iterations =  8.7

     negative rho (up, down):  7.111E-01 0.000E+00

     total cpu time spent up to now is    12481.1 secs

     total energy              =  -12532.45346344 Ry
     Harris-Foulkes estimate   =  -12533.51915574 Ry
     estimated scf accuracy    <       2.71232446 Ry

     iteration # 25     ecut=    80.00 Ry     beta=0.70
     Davidson diagonalization with overlap
     ethr =  2.20E-04,  avg # of iterations =  5.2

     negative rho (up, down):  6.272E-01 0.000E+00

     total cpu time spent up to now is    12877.4 secs

     total energy              =  -12532.17860654 Ry
     Harris-Foulkes estimate   =  -12532.57183703 Ry
     estimated scf accuracy    <       1.96354034 Ry

     iteration # 26     ecut=    80.00 Ry     beta=0.70
     Davidson diagonalization with overlap
     ethr =  1.59E-04,  avg # of iterations =  6.2

     negative rho (up, down):  5.292E-01 0.000E+00

     total cpu time spent up to now is    13274.7 secs

     total energy              =  -12532.14271184 Ry
     Harris-Foulkes estimate   =  -12532.25563636 Ry
     estimated scf accuracy    <       1.52362758 Ry

     iteration # 27     ecut=    80.00 Ry     beta=0.70
     Davidson diagonalization with overlap
     ethr =  1.24E-04,  avg # of iterations =  2.3

     negative rho (up, down):  3.144E-01 0.000E+00

     total cpu time spent up to now is    13603.0 secs

     total energy              =  -12531.93964539 Ry
     Harris-Foulkes estimate   =  -12532.18527074 Ry
     estimated scf accuracy    <       0.84319328 Ry

     iteration # 28     ecut=    80.00 Ry     beta=0.70
     Davidson diagonalization with overlap
     ethr =  6.84E-05,  avg # of iterations =  8.2

     negative rho (up, down):  2.343E-01 0.000E+00

     total cpu time spent up to now is    14108.7 secs

     total energy              =  -12531.94141451 Ry
     Harris-Foulkes estimate   =  -12531.97737579 Ry
     estimated scf accuracy    <       0.27401630 Ry

     iteration # 29     ecut=    80.00 Ry     beta=0.70
     Davidson diagonalization with overlap
     ethr =  2.22E-05,  avg # of iterations =  6.3

     negative rho (up, down):  1.032E-01 0.000E+00

     total cpu time spent up to now is    14520.9 secs

     total energy              =  -12531.91555920 Ry
     Harris-Foulkes estimate   =  -12531.95505049 Ry
     estimated scf accuracy    <       0.18159899 Ry

     iteration # 30     ecut=    80.00 Ry     beta=0.70
     Davidson diagonalization with overlap
     ethr =  1.47E-05,  avg # of iterations =  8.0

     negative rho (up, down):  7.906E-02 0.000E+00

     total cpu time spent up to now is    15016.9 secs

     total energy              =  -12531.91690144 Ry
     Harris-Foulkes estimate   =  -12531.92752595 Ry
     estimated scf accuracy    <       0.09630192 Ry

     iteration # 31     ecut=    80.00 Ry     beta=0.70
     Davidson diagonalization with overlap
     ethr =  7.82E-06,  avg # of iterations =  9.5

     negative rho (up, down):  6.134E-02 0.000E+00

     total cpu time spent up to now is    15500.5 secs

     total energy              =  -12531.91776002 Ry
     Harris-Foulkes estimate   =  -12531.92199468 Ry
     estimated scf accuracy    <       0.02757206 Ry

     iteration # 32     ecut=    80.00 Ry     beta=0.70
     Davidson diagonalization with overlap
     ethr =  2.24E-06,  avg # of iterations =  8.3

     negative rho (up, down):  3.775E-02 0.000E+00

     total cpu time spent up to now is    15994.7 secs

     total energy              =  -12531.91947687 Ry
     Harris-Foulkes estimate   =  -12531.91970311 Ry
     estimated scf accuracy    <       0.00717476 Ry

     iteration # 33     ecut=    80.00 Ry     beta=0.70
     Davidson diagonalization with overlap
     ethr =  5.82E-07,  avg # of iterations =  7.0

     negative rho (up, down):  8.532E-03 0.000E+00

     total cpu time spent up to now is    16453.4 secs

     total energy              =  -12531.91962235 Ry
     Harris-Foulkes estimate   =  -12531.91997751 Ry
     estimated scf accuracy    <       0.00148886 Ry

     iteration # 34     ecut=    80.00 Ry     beta=0.70
     Davidson diagonalization with overlap
     ethr =  1.21E-07,  avg # of iterations = 11.8

     negative rho (up, down):  6.750E-03 0.000E+00

     total cpu time spent up to now is    17053.1 secs

     total energy              =  -12531.91975906 Ry
     Harris-Foulkes estimate   =  -12531.91979989 Ry
     estimated scf accuracy    <       0.00036081 Ry

     iteration # 35     ecut=    80.00 Ry     beta=0.70
     Davidson diagonalization with overlap
     ethr =  2.93E-08,  avg # of iterations = 10.3

     negative rho (up, down):  3.587E-03 0.000E+00

     total cpu time spent up to now is    17576.2 secs

     total energy              =  -12531.91976439 Ry
     Harris-Foulkes estimate   =  -12531.91979906 Ry
     estimated scf accuracy    <       0.00007652 Ry

     iteration # 36     ecut=    80.00 Ry     beta=0.70
     Davidson diagonalization with overlap
     c_bands:  1 eigenvalues not converged
     ethr =  6.21E-09,  avg # of iterations = 12.5

     negative rho (up, down):  4.260E-03 0.000E+00

     total cpu time spent up to now is    18159.1 secs

     total energy              =  -12531.91980849 Ry
     Harris-Foulkes estimate   =  -12531.91977603 Ry
     estimated scf accuracy    <       0.00005137 Ry

     iteration # 37     ecut=    80.00 Ry     beta=0.70
     Davidson diagonalization with overlap
     ethr =  4.17E-09,  avg # of iterations =  6.5

     negative rho (up, down):  2.704E-03 0.000E+00

     total cpu time spent up to now is    18594.6 secs

     total energy              =  -12531.91981576 Ry
     Harris-Foulkes estimate   =  -12531.91981222 Ry
     estimated scf accuracy    <       0.00000982 Ry

     iteration # 38     ecut=    80.00 Ry     beta=0.70
     Davidson diagonalization with overlap
     ethr =  7.97E-10,  avg # of iterations =  8.8

     negative rho (up, down):  2.464E-03 0.000E+00

     total cpu time spent up to now is    19101.1 secs

     total energy              =  -12531.91981499 Ry
     Harris-Foulkes estimate   =  -12531.91981723 Ry
     estimated scf accuracy    <       0.00000385 Ry

     iteration # 39     ecut=    80.00 Ry     beta=0.70
     Davidson diagonalization with overlap
     ethr =  3.12E-10,  avg # of iterations =  3.0

     negative rho (up, down):  2.304E-03 0.000E+00

     total cpu time spent up to now is    19467.5 secs

     total energy              =  -12531.91981511 Ry
     Harris-Foulkes estimate   =  -12531.91981551 Ry
     estimated scf accuracy    <       0.00000123 Ry

     iteration # 40     ecut=    80.00 Ry     beta=0.70
     Davidson diagonalization with overlap
     ethr =  9.97E-11,  avg # of iterations =  2.8

     negative rho (up, down):  2.223E-03 0.000E+00

     total cpu time spent up to now is    19828.1 secs

     total energy              =  -12531.91981521 Ry
     Harris-Foulkes estimate   =  -12531.91981528 Ry
     estimated scf accuracy    <       0.00000045 Ry

     iteration # 41     ecut=    80.00 Ry     beta=0.70
     Davidson diagonalization with overlap
     ethr =  3.69E-11,  avg # of iterations =  2.8

     negative rho (up, down):  2.161E-03 0.000E+00

     total cpu time spent up to now is    20178.9 secs

     total energy              =  -12531.91981531 Ry
     Harris-Foulkes estimate   =  -12531.91981526 Ry
     estimated scf accuracy    <       0.00000007 Ry

     iteration # 42     ecut=    80.00 Ry     beta=0.70
     Davidson diagonalization with overlap
     ethr =  5.82E-12,  avg # of iterations =  3.0

     negative rho (up, down):  2.169E-03 0.000E+00

     total cpu time spent up to now is    20669.5 secs

     total energy              =  -12531.91981533 Ry
     Harris-Foulkes estimate   =  -12531.91981532 Ry
     estimated scf accuracy    <       0.00000003 Ry

     iteration # 43     ecut=    80.00 Ry     beta=0.70
     Davidson diagonalization with overlap
     ethr =  2.12E-12,  avg # of iterations =  3.0

     negative rho (up, down):  2.157E-03 0.000E+00

     total cpu time spent up to now is    21012.2 secs

     End of self-consistent calculation

          k = 0.0000 0.0000 0.0000 (256287 PWs)   bands (ev):

   -23.8489 -16.2606 -15.6983 -14.9863 -14.4531 -14.3058 -14.2119 -13.7560
   -13.6596 -13.2585 -12.8983 -12.6109 -11.9218 -11.7520 -11.2758 -10.3742
   -10.0476  -9.2196  -9.0336  -8.8350  -8.5225  -8.1985  -7.8395  -7.5006
    -7.2986  -7.1770  -6.8036  -6.5937  -6.4294  -6.2104  -6.1162  -6.0024
    -5.5994  -5.5955  -5.5647  -5.3731  -5.3013  -5.1075  -4.8488  -4.7096
    -4.5841  -4.4116  -4.3798  -4.1107  -4.0970  -3.9270  -3.7876  -3.5998
    -3.5197  -3.5144  -3.4123  -3.3017  -3.2173  -3.1722  -3.1377  -3.1264
    -3.1208  -3.1152  -3.1129  -3.0878  -3.0351  -2.9309  -2.8677  -2.8391
    -2.7966  -2.7241  -2.7167  -2.6985  -2.6515  -2.4712  -2.4636  -2.4545
    -2.4337  -2.3124  -2.3083  -2.3051  -2.2963  -2.2745  -2.2661  -2.2658
    -2.2625  -2.2619  -2.1429  -2.1408  -2.1343  -2.1329  -2.0851  -2.0108
    -1.9768  -1.9645  -1.8968  -1.8913  -1.8604  -1.8565  -1.8456  -1.8335
    -1.8104  -1.7906  -1.7826  -1.7687  -1.7639  -1.7467  -1.7365  -1.6945
    -1.6929  -1.6893  -1.6817  -1.6667  -1.6406  -1.6318  -1.6261  -1.6252
    -1.6067  -1.5715  -1.5686  -1.5345  -1.5300  -1.5005  -1.4856  -1.4674
    -1.4406  -1.4162  -1.4125  -1.3901  -1.3791  -1.3762  -1.3618  -1.3271
    -1.3251  -1.3103  -1.3005  -1.2862  -1.2749  -1.2308  -1.1941  -1.1704
    -1.1695  -1.1576  -1.1558  -1.1547  -1.1513  -1.1505  -1.1435  -1.1422
    -1.1387  -1.1320  -1.1223  -1.1214  -1.1192  -1.1098  -1.0963  -1.0724
    -1.0599  -1.0585  -1.0504  -1.0403  -1.0369  -1.0335  -0.9897  -0.9866
    -0.9845  -0.9818  -0.9776  -0.9753  -0.9740  -0.9700  -0.9659  -0.9635
    -0.9625  -0.9616  -0.9593  -0.9563  -0.9541  -0.9523  -0.9453  -0.9033
    -0.8811  -0.8142  -0.8139  -0.8059  -0.7979  -0.7962  -0.7887  -0.7825
    -0.7620  -0.7593  -0.7476  -0.7388  -0.7292  -0.7261  -0.7245  -0.7220
    -0.7124  -0.6900  -0.6853  -0.6818  -0.6763  -0.6750  -0.6719  -0.6714
    -0.6666  -0.6631  -0.6163  -0.6083  -0.5616  -0.5587  -0.5549  -0.5525
    -0.5517  -0.5475  -0.5385  -0.5361  -0.5275  -0.5248  -0.5222  -0.5204
    -0.5193  -0.5191  -0.5181  -0.5155  -0.5092  -0.5065  -0.5053  -0.5040
    -0.4864  -0.4660  -0.4620  -0.4417  -0.4304  -0.4187  -0.4172  -0.4126
    -0.4112  -0.3888  -0.3872  -0.3827  -0.3823  -0.3738  -0.3720  -0.3668
    -0.3632  -0.3614  -0.3517  -0.3492  -0.3478  -0.3444  -0.3401  -0.3398
    -0.3352  -0.3294  -0.3290  -0.3283  -0.3191  -0.3155  -0.3065  -0.3025
    -0.2921  -0.2714  -0.2590  -0.2439  -0.2434  -0.2418  -0.2382  -0.2368
    -0.2084  -0.1996  -0.1944  -0.1924  -0.1862  -0.1823  -0.1813  -0.1790
    -0.1775  -0.1771  -0.1589  -0.1415  -0.1398  -0.1328  -0.1286  -0.1268
    -0.1180  -0.1122  -0.1032  -0.1019  -0.0963  -0.0902  -0.0810  -0.0770
    -0.0766  -0.0741  -0.0711  -0.0708  -0.0665  -0.0657  -0.0605  -0.0598
    -0.0512  -0.0403  -0.0366  -0.0329  -0.0234  -0.0169   0.0075   0.0163
     0.0321   0.0374   0.0426   0.0459   0.0587   0.0666   0.1026   0.1074
     0.1101   0.1207   0.1239   0.1311   0.1342   0.1386   0.1441   0.1483
     0.1521   0.1528   0.1633   0.1730   0.1995   0.2097   0.2108   0.2125
     0.2195   0.2278   0.2310   0.2355   0.2490   0.2515   0.2547   0.2581
     0.2621   0.2778   0.2866   0.3015   0.3036   0.3085   0.3109   0.3180
     0.3186   0.3457   0.3487   0.3629   0.3640   0.3697   0.3749   0.3794
     0.3827   0.3852   0.3889   0.3910   0.4007   0.4030   0.4055   0.4109
     0.4114   0.4164   0.4169   0.4203   0.4239   0.4248   0.4292   0.4301
     0.4341   0.4432   0.4453   0.4720   0.4755   0.4762   0.4801   0.4842
     0.4940   0.5063   0.5189   0.5207   0.5223   0.5256   0.5266   0.5294
     0.5323   0.5338   0.5498   0.5511   0.5533   0.5579   0.5601   0.5626
     0.5636   0.5643   0.5696   0.5724   0.5807   0.5860   0.5869   0.6020
     0.6034   0.6051   0.6147   0.6171   0.6174   0.6194   0.6234   0.6306
     0.6315   0.6383   0.6508   0.6605   0.6797   0.6830   0.6895   0.6921
     0.6932   0.6977   0.7020   0.7043   0.7279   0.7323   0.7379   0.7446
     0.7525   0.7528   0.7607   0.7642   0.7664   0.7694   0.7724   0.7737
     0.7842   0.7868   0.7925   0.7961   0.8009   0.8062   0.8111   0.8148
     0.8190   0.8319   0.8371   0.8476   0.8495   0.8558   0.8620   0.8637
     0.8647   0.8797   0.8824   0.8834   0.8861   0.8879   0.8905   0.8945
     0.8957   0.8993   0.9055   0.9059   0.9086   0.9114   0.9130   0.9230
     0.9276   0.9285   0.9410   0.9466   0.9523   0.9548   0.9582   0.9650
     0.9703   0.9738   0.9803   0.9841   0.9847   0.9868   0.9876   0.9906
     0.9913   0.9943   1.0064   1.0079   1.0096   1.0115   1.0384   1.0401
     1.0442   1.0589   1.0680   1.0694   1.0759   1.0789   1.0805   1.0815
     1.0845   1.0865   1.0886   1.0959   1.1061   1.1089   1.1138   1.1162
     1.1214   1.1221   1.1275   1.1315   1.1357   1.1378   1.1442   1.1466
     1.1531   1.1551   1.1559   1.1575   1.1582   1.1657   1.1668   1.1743
     1.1761   1.1778   1.1813   1.1848   1.1854   1.1861   1.1863   1.1900
     1.1951   1.2009   1.2145   1.2215   1.2232   1.2234   1.2297   1.2349
     1.2401   1.2487   1.2503   1.2568   1.2648   1.2702   1.2751   1.2794
     1.2813   1.2844   1.2881   1.2918   1.2939   1.2952   1.3007   1.3017
     1.3043   1.3081   1.3123   1.3167   1.3173   1.3232   1.3260   1.3309
     1.3384   1.3423   1.3433   1.3445   1.3495   1.3526   1.3569   1.3585
     1.3629   1.3833   1.3906   1.3937   1.4267   1.4316   1.4348   1.4410
     1.4417   1.4477   1.4550   1.4618   1.4763   1.4870   1.4968   1.5009
     1.5021   1.5135   1.5194   1.5236   1.5309   1.5352   1.7687   1.8264
     1.9062   1.9337   1.9559   2.0131   2.0207   2.0584   2.0757   2.0817
     2.0841   2.0864   2.0978   2.1054   2.1523   2.2101   2.3043   2.3233
     2.3293   2.3309   2.3436   2.3560   2.3780   2.4058   2.5841   2.5871
     2.6156   2.6805   2.9490   3.3158   3.3708   3.4778   3.5967   3.6491
     3.6703   3.6833   3.7132   3.7151   3.7496   3.8012   3.8238   3.8390
     3.8439   3.8530   3.8854   3.8905   3.9134   3.9250   3.9517   4.0907
     4.0950   4.1570   4.1866   4.2776   4.6574   4.7924   4.9895   5.0719
     5.0937   5.1658   5.2722   5.4586   5.5060   5.6090   5.6211   5.6857
     5.7832   5.8328   5.9842   6.0459   6.1700   6.2017   6.2387   6.3083
     6.3267   6.3380   6.3698   6.4925   6.5333   6.5656   6.5830   6.6177
     6.6519   6.7324   6.8295   6.8852   6.9021   6.9357   7.0068   7.0388
     7.1733   7.1976   7.2186   7.2334   7.3009   7.3834   7.4622   7.4836
     7.5275   7.5636   7.5815   7.5946   7.7120   7.8068   7.8530   7.8866
     7.9608   7.9792   7.9821   8.0662   8.1688   8.1851   8.2153   8.2218
     8.2595   8.2729   8.3218   8.3397   8.4035   8.4098   8.4288   8.4455
     8.4980   8.5709   8.6351   8.6628   8.6848   8.7102   8.7388   8.7573
     8.7760   8.8051   8.8290   8.8547   8.9316   8.9421   8.9720   9.0346
     9.1367   9.1655   9.1946   9.2080   9.2440   9.2885   9.4268   9.4502
     9.4774   9.5241   9.5611

          k = 0.0000-0.2165 0.0000 (256176 PWs)   bands (ev):

   -23.8489 -16.2606 -15.6983 -14.9863 -14.4531 -14.3058 -14.2119 -13.7560
   -13.6596 -13.2585 -12.8983 -12.6109 -11.9218 -11.7520 -11.2758 -10.3741
   -10.0476  -9.2198  -9.0336  -8.8350  -8.5225  -8.1985  -7.8395  -7.5003
    -7.2986  -7.1767  -6.8035  -6.5937  -6.4284  -6.2101  -6.0039  -5.9966
    -5.9745  -5.5761  -5.3736  -5.3021  -5.0621  -4.9558  -4.9351  -4.9103
    -4.8281  -4.5181  -4.4090  -4.1606  -3.9282  -3.7907  -3.7380  -3.5997
    -3.4233  -3.4197  -3.4066  -3.4018  -3.3179  -3.2267  -3.2200  -3.1730
    -3.1425  -3.1384  -3.0888  -3.0367  -2.9601  -2.8655  -2.7212  -2.7117
    -2.7045  -2.6918  -2.6903  -2.6816  -2.6692  -2.6548  -2.5799  -2.5708
    -2.3858  -2.3722  -2.3614  -2.3292  -2.3155  -2.2877  -2.2671  -2.2644
    -2.2523  -2.2478  -2.2348  -2.1018  -2.1013  -2.0743  -2.0741  -2.0470
    -1.9863  -1.9721  -1.9395  -1.8974  -1.8830  -1.8751  -1.8632  -1.8603
    -1.8589  -1.8437  -1.8331  -1.8156  -1.7978  -1.7768  -1.7571  -1.7508
    -1.7425  -1.7192  -1.6271  -1.5971  -1.5810  -1.5782  -1.5687  -1.5037
    -1.5019  -1.4971  -1.4914  -1.4881  -1.4331  -1.4297  -1.4161  -1.3990
    -1.3942  -1.3905  -1.3875  -1.3834  -1.3812  -1.3702  -1.3555  -1.3518
    -1.3462  -1.3401  -1.3368  -1.3317  -1.3259  -1.2938  -1.2784  -1.2662
    -1.2536  -1.2393  -1.2042  -1.2025  -1.1679  -1.1649  -1.1617  -1.1614
    -1.1329  -1.1193  -1.1088  -1.1055  -1.1030  -1.0964  -1.0957  -1.0857
    -1.0636  -1.0513  -1.0432  -1.0399  -1.0366  -1.0338  -1.0309  -1.0302
    -1.0272  -1.0164  -1.0029  -0.9858  -0.9583  -0.9517  -0.9413  -0.9400
    -0.9391  -0.9327  -0.9194  -0.9189  -0.9073  -0.8952  -0.8770  -0.8752
    -0.8746  -0.8654  -0.8480  -0.7915  -0.7788  -0.7773  -0.7608  -0.7570
    -0.7473  -0.7464  -0.7342  -0.7268  -0.7229  -0.7161  -0.7152  -0.7144
    -0.7022  -0.6997  -0.6849  -0.6723  -0.6674  -0.6603  -0.6592  -0.6569
    -0.6542  -0.6527  -0.6469  -0.6277  -0.6192  -0.6174  -0.6162  -0.6125
    -0.5806  -0.5751  -0.5733  -0.5717  -0.5686  -0.5650  -0.5636  -0.5420
    -0.5388  -0.5168  -0.5057  -0.4894  -0.4883  -0.4810  -0.4641  -0.4626
    -0.4518  -0.4443  -0.4328  -0.4238  -0.4227  -0.4186  -0.4134  -0.4112
    -0.4095  -0.4050  -0.4006  -0.3852  -0.3817  -0.3762  -0.3739  -0.3717
    -0.3690  -0.3684  -0.3647  -0.3588  -0.3519  -0.3383  -0.3362  -0.3321
    -0.3309  -0.3203  -0.3192  -0.2923  -0.2760  -0.2671  -0.2658  -0.2629
    -0.2594  -0.2578  -0.2546  -0.2495  -0.2469  -0.2328  -0.2296  -0.2248
    -0.2172  -0.2129  -0.2066  -0.2056  -0.2043  -0.2013  -0.1995  -0.1932
    -0.1898  -0.1830  -0.1498  -0.1458  -0.1451  -0.1369  -0.1353  -0.1261
    -0.1216  -0.1176  -0.1088  -0.1062  -0.1022  -0.0961  -0.0908  -0.0904
    -0.0885  -0.0806  -0.0687  -0.0615  -0.0529  -0.0502  -0.0500  -0.0442
    -0.0263  -0.0252  -0.0205  -0.0085  -0.0078  -0.0040  -0.0030   0.0021
     0.0056   0.0107   0.0378   0.0441   0.0507   0.0578   0.0717   0.0778
     0.0829   0.0834   0.0851   0.0883   0.0999   0.1018   0.1328   0.1437
     0.1451   0.1495   0.1723   0.1985   0.2013   0.2084   0.2399   0.2509
     0.2545   0.2651   0.2677   0.2730   0.2795   0.2825   0.2932   0.2959
     0.3076   0.3098   0.3125   0.3142   0.3205   0.3235   0.3328   0.3391
     0.3397   0.3433   0.3484   0.3512   0.3532   0.3557   0.3572   0.3603
     0.3755   0.3779   0.3904   0.3935   0.3982   0.3989   0.4054   0.4058
     0.4068   0.4084   0.4150   0.4205   0.4252   0.4269   0.4336   0.4360
     0.4405   0.4409   0.4473   0.4483   0.4544   0.4589   0.4616   0.4620
     0.4635   0.4640   0.4747   0.4847   0.5039   0.5145   0.5198   0.5294
     0.5307   0.5317   0.5321   0.5401   0.5424   0.5433   0.5491   0.5538
     0.5550   0.5554   0.5565   0.5611   0.5806   0.5871   0.5939   0.5978
     0.6022   0.6059   0.6083   0.6149   0.6202   0.6250   0.6268   0.6380
     0.6422   0.6439   0.6476   0.6539   0.6587   0.6605   0.6850   0.7064
     0.7104   0.7273   0.7535   0.7542   0.7580   0.7637   0.7683   0.7707
     0.7728   0.7762   0.7806   0.7839   0.7871   0.7895   0.7923   0.7951
     0.7973   0.8002   0.8035   0.8087   0.8104   0.8131   0.8179   0.8235
     0.8272   0.8331   0.8342   0.8350   0.8359   0.8363   0.8412   0.8428
     0.8490   0.8529   0.8575   0.8586   0.8590   0.8621   0.8626   0.8672
     0.8689   0.8729   0.8871   0.8888   0.8972   0.8993   0.9028   0.9055
     0.9067   0.9089   0.9111   0.9145   0.9151   0.9188   0.9241   0.9256
     0.9551   0.9595   0.9943   1.0014   1.0031   1.0050   1.0143   1.0173
     1.0201   1.0247   1.0396   1.0417   1.0430   1.0442   1.0518   1.0545
     1.0575   1.0591   1.0598   1.0675   1.0719   1.0731   1.0775   1.0799
     1.0812   1.0822   1.0839   1.0849   1.0864   1.0939   1.0985   1.1008
     1.1039   1.1069   1.1083   1.1135   1.1144   1.1299   1.1361   1.1382
     1.1398   1.1425   1.1465   1.1484   1.1526   1.1541   1.1646   1.1667
     1.1701   1.1738   1.1750   1.1814   1.1834   1.1896   1.1898   1.1968
     1.2028   1.2089   1.2142   1.2207   1.2250   1.2267   1.2280   1.2364
     1.2435   1.2490   1.2530   1.2551   1.2597   1.2600   1.2641   1.2647
     1.2652   1.2702   1.2824   1.2879   1.2943   1.2974   1.3034   1.3043
     1.3138   1.3187   1.3203   1.3220   1.3230   1.3252   1.3295   1.3311
     1.3515   1.3544   1.3589   1.3602   1.3677   1.3760   1.3824   1.3857
     1.3879   1.3943   1.4005   1.4018   1.4052   1.4100   1.4183   1.4298
     1.4624   1.4684   1.4704   1.4779   1.5100   1.5661   1.5970   1.6081
     1.6174   1.6219   1.6389   1.6450   1.6493   1.6577   1.6727   1.6804
     1.6898   1.6901   1.6943   1.7012   1.7229   1.7250   2.0445   2.2060
     2.2449   2.2596   2.3211   2.3306   2.3600   2.3738   2.4339   2.4411
     2.4597   2.4606   2.5010   2.5361   2.5631   2.5739   2.5863   2.6045
     2.6588   2.6764   2.7947   2.8007   3.0312   3.0312   3.0441   3.0617
     3.1462   3.3117   3.4970   3.5218   3.5490   3.7362   3.8847   3.9169
     4.0076   4.0165   4.1319   4.1841   4.1933   4.2039   4.2147   4.2689
     4.3684   4.5886   4.6829   4.6989   4.8708   4.9172   4.9866   5.0315
     5.1268   5.1859   5.2259   5.2306   5.2642   5.2669   5.3669   5.4720
     5.6114   6.0343   6.0395   6.0714   6.1046   6.2413   6.2993   6.3219
     6.3448   6.3921   6.4438   6.4942   6.5285   6.5558   6.6114   6.6529
     6.7242   6.7865   6.8652   6.9132   6.9460   6.9605   6.9754   6.9871
     6.9995   7.0086   7.0213   7.0883   7.1952   7.2263   7.2641   7.2790
     7.4219   7.4343   7.4701   7.6134   7.6467   7.7076   7.8024   7.8927
     7.9249   7.9692   8.0185   8.0325   8.1366   8.2189   8.2256   8.2371
     8.3139   8.3751   8.3886   8.5264   8.5463   8.5549   8.5717   8.5938
     8.6088   8.6245   8.6302   8.6428   8.7407   8.7631   8.8012   8.8425
     8.8453   8.9200   8.9489   8.9916   9.0125   9.1168   9.1923   9.2108
     9.2440   9.2568   9.2642   9.2931   9.3058   9.3377   9.3842   9.4843
     9.5061   9.5467   9.6479

          k = 0.2500 0.0000 0.0000 (256240 PWs)   bands (ev):

   -23.8489 -16.1381 -15.5860 -15.1804 -14.9223 -14.5916 -14.2097 -13.5950
   -13.2389 -13.0899 -12.6816 -12.3226 -11.8799 -11.6437 -11.0062 -10.7774
   -10.1320  -9.8105  -9.3854  -9.1636  -8.9057  -8.4172  -8.0756  -7.3142
    -7.0555  -6.8937  -6.5981  -6.4153  -6.2683  -6.0917  -5.9414  -5.6965
    -5.4263  -5.4151  -5.3406  -5.1048  -4.9464  -4.8150  -4.5761  -4.5550
    -4.4360  -4.3143  -4.2434  -4.2150  -4.1150  -4.1047  -3.9642  -3.9507
    -3.9051  -3.8137  -3.7182  -3.6997  -3.6628  -3.5200  -3.3609  -3.3077
    -3.2644  -3.2203  -3.1821  -3.1199  -3.0946  -3.0394  -3.0308  -2.9152
    -2.9117  -2.8372  -2.8024  -2.7476  -2.7158  -2.6230  -2.5125  -2.4466
    -2.4250  -2.2711  -2.2182  -2.2129  -2.1982  -2.1927  -2.1871  -2.0823
    -2.0459  -2.0081  -1.9899  -1.9683  -1.9336  -1.9201  -1.9178  -1.9139
    -1.9096  -1.9048  -1.9008  -1.8878  -1.8758  -1.8390  -1.8043  -1.7818
    -1.7636  -1.7590  -1.7382  -1.7218  -1.6996  -1.6982  -1.6965  -1.6946
    -1.6843  -1.6768  -1.6714  -1.6389  -1.6212  -1.6167  -1.6120  -1.6089
    -1.4919  -1.4627  -1.4548  -1.4452  -1.4276  -1.4097  -1.3791  -1.3770
    -1.3667  -1.3605  -1.3534  -1.3473  -1.3289  -1.3259  -1.3086  -1.3017
    -1.2936  -1.2905  -1.2805  -1.2688  -1.2640  -1.2542  -1.2483  -1.2446
    -1.2346  -1.2315  -1.2254  -1.2222  -1.1994  -1.1840  -1.1794  -1.1653
    -1.1487  -1.1438  -1.1390  -1.1345  -1.1282  -1.1241  -1.1226  -1.1183
    -1.1116  -1.1086  -1.1069  -1.1032  -1.0974  -1.0957  -1.0931  -1.0912
    -1.0873  -1.0844  -1.0662  -1.0618  -1.0336  -1.0293  -1.0149  -1.0095
    -0.9757  -0.9730  -0.9309  -0.9301  -0.9205  -0.9137  -0.9097  -0.8896
    -0.8882  -0.8815  -0.8748  -0.8693  -0.8653  -0.8635  -0.8606  -0.8543
    -0.8448  -0.7416  -0.7334  -0.7257  -0.7166  -0.7076  -0.6938  -0.6889
    -0.6879  -0.6788  -0.6745  -0.6709  -0.6660  -0.6624  -0.6584  -0.6526
    -0.6516  -0.6451  -0.6225  -0.6156  -0.6132  -0.6103  -0.6056  -0.5988
    -0.5871  -0.5809  -0.5797  -0.5737  -0.5679  -0.5574  -0.5250  -0.5201
    -0.5164  -0.5145  -0.5101  -0.5065  -0.5030  -0.5004  -0.4885  -0.4788
    -0.4744  -0.4616  -0.4608  -0.4548  -0.4457  -0.4214  -0.4204  -0.4121
    -0.4087  -0.4044  -0.4025  -0.3970  -0.3910  -0.3820  -0.3699  -0.3672
    -0.3645  -0.3544  -0.3437  -0.3381  -0.3307  -0.3232  -0.3184  -0.3159
    -0.3135  -0.3045  -0.3029  -0.2939  -0.2795  -0.2775  -0.2718  -0.2579
    -0.2510  -0.2393  -0.2375  -0.2348  -0.2285  -0.2152  -0.1942  -0.1923
    -0.1882  -0.1803  -0.1742  -0.1612  -0.1592  -0.1506  -0.1448  -0.1379
    -0.1347  -0.1322  -0.1274  -0.1212  -0.1176  -0.1166  -0.1128  -0.1109
    -0.1094  -0.1074  -0.1011  -0.0947  -0.0907  -0.0890  -0.0856  -0.0796
    -0.0718  -0.0648  -0.0566  -0.0511  -0.0433  -0.0374  -0.0250  -0.0124
    -0.0092  -0.0066  -0.0048   0.0039   0.0059   0.0119   0.0159   0.0183
     0.0224   0.0267   0.0543   0.0582   0.0991   0.1156   0.1264   0.1288
     0.1316   0.1383   0.1455   0.1465   0.1507   0.1538   0.1583   0.1609
     0.1628   0.1685   0.1710   0.1735   0.1773   0.1778   0.1808   0.1865
     0.1917   0.1970   0.2051   0.2072   0.2087   0.2159   0.2234   0.2273
     0.2335   0.2395   0.2425   0.2799   0.2876   0.2919   0.2961   0.3033
     0.3111   0.3136   0.3167   0.3219   0.3237   0.3378   0.3427   0.3477
     0.3489   0.3573   0.3619   0.3685   0.3701   0.3721   0.3763   0.3789
     0.3860   0.3930   0.3989   0.4010   0.4060   0.4097   0.4243   0.4252
     0.4264   0.4308   0.4335   0.4438   0.4483   0.4552   0.4568   0.4599
     0.4619   0.4692   0.4765   0.4797   0.4815   0.4840   0.4875   0.4934
     0.5012   0.5126   0.5149   0.5223   0.5265   0.5314   0.5364   0.5410
     0.5424   0.5474   0.5555   0.5737   0.5844   0.5932   0.6029   0.6126
     0.6149   0.6173   0.6220   0.6267   0.6322   0.6378   0.6419   0.6473
     0.6529   0.6559   0.6590   0.6613   0.6673   0.6826   0.6897   0.6952
     0.6982   0.7020   0.7052   0.7145   0.7229   0.7250   0.7348   0.7377
     0.7429   0.7547   0.7580   0.7607   0.7629   0.7644   0.7656   0.7678
     0.7701   0.7762   0.7844   0.7913   0.8119   0.8210   0.8232   0.8298
     0.8370   0.8400   0.8456   0.8497   0.8536   0.8622   0.8655   0.8697
     0.8735   0.8749   0.8773   0.8796   0.8845   0.8882   0.8888   0.8919
     0.8925   0.8957   0.8982   0.9008   0.9070   0.9085   0.9098   0.9124
     0.9141   0.9247   0.9306   0.9329   0.9383   0.9405   0.9437   0.9459
     0.9508   0.9569   0.9641   0.9693   0.9710   0.9772   0.9804   0.9827
     0.9849   0.9863   0.9937   0.9985   1.0025   1.0045   1.0098   1.0127
     1.0246   1.0288   1.0337   1.0355   1.0519   1.0596   1.0614   1.0631
     1.0689   1.0732   1.0753   1.0859   1.0986   1.1054   1.1142   1.1160
     1.1194   1.1255   1.1297   1.1313   1.1330   1.1339   1.1425   1.1494
     1.1515   1.1576   1.1611   1.1629   1.1651   1.1696   1.1709   1.1743
     1.1762   1.1790   1.1797   1.1879   1.1898   1.1949   1.1975   1.1992
     1.2042   1.2068   1.2102   1.2214   1.2245   1.2262   1.2317   1.2332
     1.2394   1.2434   1.2503   1.2529   1.2543   1.2683   1.2702   1.2715
     1.2768   1.2893   1.2906   1.2925   1.2950   1.2986   1.3007   1.3016
     1.3033   1.3070   1.3083   1.3116   1.3126   1.3160   1.3186   1.3271
     1.3341   1.3363   1.3417   1.3433   1.3457   1.3517   1.3553   1.3581
     1.3612   1.3634   1.3677   1.3795   1.3811   1.3909   1.3936   1.3972
     1.4178   1.4192   1.4338   1.4531   1.4644   1.4873   1.4946   1.4956
     1.5007   1.5126   1.5297   1.5685   1.6175   1.6346   1.6364   1.6558
     1.6620   1.6798   1.7075   1.9022   1.9101   1.9218   1.9384   1.9509
     1.9874   2.0485   2.0786   2.1540   2.4064   2.4192   2.4270   2.4318
     2.6809   2.8438   2.8517   2.8613   2.9465   3.0614   3.0723   3.0914
     3.0919   3.1193   3.1860   3.2202   3.3409   3.3953   3.4872   3.4993
     3.5174   3.5595   3.5643   3.6112   3.6333   3.6784   3.7076   3.7352
     3.8012   3.8491   3.8848   4.1098   4.1326   4.1611   4.3123   4.5143
     4.5732   4.6833   4.7134   4.8734   4.9406   5.0158   5.0802   5.1183
     5.1526   5.1825   5.3145   5.3310   5.3388   5.3551   5.3647   5.3930
     5.5038   5.5348   5.6208   5.6697   5.7015   5.7835   5.8487   5.8817
     5.8908   5.8983   6.0337   6.0961   6.4099   6.4973   6.5510   6.5775
     6.6172   6.6458   6.7157   6.8350   6.8624   6.8909   6.9050   6.9074
     6.9181   7.0029   7.0762   7.1180   7.1381   7.1918   7.2722   7.2971
     7.3428   7.3739   7.4098   7.4323   7.5034   7.5253   7.6211   7.6442
     7.7933   7.8315   7.8879   7.9203   7.9444   7.9792   8.0043   8.0604
     8.0847   8.1249   8.1431   8.1615   8.2024   8.2333   8.2753   8.3975
     8.4703   8.4880   8.5044   8.5641   8.5991   8.6488   8.7778   8.8477
     8.9035   8.9254   8.9505   8.9695   8.9971   9.0006   9.0184   9.0239
     9.0618   9.0858   9.1052   9.1447   9.2183   9.2951   9.3274   9.3547
     9.3799   9.4035   9.4312

          k = 0.2500-0.2165 0.0000 (256316 PWs)   bands (ev):

   -23.8489 -16.1381 -15.5860 -15.1804 -14.9223 -14.5916 -14.2097 -13.5950
   -13.2389 -13.0899 -12.6816 -12.3226 -11.8799 -11.6437 -11.0062 -10.7774
   -10.1320  -9.8105  -9.3854  -9.1637  -8.9058  -8.4173  -8.0756  -7.3136
    -7.0555  -6.8933  -6.5981  -6.4150  -6.2683  -6.0917  -5.8211  -5.8012
    -5.6956  -5.3432  -5.1076  -4.9037  -4.8180  -4.7919  -4.7720  -4.7248
    -4.4661  -4.4492  -4.3778  -4.3045  -4.2268  -4.0263  -3.9041  -3.7958
    -3.7177  -3.7048  -3.6690  -3.6005  -3.5736  -3.5552  -3.5114  -3.4830
    -3.2562  -3.2173  -3.1878  -3.0967  -3.0851  -3.0421  -3.0185  -3.0169
    -2.9695  -2.8459  -2.8018  -2.7943  -2.6257  -2.4328  -2.4208  -2.3191
    -2.3128  -2.3067  -2.2825  -2.2821  -2.2727  -2.2133  -2.1393  -2.1301
    -2.1260  -2.1153  -2.0610  -2.0340  -1.9533  -1.9390  -1.9263  -1.9254
    -1.9049  -1.8606  -1.8526  -1.8392  -1.8286  -1.8214  -1.8190  -1.8117
    -1.7993  -1.7939  -1.7915  -1.7895  -1.7885  -1.7791  -1.7631  -1.7187
    -1.6960  -1.6878  -1.6012  -1.5873  -1.5839  -1.5129  -1.4516  -1.4499
    -1.4453  -1.4080  -1.3943  -1.3934  -1.3853  -1.3789  -1.3780  -1.3707
    -1.3686  -1.3558  -1.3547  -1.3542  -1.3509  -1.3432  -1.3379  -1.3327
    -1.3217  -1.3174  -1.3093  -1.3033  -1.3004  -1.2917  -1.2838  -1.2513
    -1.2488  -1.2429  -1.2314  -1.2276  -1.2269  -1.2198  -1.2136  -1.1953
    -1.1653  -1.1640  -1.1594  -1.1507  -1.1467  -1.1396  -1.1233  -1.1123
    -1.1114  -1.1041  -1.1016  -1.0885  -1.0842  -1.0817  -1.0785  -1.0771
    -1.0727  -1.0690  -1.0487  -1.0415  -1.0374  -1.0280  -0.9998  -0.9919
    -0.9795  -0.9771  -0.9730  -0.9107  -0.9015  -0.8986  -0.8916  -0.8904
    -0.8780  -0.8489  -0.8450  -0.8416  -0.8347  -0.8331  -0.8254  -0.8202
    -0.8175  -0.8089  -0.7741  -0.7698  -0.7436  -0.7361  -0.7297  -0.7080
    -0.6953  -0.6922  -0.6822  -0.6799  -0.6783  -0.6597  -0.6583  -0.6569
    -0.6370  -0.6321  -0.6275  -0.6210  -0.6138  -0.6078  -0.6021  -0.5847
    -0.5734  -0.5677  -0.5609  -0.5492  -0.5477  -0.5358  -0.5321  -0.5309
    -0.5217  -0.5130  -0.5091  -0.5080  -0.4987  -0.4958  -0.4903  -0.4889
    -0.4825  -0.4777  -0.4757  -0.4719  -0.4655  -0.4551  -0.4498  -0.4374
    -0.4367  -0.4151  -0.4082  -0.3999  -0.3879  -0.3850  -0.3766  -0.3703
    -0.3627  -0.3604  -0.3490  -0.3435  -0.3407  -0.3373  -0.3314  -0.3150
    -0.3054  -0.2822  -0.2788  -0.2591  -0.2443  -0.2339  -0.2327  -0.2313
    -0.2299  -0.2266  -0.2155  -0.2110  -0.1983  -0.1953  -0.1925  -0.1903
    -0.1814  -0.1803  -0.1737  -0.1695  -0.1615  -0.1547  -0.1500  -0.1437
    -0.1410  -0.1324  -0.1314  -0.1266  -0.1249  -0.1220  -0.1174  -0.1154
    -0.1138  -0.1104  -0.1021  -0.0982  -0.0937  -0.0926  -0.0911  -0.0896
    -0.0648  -0.0582  -0.0563  -0.0516  -0.0453  -0.0404  -0.0342  -0.0199
    -0.0136   0.0030   0.0054   0.0129   0.0172   0.0208   0.0241   0.0255
     0.0280   0.0401   0.0439   0.0511   0.0536   0.0634   0.0764   0.0806
     0.1171   0.1362   0.1416   0.1478   0.1503   0.1521   0.1587   0.1625
     0.1661   0.1672   0.1743   0.1808   0.1855   0.1869   0.1949   0.1977
     0.2033   0.2040   0.2086   0.2173   0.2195   0.2308   0.2355   0.2437
     0.2451   0.2493   0.2593   0.2640   0.2677   0.2733   0.2806   0.2930
     0.3035   0.3115   0.3188   0.3213   0.3263   0.3289   0.3370   0.3458
     0.3499   0.3515   0.3550   0.3602   0.3616   0.3658   0.3690   0.3837
     0.3901   0.3932   0.3964   0.4018   0.4048   0.4402   0.4426   0.4441
     0.4476   0.4633   0.4667   0.4698   0.4727   0.4752   0.4814   0.4830
     0.4901   0.4950   0.4972   0.5003   0.5066   0.5161   0.5193   0.5236
     0.5255   0.5277   0.5355   0.5381   0.5395   0.5403   0.5466   0.5491
     0.5554   0.5608   0.5621   0.5649   0.5708   0.5745   0.5813   0.5831
     0.5839   0.5874   0.5891   0.5911   0.5943   0.5987   0.6111   0.6274
     0.6321   0.6337   0.6381   0.6458   0.6607   0.6662   0.6832   0.6858
     0.6964   0.6976   0.6995   0.7028   0.7033   0.7049   0.7179   0.7222
     0.7225   0.7258   0.7295   0.7304   0.7332   0.7387   0.7542   0.7577
     0.7594   0.7678   0.7712   0.7721   0.7812   0.7877   0.7945   0.7968
     0.8009   0.8029   0.8162   0.8285   0.8350   0.8375   0.8394   0.8443
     0.8498   0.8585   0.8671   0.8724   0.8763   0.8843   0.8870   0.8913
     0.9052   0.9114   0.9135   0.9214   0.9266   0.9402   0.9494   0.9539
     0.9571   0.9590   0.9594   0.9605   0.9620   0.9642   0.9654   0.9702
     0.9742   0.9766   0.9790   0.9808   0.9889   0.9920   0.9988   1.0016
     1.0045   1.0196   1.0276   1.0317   1.0351   1.0368   1.0412   1.0429
     1.0466   1.0472   1.0563   1.0585   1.0598   1.0629   1.0660   1.0700
     1.0727   1.0744   1.0774   1.0801   1.0871   1.0904   1.0941   1.0957
     1.0971   1.0985   1.1017   1.1077   1.1172   1.1237   1.1274   1.1379
     1.1421   1.1448   1.1504   1.1517   1.1551   1.1604   1.1678   1.1721
     1.1809   1.1818   1.1840   1.1947   1.1992   1.2009   1.2032   1.2064
     1.2081   1.2135   1.2170   1.2228   1.2250   1.2275   1.2309   1.2422
     1.2457   1.2476   1.2519   1.2542   1.2571   1.2593   1.2617   1.2649
     1.2675   1.2707   1.2742   1.2763   1.2787   1.2833   1.2886   1.2922
     1.3045   1.3064   1.3080   1.3094   1.3127   1.3147   1.3167   1.3183
     1.3256   1.3272   1.3289   1.3296   1.3486   1.3500   1.3523   1.3574
     1.3698   1.3748   1.3778   1.3818   1.3894   1.3962   1.3999   1.4177
     1.4214   1.4226   1.4259   1.4320   1.4567   1.4686   1.4859   1.5128
     1.5368   1.5459   1.5786   1.5906   1.6242   1.6298   1.6442   1.6447
     1.6626   1.6834   1.6990   1.7441   1.7793   1.9928   1.9972   2.0220
     2.0266   2.1253   2.1669   2.4503   2.4578   2.5714   2.5940   2.6275
     2.6468   2.6607   2.6666   2.6740   2.6918   2.7426   2.8420   2.8644
     2.8912   2.9862   3.0495   3.3707   3.4206   3.4432   3.4652   3.4973
     3.5822   3.6749   3.7100   3.7206   3.7423   3.8429   3.8612   3.9383
     3.9636   4.0308   4.0372   4.2395   4.2522   4.3021   4.3333   4.3556
     4.4665   4.5200   4.5426   4.6161   4.7623   4.8697   4.9365   4.9719
     5.0070   5.0825   5.1725   5.1873   5.2580   5.2931   5.3457   5.3596
     5.4372   5.6138   5.6425   5.6746   5.7144   5.7556   5.8699   5.9858
     6.1097   6.2779   6.3323   6.4287   6.4646   6.4950   6.5416   6.6104
     6.6324   6.7151   6.7585   6.7780   6.8016   6.8781   6.9419   6.9712
     7.0017   7.0448   7.0718   7.1019   7.1614   7.1752   7.2094   7.2271
     7.2819   7.3014   7.3303   7.4432   7.5613   7.6044   7.6133   7.6363
     7.7257   7.7732   7.8124   7.8700   7.9284   7.9854   8.0220   8.0454
     8.0627   8.1466   8.1884   8.2910   8.3201   8.3475   8.4254   8.4555
     8.4787   8.4959   8.5248   8.5548   8.5691   8.6551   8.6935   8.7648
     8.7830   8.7983   8.8593   8.8975   8.9460   8.9613   8.9843   9.0108
     9.0596   9.0770   9.1008   9.1139   9.1252   9.1362   9.1675   9.2074
     9.2255   9.2643   9.2766

          k =-0.5000 0.0000 0.0000 (256496 PWs)   bands (ev):

   -23.8489 -15.7792 -15.7673 -15.3090 -15.1866 -14.7061 -14.2715 -13.8323
   -13.0489 -12.6050 -12.0082 -11.9495 -11.6698 -11.5552 -11.4750 -11.2510
   -10.3956 -10.1660  -9.5706  -9.1967  -8.9901  -8.5621  -8.3204  -7.9706
    -7.2493  -6.6321  -6.4027  -6.2262  -5.4209  -5.4122  -5.3919  -5.3495
    -5.1437  -4.9906  -4.9183  -4.9181  -4.9114  -4.9032  -4.8273  -4.7917
    -4.5026  -4.4769  -4.4471  -4.3795  -4.1039  -4.0860  -4.0215  -3.9887
    -3.9721  -3.9474  -3.8087  -3.7771  -3.7066  -3.5691  -3.5429  -3.5365
    -3.5331  -3.5287  -3.4946  -3.4402  -3.3605  -3.3157  -2.9437  -2.8952
    -2.8206  -2.7778  -2.7679  -2.7529  -2.7501  -2.7199  -2.5127  -2.4615
    -2.4318  -2.4056  -2.3929  -2.3630  -2.3322  -2.2626  -1.9961  -1.9953
    -1.9937  -1.9929  -1.9893  -1.9865  -1.9389  -1.9178  -1.8689  -1.8438
    -1.7995  -1.7712  -1.7690  -1.7674  -1.7648  -1.7213  -1.7147  -1.7146
    -1.7123  -1.6811  -1.6297  -1.6236  -1.6090  -1.6008  -1.5669  -1.5493
    -1.5392  -1.5371  -1.5264  -1.5229  -1.4923  -1.4867  -1.4824  -1.4775
    -1.4767  -1.4666  -1.4638  -1.4624  -1.4595  -1.4547  -1.4237  -1.4185
    -1.4178  -1.4122  -1.3880  -1.3869  -1.3819  -1.3806  -1.3562  -1.3277
    -1.3204  -1.3197  -1.3083  -1.3018  -1.3002  -1.2960  -1.2935  -1.2774
    -1.2703  -1.2657  -1.2605  -1.2548  -1.2503  -1.2300  -1.2289  -1.2259
    -1.2255  -1.2026  -1.1990  -1.1955  -1.1735  -1.1704  -1.1563  -1.1323
    -1.1283  -1.1049  -1.1003  -1.0978  -1.0950  -1.0908  -1.0717  -1.0705
    -1.0636  -1.0601  -1.0583  -1.0570  -1.0456  -1.0442  -1.0355  -1.0326
    -1.0264  -1.0228  -0.9734  -0.9672  -0.9637  -0.9561  -0.9547  -0.9175
    -0.9144  -0.8864  -0.8678  -0.8286  -0.8269  -0.8267  -0.8249  -0.7980
    -0.7962  -0.7948  -0.7925  -0.7894  -0.7869  -0.7632  -0.7599  -0.7522
    -0.7496  -0.7371  -0.7335  -0.7314  -0.7306  -0.7265  -0.7252  -0.6994
    -0.6963  -0.6817  -0.6640  -0.5876  -0.5860  -0.5827  -0.5798  -0.5797
    -0.5746  -0.5589  -0.5541  -0.5485  -0.5424  -0.5373  -0.5322  -0.5269
    -0.5205  -0.5039  -0.5029  -0.4948  -0.4937  -0.4794  -0.4701  -0.4571
    -0.4550  -0.4519  -0.4486  -0.4330  -0.4240  -0.4191  -0.4174  -0.4148
    -0.4125  -0.4028  -0.4010  -0.3986  -0.3804  -0.3724  -0.3715  -0.3659
    -0.3653  -0.3397  -0.3319  -0.3277  -0.3262  -0.2687  -0.2641  -0.2621
    -0.2601  -0.2555  -0.2543  -0.2524  -0.2496  -0.2197  -0.2175  -0.2099
    -0.2041  -0.1811  -0.1797  -0.1559  -0.1544  -0.1540  -0.1529  -0.1497
    -0.1489  -0.1467  -0.1459  -0.1451  -0.1428  -0.1408  -0.1398  -0.0931
    -0.0909  -0.0731  -0.0685  -0.0646  -0.0605  -0.0546  -0.0533  -0.0519
    -0.0469  -0.0456  -0.0443  -0.0424  -0.0415  -0.0375  -0.0371  -0.0327
    -0.0293  -0.0251  -0.0238  -0.0175  -0.0136  -0.0121  -0.0106  -0.0101
    -0.0073  -0.0066   0.0016   0.0043   0.0057   0.0059   0.0084   0.0138
     0.0185   0.0239   0.0268   0.0287   0.0303   0.0414   0.0421   0.0587
     0.0601   0.0711   0.1458   0.1520   0.1575   0.1599   0.1615   0.1857
     0.1889   0.1924   0.1962   0.2010   0.2012   0.2054   0.2089   0.2119
     0.2191   0.2221   0.2231   0.2255   0.2260   0.2298   0.2366   0.2400
     0.2425   0.2437   0.2440   0.2466   0.2499   0.2569   0.2580   0.2607
     0.2655   0.2720   0.2788   0.2848   0.2867   0.2951   0.3078   0.3377
     0.3563   0.3588   0.3682   0.3704   0.3717   0.3878   0.3899   0.3922
     0.3927   0.3952   0.3972   0.3993   0.4002   0.4064   0.4094   0.4099
     0.4130   0.4156   0.4174   0.4192   0.4211   0.4229   0.4309   0.4379
     0.4433   0.4573   0.4582   0.4606   0.4654   0.4766   0.4788   0.4940
     0.4959   0.5049   0.5053   0.5094   0.5097   0.5133   0.5144   0.5194
     0.5200   0.5229   0.5236   0.5369   0.5372   0.5385   0.5444   0.5482
     0.5594   0.5615   0.5738   0.5836   0.5850   0.5873   0.5881   0.6001
     0.6035   0.6113   0.6181   0.6244   0.6307   0.6324   0.6443   0.6535
     0.6664   0.6814   0.6913   0.6918   0.6967   0.7071   0.7074   0.7103
     0.7116   0.7124   0.7149   0.7174   0.7186   0.7267   0.7276   0.7435
     0.7441   0.7544   0.7579   0.7645   0.7655   0.7716   0.7781   0.7789
     0.7802   0.7821   0.7829   0.7903   0.7958   0.8054   0.8176   0.8259
     0.8316   0.8620   0.8733   0.8819   0.8831   0.8880   0.8919   0.8964
     0.8977   0.9159   0.9167   0.9195   0.9276   0.9318   0.9329   0.9484
     0.9492   0.9536   0.9565   0.9741   0.9771   0.9791   0.9840   0.9851
     0.9874   0.9929   0.9946   0.9976   0.9996   1.0033   1.0045   1.0056
     1.0067   1.0080   1.0097   1.0161   1.0163   1.0210   1.0247   1.0384
     1.0468   1.0470   1.0478   1.0494   1.0549   1.0637   1.0707   1.0809
     1.0812   1.0846   1.0869   1.1001   1.1038   1.1102   1.1105   1.1155
     1.1159   1.1169   1.1182   1.1193   1.1217   1.1300   1.1319   1.1385
     1.1435   1.1641   1.1653   1.1682   1.1701   1.1824   1.1843   1.1899
     1.1912   1.1918   1.1928   1.1936   1.1955   1.2012   1.2025   1.2033
     1.2042   1.2052   1.2085   1.2089   1.2095   1.2121   1.2130   1.2144
     1.2186   1.2201   1.2231   1.2251   1.2296   1.2369   1.2390   1.2516
     1.2547   1.2591   1.2655   1.2707   1.2727   1.2856   1.2862   1.2872
     1.2900   1.2923   1.2975   1.2988   1.3051   1.3084   1.3108   1.3165
     1.3193   1.3195   1.3208   1.3399   1.3413   1.3452   1.3464   1.3481
     1.3506   1.3507   1.3529   1.3603   1.3681   1.3713   1.3762   1.3842
     1.3848   1.3858   1.3863   1.3884   1.3907   1.3991   1.4028   1.4406
     1.4418   1.4564   1.4580   1.4745   1.4793   1.4825   1.4844   1.8760
     1.8865   1.8899   1.8946   2.0644   2.0983   2.1138   2.1272   2.1566
     2.1611   2.1618   2.1639   2.4137   2.4354   2.4410   2.5102   2.6900
     2.6940   2.6951   2.7048   2.7121   2.9381   3.0521   3.0584   3.0862
     3.1034   3.3659   3.3717   3.5423   3.5705   3.6005   3.6080   3.7671
     3.7753   3.7875   3.7999   3.9238   3.9298   3.9557   3.9795   4.0004
     4.0340   4.4451   4.4593   4.5715   4.5817   4.6122   4.6452   4.6937
     4.7073   4.7549   4.7771   4.8314   4.8532   4.8767   4.8833   4.8927
     4.9125   4.9239   4.9263   4.9615   5.0001   5.0725   5.1552   5.2271
     5.2460   5.3230   5.3460   5.3516   5.3651   5.4711   5.5018   5.7838
     5.7953   5.8497   5.8544   5.8939   5.9114   5.9133   5.9512   6.1169
     6.1372   6.3214   6.3787   6.4280   6.6861   6.8846   6.8966   6.9466
     6.9895   7.0265   7.0406   7.1277   7.3326   7.3692   7.4000   7.4467
     7.4507   7.4680   7.4724   7.5119   7.5545   7.6765   7.6900   7.7009
     7.7083   7.7199   7.7399   7.7631   7.7730   7.7776   7.8099   7.8109
     7.8522   7.8836   7.9096   7.9498   7.9535   8.0009   8.0844   8.1537
     8.1614   8.4416   8.4869   8.5247   8.5374   8.5890   8.6330   8.6402
     8.6585   8.7487   8.7657   8.7787   8.7879   8.8667   8.8871   8.8955
     9.0142   9.0798   9.0908   9.1309   9.1491   9.1686   9.1918   9.2122
     9.2707   9.3038   9.3494

          k =-0.5000-0.2165 0.0000 (256328 PWs)   bands (ev):

   -23.8489 -15.7792 -15.7673 -15.3090 -15.1866 -14.7062 -14.2715 -13.8322
   -13.0489 -12.6051 -12.0082 -11.9495 -11.6698 -11.5551 -11.4749 -11.2510
   -10.3956 -10.1660  -9.5706  -9.1967  -8.9902  -8.5623  -8.3203  -7.9706
    -7.2488  -6.6315  -6.4027  -6.2262  -5.3981  -5.3530  -5.3013  -5.2954
    -5.2776  -5.2729  -5.1430  -4.9903  -4.8274  -4.7945  -4.5006  -4.4429
    -4.4153  -4.3780  -4.3242  -4.3132  -4.3036  -4.2921  -4.2571  -4.2306
    -3.9873  -3.9824  -3.9297  -3.9095  -3.7232  -3.6364  -3.5952  -3.5386
    -3.4992  -3.4080  -3.3732  -3.3513  -3.2557  -3.1851  -2.9293  -2.7671
    -2.7176  -2.6976  -2.6962  -2.6901  -2.6844  -2.6764  -2.6728  -2.6486
    -2.5401  -2.4121  -2.3547  -2.3338  -2.2043  -2.1991  -2.1940  -2.1914
    -2.1492  -2.1348  -2.0799  -2.0402  -1.9240  -1.9188  -1.9138  -1.9087
    -1.8005  -1.7491  -1.7263  -1.7040  -1.7000  -1.6881  -1.6138  -1.6120
    -1.6077  -1.6067  -1.6023  -1.5941  -1.5692  -1.5658  -1.5591  -1.5574
    -1.5525  -1.5374  -1.5087  -1.5065  -1.4974  -1.4939  -1.4935  -1.4923
    -1.4898  -1.4829  -1.4814  -1.4794  -1.4775  -1.4718  -1.4301  -1.4283
    -1.4274  -1.4258  -1.3936  -1.3726  -1.3605  -1.3576  -1.3518  -1.3243
    -1.3085  -1.3079  -1.3067  -1.3059  -1.3027  -1.2864  -1.2855  -1.2727
    -1.2715  -1.2523  -1.2510  -1.2448  -1.2435  -1.2408  -1.2405  -1.2395
    -1.2348  -1.2301  -1.2234  -1.1939  -1.1804  -1.1778  -1.1659  -1.1656
    -1.1628  -1.1623  -1.1613  -1.1592  -1.1554  -1.1515  -1.1480  -1.1424
    -1.1168  -1.0258  -1.0102  -1.0031  -0.9972  -0.9963  -0.9690  -0.9682
    -0.9675  -0.9665  -0.9126  -0.9047  -0.8974  -0.8953  -0.8888  -0.8859
    -0.8840  -0.8827  -0.8794  -0.8778  -0.8658  -0.8592  -0.8334  -0.8215
    -0.8185  -0.8156  -0.8146  -0.8106  -0.8085  -0.8019  -0.7952  -0.7930
    -0.7783  -0.7763  -0.7633  -0.7107  -0.7088  -0.6951  -0.6942  -0.6778
    -0.6679  -0.6637  -0.6520  -0.6244  -0.6231  -0.6193  -0.6178  -0.5735
    -0.5720  -0.5711  -0.5697  -0.5555  -0.5549  -0.5478  -0.5471  -0.5346
    -0.5287  -0.5170  -0.5130  -0.5119  -0.5107  -0.5075  -0.5065  -0.4701
    -0.4621  -0.4415  -0.4223  -0.4013  -0.3990  -0.3862  -0.3854  -0.3775
    -0.3766  -0.3736  -0.3723  -0.3663  -0.3646  -0.3619  -0.3589  -0.3002
    -0.2959  -0.2856  -0.2805  -0.2798  -0.2790  -0.2761  -0.2748  -0.2734
    -0.2717  -0.2706  -0.2639  -0.2410  -0.2404  -0.2389  -0.2361  -0.2323
    -0.2294  -0.2255  -0.2252  -0.2150  -0.2144  -0.2115  -0.2104  -0.1590
    -0.1544  -0.1498  -0.1473  -0.1357  -0.1339  -0.1189  -0.1157  -0.0866
    -0.0847  -0.0741  -0.0740  -0.0659  -0.0623  -0.0532  -0.0484  -0.0479
    -0.0452  -0.0442  -0.0422  -0.0405  -0.0358  -0.0350  -0.0337  -0.0278
    -0.0257  -0.0233  -0.0228  -0.0201  -0.0192  -0.0187  -0.0137  -0.0116
    -0.0070  -0.0045  -0.0005   0.0029   0.0037   0.0221   0.0240   0.0241
     0.0246   0.0296   0.0347   0.0408   0.0411   0.0509   0.0624   0.0772
     0.0880   0.0892   0.0927   0.0971   0.1191   0.1250   0.1257   0.1292
     0.1627   0.1868   0.1913   0.1999   0.2010   0.2024   0.2055   0.2118
     0.2160   0.2240   0.2267   0.2299   0.2355   0.2389   0.2443   0.2449
     0.2472   0.2497   0.2514   0.2552   0.2560   0.2593   0.2604   0.2627
     0.2704   0.2947   0.3129   0.3206   0.3244   0.3253   0.3294   0.3315
     0.3330   0.3361   0.3365   0.3378   0.3455   0.3650   0.3688   0.3706
     0.3738   0.3785   0.3820   0.3838   0.3851   0.4015   0.4065   0.4089
     0.4191   0.4254   0.4274   0.4311   0.4342   0.4385   0.4399   0.4418
     0.4432   0.4492   0.4506   0.4521   0.4541   0.4580   0.4604   0.4667
     0.4696   0.4751   0.4762   0.4867   0.4914   0.5053   0.5072   0.5160
     0.5306   0.5429   0.5436   0.5480   0.5540   0.5601   0.5613   0.5624
     0.5641   0.5671   0.5704   0.5777   0.5800   0.5968   0.5976   0.6003
     0.6005   0.6017   0.6027   0.6071   0.6083   0.6193   0.6242   0.6507
     0.6549   0.6603   0.6638   0.6809   0.6856   0.6887   0.6889   0.6972
     0.6993   0.7160   0.7167   0.7220   0.7240   0.7355   0.7454   0.7511
     0.7559   0.7989   0.8000   0.8013   0.8018   0.8207   0.8269   0.8299
     0.8305   0.8371   0.8392   0.8531   0.8548   0.8636   0.8742   0.8807
     0.8820   0.8851   0.8886   0.8931   0.8998   0.9057   0.9085   0.9145
     0.9155   0.9167   0.9173   0.9186   0.9198   0.9207   0.9223   0.9243
     0.9260   0.9302   0.9336   0.9360   0.9408   0.9490   0.9500   0.9586
     0.9603   0.9638   0.9693   0.9708   0.9754   0.9808   0.9831   0.9842
     0.9904   0.9977   0.9996   1.0050   1.0079   1.0103   1.0145   1.0180
     1.0183   1.0433   1.0510   1.0538   1.0548   1.0599   1.0619   1.0629
     1.0669   1.0793   1.0814   1.0848   1.0850   1.0947   1.0984   1.1114
     1.1178   1.1206   1.1269   1.1305   1.1342   1.1380   1.1412   1.1417
     1.1446   1.1509   1.1527   1.1554   1.1568   1.1606   1.1612   1.1628
     1.1643   1.1929   1.1968   1.2079   1.2109   1.2133   1.2186   1.2186
     1.2217   1.2257   1.2259   1.2268   1.2270   1.2307   1.2318   1.2369
     1.2394   1.2481   1.2485   1.2562   1.2592   1.2601   1.2605   1.2615
     1.2618   1.2625   1.2646   1.2701   1.2719   1.2735   1.2755   1.2788
     1.2818   1.2867   1.2880   1.2955   1.2976   1.3118   1.3153   1.3251
     1.3254   1.3330   1.3346   1.3370   1.3379   1.3450   1.3496   1.3555
     1.3560   1.3610   1.3651   1.3768   1.3779   1.3950   1.3992   1.4197
     1.4249   1.4399   1.4440   1.4446   1.4474   1.4656   1.4680   1.4755
     1.4771   1.4776   1.4832   1.4857   1.4874   1.4917   1.4920   1.5105
     1.5283   1.6987   1.7026   1.7068   1.7122   2.1279   2.1547   2.2280
     2.2411   2.3646   2.4076   2.4352   2.4400   2.6062   2.6212   2.6363
     2.6660   2.6935   2.8766   2.9305   2.9550   2.9916   3.0853   3.3190
     3.3287   3.3296   3.3317   3.5028   3.5045   3.5544   3.5633   3.8059
     3.8079   3.8112   3.8116   3.9950   4.0179   4.0692   4.0796   4.0972
     4.0987   4.2079   4.2399   4.3543   4.3732   4.3890   4.4306   4.4744
     4.4833   4.5545   4.5657   4.7518   4.8011   4.8848   4.9512   4.9856
     5.0057   5.0089   5.0366   5.0628   5.0784   5.0927   5.1121   5.1648
     5.1886   5.2281   5.3116   5.3827   5.4341   5.5561   5.5715   5.5932
     5.6093   5.6672   5.7102   5.7937   5.8668   6.4419   6.5142   6.6781
     6.7013   6.7157   6.7314   6.8049   6.8472   6.8758   6.9094   6.9226
     6.9351   7.0119   7.0177   7.0241   7.0424   7.1421   7.1656   7.1982
     7.2078   7.2175   7.2191   7.2377   7.2545   7.3610   7.4049   7.4910
     7.5592   7.6653   7.6930   7.7796   7.8071   7.8791   8.0076   8.0823
     8.0848   8.1076   8.1185   8.1241   8.1511   8.2674   8.3080   8.3401
     8.3542   8.3836   8.4528   8.6660   8.6837   8.6947   8.7020   8.7731
     8.7781   8.7997   8.8011   8.8131   8.8170   8.8230   8.8396   8.8436
     8.8572   8.8799   8.9158   8.9465   9.0475   9.0516   9.0708   9.1720
     9.2304   9.2800   9.3053

     the Fermi energy is     3.2016 ev

!    total energy              =  -12531.91981533 Ry
     Harris-Foulkes estimate   =  -12531.91981533 Ry
     estimated scf accuracy    <          9.5E-09 Ry

     The total energy is the sum of the following terms:

     one-electron contribution = -109981.35587314 Ry
     hartree contribution      =   56325.91934697 Ry
     xc contribution           =   -4395.07643672 Ry
     ewald contribution        =   45524.67537337 Ry
     Dispersion Correction     =      -2.79614650 Ry
     smearing contrib. (-TS)   =      -3.28607931 Ry

     convergence has been achieved in  43 iterations

     negative rho (up, down):  2.157E-03 0.000E+00

     Forces acting on atoms (Ry/au):

     atom    1 type  1   force =     0.00000929    0.00015441   -0.00024121
     atom    2 type  1   force =     0.00002051   -0.00008878   -0.00006963
     atom    3 type  1   force =     0.00000063    0.00026861   -0.00023170
     atom    4 type  1   force =    -0.00001115   -0.00008897   -0.00006126
     atom    5 type  1   force =     0.00000782   -0.00012382   -0.00040856
     atom    6 type  1   force =    -0.00002711   -0.00004692   -0.00059522
     atom    7 type  1   force =     0.00000174   -0.00017789   -0.00036717
     atom    8 type  1   force =     0.00003699   -0.00005265   -0.00059717
     atom    9 type  1   force =     0.00000759    0.00003230   -0.00020133
     atom   10 type  1   force =     0.00001886    0.00000880    0.00001583
[...]
     2.6488   2.6688   2.7597   2.9220   2.9333   2.9527   3.0296   3.2937
     3.3007   3.3035   3.3040   3.4869   3.4941   3.5318   3.5391   3.7802
     3.7806   3.7847   3.7875   4.0036   4.0485   4.0595   4.0730   4.0778
     4.0822   4.1897   4.2245   4.3541   4.3597   4.3686   4.4221   4.4572
     4.4721   4.5334   4.5419   4.7374   4.7737   4.8704   4.9091   4.9800
     4.9935   5.0099   5.0193   5.0604   5.0684   5.0767   5.1214   5.1650
     5.1813   5.2140   5.2688   5.3837   5.4093   5.5361   5.5669   5.5699
     5.5854   5.6445   5.7222   5.7784   5.8384   6.3971   6.4766   6.6165
     6.6440   6.6590   6.7025   6.7506   6.8584   6.8857   6.9088   6.9424
     6.9471   6.9849   6.9977   7.0113   7.0415   7.0761   7.1511   7.1798
     7.1898   7.1967   7.2023   7.2065   7.3464   7.3831   7.4057   7.4639
     7.5630   7.6628   7.6900   7.7560   7.7939   7.8749   7.9880   8.0197
     8.0649   8.0767   8.0945   8.1002   8.1704   8.2248   8.3017   8.3036
     8.3574   8.4022   8.4912   8.6640   8.6914   8.6950   8.7297   8.7542
     8.7642   8.7734   8.7872   8.8001   8.8129   8.8187   8.8243   8.8297
     8.8446   8.8726   8.9160   8.9495   9.0002   9.0592   9.0681   9.1965
     9.2611   9.2857   9.3000

     the Fermi energy is     3.1826 ev

!    total energy              =  -12532.23464789 Ry
     Harris-Foulkes estimate   =  -12532.23464789 Ry
     estimated scf accuracy    <          3.0E-09 Ry

     The total energy is the sum of the following terms:

     one-electron contribution = -110236.85936148 Ry
     hartree contribution      =   56453.27280136 Ry
     xc contribution           =   -4394.68368070 Ry
     ewald contribution        =   45652.11546530 Ry
     Dispersion Correction     =      -2.80025935 Ry
     smearing contrib. (-TS)   =      -3.27961302 Ry

     convergence has been achieved in  11 iterations

     negative rho (up, down):  2.142E-03 0.000E+00

     Forces acting on atoms (Ry/au):

     atom    1 type  1   force =    -0.00002936    0.00012790   -0.00018939
     atom    2 type  1   force =     0.00002011    0.00017351   -0.00013645
     atom    3 type  1   force =     0.00001464    0.00018494   -0.00036788
     atom    4 type  1   force =    -0.00004261    0.00011444   -0.00019583
     atom    5 type  1   force =    -0.00000409    0.00011839   -0.00014169
     atom    6 type  1   force =    -0.00005453    0.00016775   -0.00017867
     atom    7 type  1   force =    -0.00003186    0.00002201   -0.00021825
     atom    8 type  1   force =     0.00001451    0.00001247   -0.00022535
     atom    9 type  1   force =     0.00000366   -0.00011316   -0.00025011
     atom   10 type  1   force =    -0.00000200   -0.00009444   -0.00030607
     atom   11 type  1   force =    -0.00004139   -0.00006517   -0.00011835
     atom   12 type  1   force =    -0.00004572   -0.00004609   -0.00011679
     atom   13 type  1   force =    -0.00005977    0.00004180   -0.00023251
     atom   14 type  1   force =     0.00002352    0.00008961   -0.00028751
     atom   15 type  1   force =     0.00003353    0.00004750   -0.00018111
     atom   16 type  1   force =    -0.00006883    0.00002707   -0.00013465
     atom   17 type  1   force =     0.00005162   -0.00004628   -0.00025043
     atom   18 type  1   force =    -0.00005800   -0.00009388   -0.00011627
     atom   19 type  1   force =    -0.00007202   -0.00011622   -0.00006466
     atom   20 type  1   force =     0.00004546    0.00010173   -0.00032455
     atom   21 type  1   force =    -0.00004146    0.00015300   -0.00013657
     atom   22 type  1   force =    -0.00007147    0.00019864    0.00004954
     atom   23 type  1   force =    -0.00000373    0.00009318   -0.00003235
     atom   24 type  1   force =     0.00003399    0.00022231    0.00017119
     atom   25 type  1   force =     0.00006894   -0.00000229   -0.00009064
     atom   26 type  1   force =    -0.00005706    0.00011512   -0.00005708
     atom   27 type  1   force =    -0.00013019   -0.00031344   -0.00045440
     atom   28 type  1   force =     0.00000741   -0.00010182   -0.00027635
     atom   29 type  1   force =     0.00001282   -0.00001770   -0.00008020
     atom   30 type  1   force =    -0.00009680   -0.00021411   -0.00025677
     atom   31 type  1   force =    -0.00003735   -0.00002932    0.00005387
     atom   32 type  1   force =     0.00003548   -0.00019520   -0.00023455
     atom   33 type  1   force =     0.00001577   -0.00002296    0.00026066
     atom   34 type  1   force =    -0.00001419   -0.00011093    0.00038242
     atom   35 type  1   force =    -0.00004920   -0.00000919    0.00048164
     atom   36 type  1   force =     0.00000623   -0.00010530    0.00024418
     atom   37 type  1   force =     0.00002619    0.00028993    0.00030481
     atom   38 type  1   force =    -0.00006065    0.00022552    0.00032630
     atom   39 type  1   force =    -0.00007559    0.00056884   -0.00004840
     atom   40 type  1   force =    -0.00002681    0.00036461    0.00010260
     atom   41 type  1   force =    -0.00007928   -0.00005555   -0.00011349
     atom   42 type  1   force =     0.00001244   -0.00033050   -0.00018820
     atom   43 type  1   force =     0.00002241   -0.00020578    0.00003280
     atom   44 type  1   force =    -0.00005100   -0.00012154   -0.00019163
     atom   45 type  1   force =     0.00003279   -0.00002473   -0.00024225
     atom   46 type  1   force =    -0.00012946    0.00068719    0.00081103
     atom   47 type  1   force =    -0.00009184    0.00014014   -0.00009408
     atom   48 type  1   force =     0.00006054   -0.00014269   -0.00029033
     atom   49 type  1   force =     0.00035666    0.00020433    0.00022994
     atom   50 type  1   force =     0.00012726   -0.00040108   -0.00010440
     atom   51 type  1   force =    -0.00027581    0.00020393   -0.00001331
     atom   52 type  1   force =     0.00010824   -0.00013208    0.00007389
     atom   53 type  1   force =    -0.00023054    0.00013181    0.00045860
     atom   54 type  1   force =     0.00023552    0.00056355   -0.00022989
     atom   55 type  1   force =     0.00025733    0.00010713   -0.00013343
     atom   56 type  1   force =     0.00004795    0.00040662   -0.00004849
     atom   57 type  1   force =     0.00020904    0.00030820   -0.00000361
     atom   58 type  1   force =    -0.00020457   -0.00026421    0.00040879
     atom   59 type  1   force =    -0.00024923    0.00011631    0.00016955
     atom   60 type  1   force =     0.00002030    0.00006490   -0.00011359
     atom   61 type  1   force =    -0.00003589    0.00015239   -0.00002297
     atom   62 type  1   force =     0.00010050    0.00023688   -0.00026542
     atom   63 type  1   force =    -0.00000353    0.00023377    0.00005206
     atom   64 type  1   force =    -0.00028338    0.00020397   -0.00022090
     atom   65 type  1   force =     0.00044082    0.00020936    0.00013370
     atom   66 type  1   force =    -0.00001038   -0.00006911   -0.00038094
     atom   67 type  1   force =    -0.00026735    0.00102660    0.00046033
     atom   68 type  1   force =    -0.00007161    0.00016855   -0.00023591
     atom   69 type  1   force =    -0.00055403    0.00089321   -0.00011595
     atom   70 type  1   force =     0.00055616    0.00026423    0.00079590
     atom   71 type  1   force =     0.00053653    0.00061843    0.00068663
     atom   72 type  1   force =     0.00011943    0.00005891    0.00006873
     atom   73 type  1   force =     0.00002887   -0.00048972   -0.00074903
     atom   74 type  1   force =     0.00090533    0.00020257   -0.00078676
     atom   75 type  1   force =     0.00011236   -0.00110588    0.00077089
     atom   76 type  1   force =    -0.00078371   -0.00018739   -0.00036139
     atom   77 type  1   force =     0.00009894   -0.00012079   -0.00015879
     atom   78 type  1   force =     0.00067125   -0.00041647    0.00014895
     atom   79 type  1   force =    -0.00023682   -0.00059203   -0.00026304
     atom   80 type  1   force =     0.00000329   -0.00019845   -0.00060645
     atom   81 type  1   force =    -0.00014512    0.00004188    0.00011458
     atom   82 type  1   force =     0.00006924    0.00046689    0.00012163
     atom   83 type  1   force =    -0.00001430   -0.00021065    0.00047831
     atom   84 type  1   force =    -0.00015507    0.00042583    0.00026164
     atom   85 type  1   force =    -0.00011867   -0.00027957    0.00043105
     atom   86 type  1   force =     0.00022127   -0.00048753    0.00006165
     atom   87 type  1   force =     0.00012725    0.00014683   -0.00034708
     atom   88 type  1   force =     0.00034671    0.00036741   -0.00035594
     atom   89 type  1   force =     0.00067706    0.00046418    0.00039951
     atom   90 type  1   force =    -0.00122062   -0.00086851   -0.00289675
     atom   91 type  1   force =    -0.00043673    0.00116222    0.00078268
     atom   92 type  1   force =     0.00000442    0.00068476   -0.00050430
     atom   93 type  1   force =     0.00005408    0.00068123    0.00021386
     atom   94 type  1   force =    -0.00008145    0.00031774   -0.00052034
     atom   95 type  1   force =     0.00036896   -0.00001453    0.00337308
     atom   96 type  1   force =    -0.00110933   -0.00025138   -0.00060515
     atom   97 type  1   force =     0.00063942   -0.00119807    0.00072283
     atom   98 type  1   force =    -0.00008004    0.00015018    0.00034792
     atom   99 type  1   force =     0.00000043   -0.00024439    0.00044186
     atom  100 type  1   force =     0.00055792   -0.00081425    0.00029979
     atom  101 type  3   force =     0.00271784   -0.00067850    0.00037382
     atom  102 type  3   force =    -0.00143865    0.00247939    0.00193112
     atom  103 type  3   force =    -0.00445667    0.00159454   -0.00056521
     atom  104 type  3   force =     0.00149621    0.00413380   -0.00034687
     atom  105 type  3   force =     0.00327652   -0.00426741    0.00093330
     atom  106 type  3   force =    -0.00112455    0.00089076    0.00176995
     atom  107 type  3   force =     0.00222310    0.00289063   -0.00163958
     atom  108 type  3   force =    -0.00279020    0.00177078   -0.00059444
     atom  109 type  3   force =    -0.00274327    0.00047117    0.00077354
     atom  110 type  3   force =     0.00040663    0.00410364    0.00237104
     atom  111 type  3   force =     0.00257064   -0.00412080   -0.00123329
     atom  112 type  3   force =    -0.00078591    0.00510044    0.00190291
     atom  113 type  3   force =    -0.00002951    0.00387998   -0.00138960
     atom  114 type  3   force =    -0.00668399   -0.00752850   -0.00222788
     atom  115 type  3   force =     0.00205110   -0.00360943   -0.00250419
     atom  116 type  3   force =    -0.00057255   -0.00388181    0.00262113
     atom  117 type  3   force =    -0.00506378    0.00608639   -0.00093159
     atom  118 type  3   force =     0.00342608   -0.00299892    0.00389456
     atom  119 type  3   force =     0.00196476   -0.00159745   -0.00319340
     atom  120 type  3   force =     0.00034732   -0.00360217    0.00215788
     atom  121 type  3   force =    -0.00028271    0.00171240   -0.00197346
     atom  122 type  3   force =     0.00429680   -0.00667421   -0.00224023
     atom  123 type  3   force =    -0.00333200   -0.00570903   -0.00012234
     atom  124 type  3   force =     0.00492743   -0.00051724   -0.00344125
     atom  125 type  3   force =     0.00358848    0.00140373   -0.00137049
     atom  126 type  3   force =    -0.00219778    0.00146396    0.00250324
     atom  127 type  3   force =     0.00097072   -0.00607008    0.00200927
     atom  128 type  3   force =    -0.00156856   -0.00094042    0.00323075
     atom  129 type  3   force =     0.00024769    0.00023482   -0.00069489
     atom  130 type  3   force =     0.00116624    0.00089025   -0.00097744
     atom  131 type  5   force =     0.00200556   -0.00322095   -0.00075761
     atom  132 type  5   force =     0.00063514   -0.00298879   -0.00058964
     atom  133 type  5   force =     0.00124301   -0.00315438   -0.00073414
     atom  134 type  5   force =    -0.00676538    0.00716648    0.00035843
     atom  135 type  4   force =     0.00728399    0.00975681    0.00443170
     atom  136 type  5   force =    -0.00733664    0.00104343   -0.00316292
     atom  137 type  5   force =    -0.00012327   -0.00016138    0.00056608

     Total force =     0.034326     Total SCF correction =     0.000297

     number of scf cycles    =  31
     number of bfgs steps    =  29

     energy   old            =  -12532.2331887288 Ry
     energy   new            =  -12532.2346478943 Ry

     CASE: energy  _new < energy  _old

     new trust radius        =       0.1228991371 bohr
     new conv_thr            =       0.0000000100 Ry


ATOMIC_POSITIONS (angstrom)
Cu      -0.001454429   0.002504305   7.394835851
Cu       1.844231035   1.704432235   7.400465836
Cu       3.690443209   0.002350657   7.394915817
Cu       5.533580229   1.708201001   7.403761241
Cu       0.000006582   3.407405889   7.412336361
Cu       1.843902568   5.109815089   7.416712303
Cu       3.688463224   3.408959773   7.412257017
Cu       5.533301955   5.108994383   7.415421107
Cu      -0.000505059   6.816061337   7.409668427
Cu       1.844703479   8.524183739   7.401649335
Cu       3.688525436   6.814415411   7.409696871
Cu       5.532472184   8.524752302   7.400748151
Cu      -0.000507464  10.231944118   7.397657897
Cu       1.843958011  11.937114379   7.397444835
Cu       3.688836235  10.233663438   7.398601380
Cu       5.533839500  11.937548142   7.397296851
Cu       0.000433059  13.638373160   7.395618220
Cu       1.844771099  15.340238116   7.392435184
Cu       3.688621848  13.637424849   7.394329357
Cu       5.533352772  15.336617925   7.394300698
Cu      -0.000880352   1.697189384   9.236142733
Cu       1.844323529   0.000047269   9.228313080
Cu       3.689037577   1.697410660   9.233844453
Cu       5.533405866  -0.001458943   9.227896184
Cu      -0.001805708   5.111563863   9.243115855
Cu       1.843870725   3.398263041   9.241685189
Cu       3.688475976   5.110024957   9.244988131
Cu       5.532552938   3.402830191   9.247154865
Cu      -0.001443748   8.530050333   9.228511458
Cu       1.843168622   6.824308005   9.236094250
Cu       3.687818295   8.529834114   9.228885379
Cu       5.532111307   6.822491372   9.233265319
Cu      -0.000688321  11.937603670   9.229609433
Cu       1.844188344  10.233762831   9.225563921
Cu       3.688336646  11.938991769   9.232495634
Cu       5.531982663  10.234065488   9.227391105
Cu      -0.000210127  15.340163153   9.228112290
Cu       1.843898686  13.640923055   9.230749885
Cu       3.689128317  15.340974915   9.225876011
Cu       5.533742283  13.640333836   9.232656713
Cu       0.000600643  -0.004299951  11.078831487
Cu       1.844007524   1.687817126  11.083897956
Cu       3.687477458  -0.002986358  11.078305281
Cu       5.531812878   1.684912528  11.081798568
Cu      -0.003616202   3.394907147  11.075767057
Cu       1.842787349   5.113680455  11.063937998
Cu       3.688844966   3.387427087  11.079217282
Cu       5.529662250   5.121537508  11.074284904
Cu      -0.004201067   6.830914045  11.069459575
Cu       1.839831338   8.534944360  11.070090690
Cu       3.686307913   6.826896843  11.066615456
Cu       5.532283489   8.532002269  11.067010628
Cu      -0.000497229  10.233189542  11.070459459
Cu       1.841592836  11.936340323  11.066938505
Cu       3.686477691  10.231789580  11.071455561
Cu       5.533393339  11.935686921  11.068320853
Cu      -0.001953675  13.645156152  11.072878851
Cu       1.844692828  15.346897091  11.076101018
Cu       3.688743264  13.658246772  11.070495682
Cu       5.532584880  15.348507760  11.078585206
Cu      -0.001208658   1.686274774  12.922287607
Cu       1.846495835  -0.013040439  12.945322569
Cu       3.686017465   1.668200713  12.946687542
Cu       5.529803620  -0.007705288  12.944089834
Cu      -0.009482109   5.116841140  12.883830509
Cu       1.846564543   3.410737592  12.890457574
Cu       3.688141391   5.113831824  12.889125677
Cu       5.524693184   3.403811594  12.891257858
Cu      -0.001472541   8.529529348  12.922483341
Cu       1.839075165   6.828961079  12.904400126
Cu       3.684298250   8.524258598  12.905765557
Cu       5.527858307   6.841072926  12.921938114
Cu       0.001378213  11.948431261  12.909006339
Cu       1.836578951  10.241304615  12.913659059
Cu       3.688470005  11.957681527  12.881786235
Cu       5.542417546  10.232936510  12.908476108
Cu      -0.001955836  15.341872224  12.926659205
Cu       1.842412914  13.639265414  12.903276821
Cu       3.688176822  15.359586348  12.948810087
Cu       5.532114985  13.644495004  12.903065209
Cu       0.002052409  -0.005549087  14.777031987
Cu       1.837875979   1.735256554  14.697668954
Cu       3.682519091  -0.016758682  14.889341339
Cu       5.533380364   1.735697218  14.702335984
Cu      -0.000360391   3.428247862  14.696358605
Cu       1.836962473   5.118477523  14.698828646
Cu       3.679585130   3.422774771  14.715933162
Cu       5.527390765   5.102252490  14.707395288
Cu      -0.012046342   6.804117166  14.698259371
Cu       1.849171541   8.528039769  14.727449598
Cu       3.689549957   6.801771528  14.707402896
Cu       5.521918776   8.556485377  14.779919697
Cu       0.009205614  10.247346384  14.729831546
Cu       1.843097980  11.952298277  14.757788041
Cu       3.694624648  10.264550176  14.657583200
Cu       5.544612949  11.944539235  14.741454016
Cu      -0.003294770  13.632849499  14.765155605
Cu       1.837579962  15.298137422  14.749494210
Cu       3.694775934  13.624654491  14.752113732
Cu       5.536629139  15.313871451  14.749170352
C        0.018339056   0.660363526  17.476939068
C        0.020605260   2.094926637  17.562317953
C        1.247840146  -0.024295995  17.407559048
C        1.248527950   2.805492226  17.594623978
C        2.470851576   0.665565823  17.373329725
C        2.477397902   2.097585287  17.486184072
C        3.705599371  -0.025291249  17.194165758
C        3.712227754   2.806096022  17.515829020
C        4.942887833   0.662744642  17.368601932
C        4.945889221   2.095612409  17.474744420
C        6.165641255  -0.023401571  17.404444682
C        6.173452360   2.808693474  17.581255986
C        0.023886445   4.956565247  17.675411272
C        0.023960550   6.389381884  17.624655515
C        1.247667330   4.234633142  17.648891495
C        1.255247646   7.097475278  17.553516438
C        2.479855615   4.946845086  17.608340956
C        2.478002596   6.376825527  17.558838124
C        3.712219772   4.232148811  17.596444988
C        3.707393118   7.094240121  17.488948854
C        4.940653540   4.952634238  17.624922844
C        4.938140673   6.383877632  17.580551936
C        6.173180826   4.240313916  17.650184031
C        6.168429708   7.097259269  17.571446354
C        0.025423639   9.223262011  17.412002575
C        1.252829808   8.534144603  17.469498011
C        2.489687056   9.219402754  17.455221641
C        3.722919876   8.529245095  17.414148903
C        4.948811042   9.223134884  17.311376967
C        6.174715815   8.531500595  17.435192362
H        1.241117777  -1.113224953  17.373519846
H        3.700430568  -1.111448221  17.293191783
H        6.160747733  -1.112429380  17.376760219
H        0.006128487  10.311296038  17.322128374
O        2.557569188  10.586995253  17.476184486
H        1.748119004  10.993931862  17.868396899
H        4.952156474  10.311451901  17.255293808



     Writing output data file gc.save
     Check: negative starting charge=   -0.002167
     NEW-OLD atomic charge density approx. for the potential
     Check: negative starting charge=   -0.002169

     negative rho (up, down):  2.148E-03 0.000E+00

     total cpu time spent up to now is   172861.5 secs

     Self-consistent Calculation

     iteration #  1     ecut=    80.00 Ry     beta=0.70
     Davidson diagonalization with overlap
