mpirun: INFO: switching to OpenMPI runtime version 1.10.2

     Program PWSCF v.5.4.0 starts on 15Sep2017 at  7:11: 3 

     This program is part of the open-source Quantum ESPRESSO suite
     for quantum simulation of materials; please cite
         "P. Giannozzi et al., J. Phys.:Condens. Matter 21 395502 (2009);
          URL http://www.quantum-espresso.org", 
     in publications or presentations arising from this work. More details at
     http://www.quantum-espresso.org/quote

     Parallel version (MPI & OpenMP), running on      28 processor cores
     Number of MPI processes:                28
     Threads/MPI process:                     1
     R & G space division:  proc/nbgrp/npool/nimage =      28
     Waiting for input...
     Reading input from standard input

     Current dimensions of program PWSCF are:
     Max number of different atomic species (ntypx) = 10
     Max number of k-points (npk) =  40000
     Max angular momentum in pseudopotentials (lmaxx) =  3
     WARNING: atomic wfc #  2 for atom type 4 has zero norm
     WARNING: atomic wfc #  4 for atom type 4 has zero norm
     WARNING: atomic wfc #  5 for atom type 4 has zero norm

     -------------------------------------
     Parameters for Dispersion Correction:
     -------------------------------------
       atom      VdW radius       C_6     

        Cu         2.952        374.666
        C_h        2.744         60.710
        C          2.744         60.710
        O          2.536         24.284
        H          1.892          4.857

     Subspace diagonalization in iterative solution of the eigenvalue problem:
     one sub-group per band group will be used
     scalapack distributed-memory algorithm (size of sub-group:  3*  3 procs)

 
     Parallelization info
     --------------------
     sticks:   dense  smooth     PW     G-vecs:    dense   smooth      PW
     Min         408     408    108                73226    73226    9928
     Max         410     410    109                73231    73231    9931
     Sum       11433   11433   3039              2050409  2050409  278033
 


     bravais-lattice index     =            0
     lattice parameter (alat)  =      13.9425  a.u.
     unit-cell volume          =   21209.0878 (a.u.)^3
     number of atoms/cell      =          137
     number of atomic types    =            5
     number of electrons       =      1232.00
     number of Kohn-Sham states=          739
     kinetic-energy cutoff     =      80.0000  Ry
     charge density cutoff     =     320.0000  Ry
     convergence threshold     =      1.0E-08
     mixing beta               =       0.7000
     number of iterations used =            8  local-TF  mixing
     Exchange-correlation      =  SLA  PW   PBE  PBE ( 1  4  3  4 0 0)
     nstep                     =           50


     celldm(1)=  13.942539  celldm(2)=   0.000000  celldm(3)=   0.000000
     celldm(4)=   0.000000  celldm(5)=   0.000000  celldm(6)=   0.000000

     crystal axes: (cart. coord. in units of alat)
               a(1) = (   1.000000   0.000000   0.000000 )  
               a(2) = (   0.000000   2.309401   0.000000 )  
               a(3) = (   0.000000   0.000000   3.388418 )  

     reciprocal axes: (cart. coord. in units 2 pi/alat)
               b(1) = (  1.000000  0.000000  0.000000 )  
               b(2) = (  0.000000  0.433013  0.000000 )  
               b(3) = (  0.000000  0.000000  0.295123 )  


     PseudoPot. # 1 for Cu read from file:
     /home/549/hxw549/Short/pseudopotentials/Cu.pbe-n-van_ak.UPF
     MD5 check sum: 601f7c30f7467666bec936e0661ce3e1
     Pseudo is Ultrasoft + core correction, Zval = 11.0
     Generated by new atomic code, or converted to UPF format
     Using radial grid of  867 points,  6 beta functions with: 
                l(1) =   0
                l(2) =   0
                l(3) =   1
                l(4) =   1
                l(5) =   2
                l(6) =   2
     Q(r) pseudized with  8 coefficients,  rinner =    1.400   1.400   1.400
                                                       1.400   1.400

     PseudoPot. # 2 for C  read from file:
     /home/549/hxw549/Short/pseudopotentials/C.star1s-pbe-mt_gipaw.UPF
     MD5 check sum: ef0cb3dee31bd9e4ba2a832a2c716264
     Pseudo is Norm-conserving, Zval =  5.0
     Generated by new atomic code, or converted to UPF format
     Using radial grid of 1073 points,  1 beta functions with: 
                l(1) =   0

     PseudoPot. # 3 for C  read from file:
     /home/549/hxw549/Short/pseudopotentials/C.pbe-mt_gipaw.UPF
     MD5 check sum: 5ac2f21f2c440b14befe521540822c15
     Pseudo is Norm-conserving, Zval =  4.0
     Generated by new atomic code, or converted to UPF format
     Using radial grid of 1073 points,  1 beta functions with: 
                l(1) =   0

     PseudoPot. # 4 for O  read from file:
     /home/549/hxw549/Short/pseudopotentials/O.pbe-van_gipaw.UPF
     MD5 check sum: 5ce2a047509d4f331db576c963e74b29
     Pseudo is Ultrasoft, Zval =  6.0
     Generated by new atomic code, or converted to UPF format
     Using radial grid of 1095 points,  4 beta functions with: 
                l(1) =   0
                l(2) =   0
                l(3) =   1
                l(4) =   1
     Q(r) pseudized with 0 coefficients 


     PseudoPot. # 5 for H  read from file:
     /home/549/hxw549/Short/pseudopotentials/H.pbe-van_ak.UPF
     MD5 check sum: 077eb6d537518a38cb46c6de387227b7
     Pseudo is Ultrasoft, Zval =  1.0
     Generated by new atomic code, or converted to UPF format
     Using radial grid of  615 points,  1 beta functions with: 
                l(1) =   0
     Q(r) pseudized with  8 coefficients,  rinner =    0.800

     atomic species   valence    mass     pseudopotential
        Cu            11.00    63.54600     Cu( 1.00)
        C_h            5.00    12.01070     C ( 1.00)
        C              4.00    12.01070     C ( 1.00)
        O              6.00    15.99940     O ( 1.00)
        H              1.00     1.00783     H ( 1.00)

     No symmetry found



   Cartesian axes

     site n.     atom                  positions (alat units)
         1           Cu  tau(   1) = (  -0.0001971   0.0003394   1.0022718  )
         2           Cu  tau(   2) = (   0.2499610   0.2310132   1.0030349  )
         3           Cu  tau(   3) = (   0.5001906   0.0003186   1.0022827  )
         4           Cu  tau(   4) = (   0.7500034   0.2315240   1.0034816  )
         5           Cu  tau(   5) = (   0.0000009   0.4618286   1.0046438  )
         6           Cu  tau(   6) = (   0.2499165   0.6925676   1.0052369  )
         7           Cu  tau(   7) = (   0.4999222   0.4620393   1.0046331  )
         8           Cu  tau(   8) = (   0.7499656   0.6924564   1.0050619  )
         9           Cu  tau(   9) = (  -0.0000685   0.9238266   1.0042822  )
        10           Cu  tau(  10) = (   0.2500251   1.1553400   1.0031953  )
        11           Cu  tau(  11) = (   0.4999307   0.9236036   1.0042861  )
        12           Cu  tau(  12) = (   0.7498532   1.1554170   1.0030732  )
        13           Cu  tau(  13) = (  -0.0000688   1.3868042   1.0026543  )
        14           Cu  tau(  14) = (   0.2499240   1.6179174   1.0026255  )
        15           Cu  tau(  15) = (   0.4999728   1.3870372   1.0027822  )
        16           Cu  tau(  16) = (   0.7500385   1.6179762   1.0026054  )
        17           Cu  tau(  17) = (   0.0000587   1.8485005   1.0023779  )
        18           Cu  tau(  18) = (   0.2500342   2.0791657   1.0019465  )
        19           Cu  tau(  19) = (   0.4999437   1.8483719   1.0022032  )
        20           Cu  tau(  20) = (   0.7499725   2.0786750   1.0021993  )
        21           Cu  tau(  21) = (  -0.0001193   0.2300315   1.2518366  )
        22           Cu  tau(  22) = (   0.2499736   0.0000064   1.2507754  )
        23           Cu  tau(  23) = (   0.5000001   0.2300615   1.2515251  )
        24           Cu  tau(  24) = (   0.7499797  -0.0001977   1.2507188  )
        25           Cu  tau(  25) = (  -0.0002447   0.6928046   1.2527817  )
        26           Cu  tau(  26) = (   0.2499122   0.4605895   1.2525878  )
        27           Cu  tau(  27) = (   0.4999240   0.6925961   1.2530354  )
        28           Cu  tau(  28) = (   0.7498641   0.4612085   1.2533291  )
        29           Cu  tau(  29) = (  -0.0001957   1.1561351   1.2508022  )
        30           Cu  tau(  30) = (   0.2498170   0.9249444   1.2518300  )
        31           Cu  tau(  31) = (   0.4998348   1.1561058   1.2508529  )
        32           Cu  tau(  32) = (   0.7498043   0.9246982   1.2514466  )
        33           Cu  tau(  33) = (  -0.0000933   1.6179837   1.2509511  )
        34           Cu  tau(  34) = (   0.2499553   1.3870507   1.2504027  )
        35           Cu  tau(  35) = (   0.4999051   1.6181719   1.2513422  )
        36           Cu  tau(  36) = (   0.7497868   1.3870917   1.2506504  )
        37           Cu  tau(  37) = (  -0.0000285   2.0791555   1.2507481  )
        38           Cu  tau(  38) = (   0.2499160   1.8488461   1.2511056  )
        39           Cu  tau(  39) = (   0.5000124   2.0792655   1.2504450  )
        40           Cu  tau(  40) = (   0.7500253   1.8487662   1.2513641  )
        41           Cu  tau(  41) = (   0.0000814  -0.0005828   1.5015886  )
        42           Cu  tau(  42) = (   0.2499307   0.2287612   1.5022753  )
        43           Cu  tau(  43) = (   0.4997886  -0.0004048   1.5015172  )
        44           Cu  tau(  44) = (   0.7497638   0.2283675   1.5019907  )
        45           Cu  tau(  45) = (  -0.0004901   0.4601346   1.5011732  )
        46           Cu  tau(  46) = (   0.2497654   0.6930915   1.4995699  )
        47           Cu  tau(  47) = (   0.4999740   0.4591208   1.5016408  )
        48           Cu  tau(  48) = (   0.7494723   0.6941564   1.5009723  )
        49           Cu  tau(  49) = (  -0.0005694   0.9258397   1.5003183  )
        50           Cu  tau(  50) = (   0.2493647   1.1567984   1.5004039  )
        51           Cu  tau(  51) = (   0.4996301   0.9252953   1.4999328  )
        52           Cu  tau(  52) = (   0.7498276   1.1563997   1.4999864  )
        53           Cu  tau(  53) = (  -0.0000674   1.3869730   1.5004538  )
        54           Cu  tau(  54) = (   0.2496035   1.6178125   1.4999766  )
        55           Cu  tau(  55) = (   0.4996531   1.3867833   1.5005889  )
        56           Cu  tau(  56) = (   0.7499780   1.6177239   1.5001640  )
        57           Cu  tau(  57) = (  -0.0002648   1.8494198   1.5007818  )
        58           Cu  tau(  58) = (   0.2500236   2.0800682   1.5012185  )
        59           Cu  tau(  59) = (   0.4999602   1.8511941   1.5004588  )
        60           Cu  tau(  60) = (   0.7498684   2.0802865   1.5015552  )
        61           Cu  tau(  61) = (  -0.0001638   0.2285522   1.7514446  )
        62           Cu  tau(  62) = (   0.2502680  -0.0017675   1.7545667  )
        63           Cu  tau(  63) = (   0.4995907   0.2261025   1.7547517  )
        64           Cu  tau(  64) = (   0.7494915  -0.0010443   1.7543996  )
        65           Cu  tau(  65) = (  -0.0012852   0.6935199   1.7462322  )
        66           Cu  tau(  66) = (   0.2502773   0.4622802   1.7471304  )
        67           Cu  tau(  67) = (   0.4998786   0.6931120   1.7469499  )
        68           Cu  tau(  68) = (   0.7487988   0.4613415   1.7472389  )
        69           Cu  tau(  69) = (  -0.0001996   1.1560645   1.7514711  )
        70           Cu  tau(  70) = (   0.2492622   0.9255750   1.7490202  )
        71           Cu  tau(  71) = (   0.4993577   1.1553501   1.7492052  )
        72           Cu  tau(  72) = (   0.7492278   0.9272166   1.7513972  )
        73           Cu  tau(  73) = (   0.0001868   1.6194513   1.7496445  )
        74           Cu  tau(  74) = (   0.2489239   1.3880729   1.7502751  )
        75           Cu  tau(  75) = (   0.4999232   1.6207050   1.7459551  )
        76           Cu  tau(  76) = (   0.7512011   1.3869387   1.7495726  )
        77           Cu  tau(  77) = (  -0.0002651   2.0793871   1.7520371  )
        78           Cu  tau(  78) = (   0.2497146   1.8486214   1.7488679  )
        79           Cu  tau(  79) = (   0.4998834   2.0817881   1.7550393  )
        80           Cu  tau(  80) = (   0.7498048   1.8493302   1.7488392  )
        81           Cu  tau(  81) = (   0.0002782  -0.0007521   2.0028306  )
        82           Cu  tau(  82) = (   0.2490997   0.2351910   1.9920739  )
        83           Cu  tau(  83) = (   0.4991166  -0.0022714   2.0180526  )
        84           Cu  tau(  84) = (   0.7499763   0.2352507   1.9927065  )
        85           Cu  tau(  85) = (  -0.0000488   0.4646535   1.9918963  )
        86           Cu  tau(  86) = (   0.2489759   0.6937417   1.9922311  )
        87           Cu  tau(  87) = (   0.4987189   0.4639117   1.9945494  )
        88           Cu  tau(  88) = (   0.7491645   0.6915426   1.9933922  )
        89           Cu  tau(  89) = (  -0.0016327   0.9222078   1.9921540  )
        90           Cu  tau(  90) = (   0.2506307   1.1558626   1.9961103  )
        91           Cu  tau(  91) = (   0.5000695   0.9218899   1.9933933  )
        92           Cu  tau(  92) = (   0.7484228   1.1597180   2.0032219  )
        93           Cu  tau(  93) = (   0.0012477   1.3888918   1.9964332  )
        94           Cu  tau(  94) = (   0.2498075   1.6199754   2.0002223  )
        95           Cu  tau(  95) = (   0.5007573   1.3912235   1.9866409  )
        96           Cu  tau(  96) = (   0.7514987   1.6189238   1.9980084  )
        97           Cu  tau(  97) = (  -0.0004466   1.8477518   2.0012209  )
        98           Cu  tau(  98) = (   0.2490596   2.0734595   1.9990982  )
        99           Cu  tau(  99) = (   0.5007778   1.8466411   1.9994532  )
       100           Cu  tau( 100) = (   0.7504166   2.0755920   1.9990543  )
       101           C   tau( 101) = (   0.0024856   0.0895035   2.3687671  )
       102           C   tau( 102) = (   0.0027928   0.2839395   2.3803391  )
       103           C   tau( 103) = (   0.1691282  -0.0032930   2.3593636  )
       104           C   tau( 104) = (   0.1692214   0.3802472   2.3847177  )
       105           C   tau( 105) = (   0.3348911   0.0902086   2.3547242  )
       106           C   tau( 106) = (   0.3357784   0.2842998   2.3700202  )
       107           C   tau( 107) = (   0.5022448  -0.0034279   2.3304410  )
       108           C   tau( 108) = (   0.5031432   0.3803291   2.3740381  )
       109           C   tau( 109) = (   0.6699428   0.0898262   2.3540835  )
       110           C   tau( 110) = (   0.6703496   0.2840324   2.3684697  )
       111           C   tau( 111) = (   0.8356708  -0.0031718   2.3589415  )
       112           C   tau( 112) = (   0.8367295   0.3806811   2.3829059  )
       113           C   tau( 113) = (   0.0032375   0.6717966   2.3956674  )
       114           C   tau( 114) = (   0.0032475   0.8659959   2.3887881  )
       115           C   tau( 115) = (   0.1691047   0.5739483   2.3920730  )
       116           C   tau( 116) = (   0.1701322   0.9619686   2.3791462  )
       117           C   tau( 117) = (   0.3361115   0.6704792   2.3865769  )
       118           C   tau( 118) = (   0.3358604   0.8642941   2.3798675  )
       119           C   tau( 119) = (   0.5031421   0.5736116   2.3849646  )
       120           C   tau( 120) = (   0.5024879   0.9615301   2.3703949  )
       121           C   tau( 121) = (   0.6696400   0.6712638   2.3888244  )
       122           C   tau( 122) = (   0.6692994   0.8652499   2.3828105  )
       123           C   tau( 123) = (   0.8366927   0.5747183   2.3922482  )
       124           C   tau( 124) = (   0.8360488   0.9619393   2.3815763  )
       125           C   tau( 125) = (   0.0034458   1.2500907   2.3599658  )
       126           C   tau( 126) = (   0.1698045   1.1566900   2.3677586  )
       127           C   tau( 127) = (   0.3374440   1.2495677   2.3658236  )
       128           C   tau( 128) = (   0.5045924   1.1560260   2.3602567  )
       129           C   tau( 129) = (   0.6707457   1.2500735   2.3463274  )
       130           C   tau( 130) = (   0.8369008   1.1563317   2.3631089  )
       131           H   tau( 131) = (   0.1682170  -0.1508829   2.3547500  )
       132           H   tau( 132) = (   0.5015442  -0.1506421   2.3438626  )
       133           H   tau( 133) = (   0.8350076  -0.1507750   2.3551892  )
       134           H   tau( 134) = (   0.0008306   1.3975593   2.3477846  )
       135           O   tau( 135) = (   0.3466446   1.4349267   2.3686648  )
       136           H   tau( 136) = (   0.2369343   1.4900815   2.4218240  )
       137           H   tau( 137) = (   0.6711991   1.3975804   2.3387260  )

     number of k points=     6  gaussian smearing, width (Ry)=  0.1000
                       cart. coord. in units 2pi/alat
        k(    1) = (   0.0000000   0.0000000   0.0000000), wk =   0.2500000
        k(    2) = (   0.0000000  -0.2165064   0.0000000), wk =   0.2500000
        k(    3) = (   0.2500000   0.0000000   0.0000000), wk =   0.5000000
        k(    4) = (   0.2500000  -0.2165064   0.0000000), wk =   0.5000000
        k(    5) = (  -0.5000000   0.0000000   0.0000000), wk =   0.2500000
        k(    6) = (  -0.5000000  -0.2165064   0.0000000), wk =   0.2500000

     Dense  grid:  2050409 G-vectors     FFT dimensions: (  80, 192, 270)

     Largest allocated arrays     est. size (Mb)     dimensions
        Kohn-Sham Wavefunctions       103.41 Mb     (    9171,  739)
        NL pseudopotentials           258.05 Mb     (    9171, 1844)
        Each V/rho on FFT grid          2.34 Mb     (  153600)
        Each G-vector array             0.56 Mb     (   73230)
        G-vector shells                 0.27 Mb     (   35784)
     Largest temporary arrays     est. size (Mb)     dimensions
        Auxiliary wavefunctions       413.66 Mb     (    9171, 2956)
        Each subspace H/S matrix       14.80 Mb     (     985,  985)
        Each <psi_i|beta_j> matrix     20.79 Mb     (    1844,  739)
        Arrays for rho mixing          18.75 Mb     (  153600,    8)

     Initial potential from superposition of free atoms
     Check: negative starting charge=   -0.002169

     starting charge 1215.81748, renormalised to 1232.00000

     negative rho (up, down):  2.197E-03 0.000E+00
     Starting wfc are 1150 randomized atomic wfcs

     total cpu time spent up to now is      178.0 secs

     Self-consistent Calculation

     iteration #  1     ecut=    80.00 Ry     beta=0.70
     Davidson diagonalization with overlap
     ethr =  1.00E-04,  avg # of iterations = 20.0

     negative rho (up, down):  2.980E+01 0.000E+00

     total cpu time spent up to now is     3076.8 secs

     total energy              =   -8163.62063908 Ry
     Harris-Foulkes estimate   =  -14807.74397208 Ry
     estimated scf accuracy    <  144019.14297094 Ry

     iteration #  2     ecut=    80.00 Ry     beta=0.70
     Davidson diagonalization with overlap
     ethr =  1.00E-02,  avg # of iterations = 15.0

     negative rho (up, down):  2.147E+01 0.000E+00

     total cpu time spent up to now is     4751.4 secs

     total energy              =  -12580.93732900 Ry
     Harris-Foulkes estimate   =  -13181.26334288 Ry
     estimated scf accuracy    <    1807.96146551 Ry

     iteration #  3     ecut=    80.00 Ry     beta=0.70
     Davidson diagonalization with overlap
     ethr =  1.00E-02,  avg # of iterations =  5.0

     negative rho (up, down):  1.585E+01 0.000E+00

     total cpu time spent up to now is     5433.7 secs

     total energy              =  -12663.48531056 Ry
     Harris-Foulkes estimate   =  -12752.44367346 Ry
     estimated scf accuracy    <     523.14418862 Ry

     iteration #  4     ecut=    80.00 Ry     beta=0.70
     Davidson diagonalization with overlap
     ethr =  1.00E-02,  avg # of iterations =  3.5

     negative rho (up, down):  1.624E+01 0.000E+00

     total cpu time spent up to now is     5917.1 secs

     total energy              =  -12716.15784239 Ry
     Harris-Foulkes estimate   =  -12704.80905562 Ry
     estimated scf accuracy    <    1208.34578090 Ry

     iteration #  5     ecut=    80.00 Ry     beta=0.70
     Davidson diagonalization with overlap
     ethr =  1.00E-02,  avg # of iterations =  1.0

     negative rho (up, down):  1.297E+01 0.000E+00

     total cpu time spent up to now is     6223.6 secs

     total energy              =  -12698.93760843 Ry
     Harris-Foulkes estimate   =  -12719.32459083 Ry
     estimated scf accuracy    <    2181.59717888 Ry

     iteration #  6     ecut=    80.00 Ry     beta=0.70
     Davidson diagonalization with overlap
     ethr =  1.00E-02,  avg # of iterations =  3.0

     negative rho (up, down):  8.700E+00 0.000E+00

     total cpu time spent up to now is     6569.6 secs

     total energy              =  -12643.40952660 Ry
     Harris-Foulkes estimate   =  -12716.28502065 Ry
     estimated scf accuracy    <    2481.19136146 Ry

     iteration #  7     ecut=    80.00 Ry     beta=0.70
     Davidson diagonalization with overlap
     ethr =  1.00E-02,  avg # of iterations =  3.8

     negative rho (up, down):  6.786E+00 0.000E+00

     total cpu time spent up to now is     6958.5 secs

     total energy              =  -12630.54683119 Ry
     Harris-Foulkes estimate   =  -12678.97544665 Ry
     estimated scf accuracy    <     971.02567574 Ry

     iteration #  8     ecut=    80.00 Ry     beta=0.70
     Davidson diagonalization with overlap
     ethr =  1.00E-02,  avg # of iterations =  1.8

     negative rho (up, down):  6.080E+00 0.000E+00

     total cpu time spent up to now is     7279.3 secs

     total energy              =  -12623.72466498 Ry
     Harris-Foulkes estimate   =  -12646.33288362 Ry
     estimated scf accuracy    <     649.67955774 Ry

     iteration #  9     ecut=    80.00 Ry     beta=0.70
     Davidson diagonalization with overlap
     ethr =  1.00E-02,  avg # of iterations =  3.0

     negative rho (up, down):  5.191E+00 0.000E+00

     total cpu time spent up to now is     7648.2 secs

     total energy              =  -12616.53601790 Ry
     Harris-Foulkes estimate   =  -12633.36093416 Ry
     estimated scf accuracy    <     343.61615035 Ry

     iteration # 10     ecut=    80.00 Ry     beta=0.70
     Davidson diagonalization with overlap
     ethr =  1.00E-02,  avg # of iterations =  1.0

     negative rho (up, down):  5.590E+00 0.000E+00

     total cpu time spent up to now is     7954.3 secs

     total energy              =  -12616.81484746 Ry
     Harris-Foulkes estimate   =  -12623.11851372 Ry
     estimated scf accuracy    <     315.58644816 Ry

     iteration # 11     ecut=    80.00 Ry     beta=0.70
     Davidson diagonalization with overlap
     ethr =  1.00E-02,  avg # of iterations =  1.0

     negative rho (up, down):  3.322E+00 0.000E+00

     total cpu time spent up to now is     8262.1 secs

     total energy              =  -12591.86532305 Ry
     Harris-Foulkes estimate   =  -12623.99234834 Ry
     estimated scf accuracy    <     246.89038166 Ry

     iteration # 12     ecut=    80.00 Ry     beta=0.70
     Davidson diagonalization with overlap
     ethr =  1.00E-02,  avg # of iterations =  2.0

     negative rho (up, down):  3.796E+00 0.000E+00

     total cpu time spent up to now is     8589.6 secs

     total energy              =  -12557.09236778 Ry
     Harris-Foulkes estimate   =  -12603.51119510 Ry
     estimated scf accuracy    <     122.12801866 Ry

     iteration # 13     ecut=    80.00 Ry     beta=0.70
     Davidson diagonalization with overlap
     ethr =  9.91E-03,  avg # of iterations =  3.0

     negative rho (up, down):  1.481E+00 0.000E+00

     total cpu time spent up to now is     8945.7 secs

     total energy              =  -12530.03653357 Ry
     Harris-Foulkes estimate   =  -12572.93502591 Ry
     estimated scf accuracy    <     411.23536457 Ry

     iteration # 14     ecut=    80.00 Ry     beta=0.70
     Davidson diagonalization with overlap
     ethr =  9.91E-03,  avg # of iterations =  3.0

     negative rho (up, down):  1.149E+00 0.000E+00

     total cpu time spent up to now is     9305.8 secs

     total energy              =  -12552.75829738 Ry
     Harris-Foulkes estimate   =  -12567.53689914 Ry
     estimated scf accuracy    <     263.82315310 Ry

     iteration # 15     ecut=    80.00 Ry     beta=0.70
     Davidson diagonalization with overlap
     ethr =  9.91E-03,  avg # of iterations =  2.0

     negative rho (up, down):  1.628E+00 0.000E+00

     total cpu time spent up to now is     9635.9 secs

     total energy              =  -12552.86137917 Ry
     Harris-Foulkes estimate   =  -12568.79603842 Ry
     estimated scf accuracy    <      93.08201928 Ry

     iteration # 16     ecut=    80.00 Ry     beta=0.70
     Davidson diagonalization with overlap
     ethr =  7.56E-03,  avg # of iterations =  1.0

     negative rho (up, down):  2.324E+00 0.000E+00

     total cpu time spent up to now is     9943.4 secs

     total energy              =  -12544.76416624 Ry
     Harris-Foulkes estimate   =  -12555.09511202 Ry
     estimated scf accuracy    <      69.50495631 Ry

     iteration # 17     ecut=    80.00 Ry     beta=0.70
     Davidson diagonalization with overlap
     ethr =  5.64E-03,  avg # of iterations =  2.0

     negative rho (up, down):  4.055E+00 0.000E+00

     total cpu time spent up to now is    10269.0 secs

     total energy              =  -12545.70101165 Ry
     Harris-Foulkes estimate   =  -12550.26697602 Ry
     estimated scf accuracy    <      84.58759652 Ry

     iteration # 18     ecut=    80.00 Ry     beta=0.70
     Davidson diagonalization with overlap
     ethr =  5.64E-03,  avg # of iterations =  1.5

     negative rho (up, down):  4.354E+00 0.000E+00

     total cpu time spent up to now is    10586.0 secs

     total energy              =  -12539.41062845 Ry
     Harris-Foulkes estimate   =  -12548.68591698 Ry
     estimated scf accuracy    <     185.70182482 Ry

     iteration # 19     ecut=    80.00 Ry     beta=0.70
     Davidson diagonalization with overlap
     ethr =  5.64E-03,  avg # of iterations =  1.7

     negative rho (up, down):  3.857E+00 0.000E+00

     total cpu time spent up to now is    10907.7 secs

     total energy              =  -12539.90624825 Ry
     Harris-Foulkes estimate   =  -12545.53374913 Ry
     estimated scf accuracy    <      73.56796843 Ry

     iteration # 20     ecut=    80.00 Ry     beta=0.70
     Davidson diagonalization with overlap
     ethr =  5.64E-03,  avg # of iterations =  2.0

     negative rho (up, down):  2.748E+00 0.000E+00

     total cpu time spent up to now is    11236.1 secs

     total energy              =  -12538.56200311 Ry
     Harris-Foulkes estimate   =  -12542.82946279 Ry
     estimated scf accuracy    <      35.47033896 Ry

     iteration # 21     ecut=    80.00 Ry     beta=0.70
     Davidson diagonalization with overlap
     ethr =  2.88E-03,  avg # of iterations =  1.2

     negative rho (up, down):  3.074E+00 0.000E+00

     total cpu time spent up to now is    11546.3 secs

     total energy              =  -12538.35084867 Ry
     Harris-Foulkes estimate   =  -12539.49989097 Ry
     estimated scf accuracy    <      14.46517947 Ry

     iteration # 22     ecut=    80.00 Ry     beta=0.70
     Davidson diagonalization with overlap
     ethr =  1.17E-03,  avg # of iterations =  6.3

     negative rho (up, down):  2.125E+00 0.000E+00

     total cpu time spent up to now is    11967.4 secs

     total energy              =  -12536.65953361 Ry
     Harris-Foulkes estimate   =  -12538.84718063 Ry
     estimated scf accuracy    <      12.10346666 Ry

     iteration # 23     ecut=    80.00 Ry     beta=0.70
     Davidson diagonalization with overlap
     ethr =  9.82E-04,  avg # of iterations =  3.0

     negative rho (up, down):  2.066E+00 0.000E+00

     total cpu time spent up to now is    12316.3 secs

     total energy              =  -12536.80636742 Ry
     Harris-Foulkes estimate   =  -12537.17402441 Ry
     estimated scf accuracy    <       8.90137277 Ry

     iteration # 24     ecut=    80.00 Ry     beta=0.70
     Davidson diagonalization with overlap
     ethr =  7.23E-04,  avg # of iterations =  1.3

     negative rho (up, down):  7.592E-01 0.000E+00

     total cpu time spent up to now is    12629.3 secs

     total energy              =  -12535.11445738 Ry
     Harris-Foulkes estimate   =  -12537.04152095 Ry
     estimated scf accuracy    <       7.27485968 Ry

     iteration # 25     ecut=    80.00 Ry     beta=0.70
     Davidson diagonalization with overlap
     ethr =  5.90E-04,  avg # of iterations =  8.8

     negative rho (up, down):  4.840E-01 0.000E+00

     total cpu time spent up to now is    13088.8 secs

     total energy              =  -12535.13512435 Ry
     Harris-Foulkes estimate   =  -12535.62290493 Ry
     estimated scf accuracy    <      19.06891776 Ry

     iteration # 26     ecut=    80.00 Ry     beta=0.70
     Davidson diagonalization with overlap
     ethr =  5.90E-04,  avg # of iterations =  3.8

     negative rho (up, down):  3.034E-02 0.000E+00

     total cpu time spent up to now is    13446.4 secs

     total energy              =  -12534.34739015 Ry
     Harris-Foulkes estimate   =  -12535.44747176 Ry
     estimated scf accuracy    <       5.53633460 Ry

     iteration # 27     ecut=    80.00 Ry     beta=0.70
     Davidson diagonalization with overlap
     ethr =  4.49E-04,  avg # of iterations =  8.3

     negative rho (up, down):  3.989E-02 0.000E+00

     total cpu time spent up to now is    13884.5 secs

     total energy              =  -12534.06437048 Ry
     Harris-Foulkes estimate   =  -12534.48978714 Ry
     estimated scf accuracy    <      10.35964007 Ry

     iteration # 28     ecut=    80.00 Ry     beta=0.70
     Davidson diagonalization with overlap
     ethr =  4.49E-04,  avg # of iterations =  1.0

     negative rho (up, down):  6.010E-02 0.000E+00

     total cpu time spent up to now is    14198.1 secs

     total energy              =  -12533.50081397 Ry
     Harris-Foulkes estimate   =  -12534.14990431 Ry
     estimated scf accuracy    <       9.44816995 Ry

     iteration # 29     ecut=    80.00 Ry     beta=0.70
     Davidson diagonalization with overlap
     ethr =  4.49E-04,  avg # of iterations =  1.5

     negative rho (up, down):  2.485E-02 0.000E+00

     total cpu time spent up to now is    14517.2 secs

     total energy              =  -12532.93811888 Ry
     Harris-Foulkes estimate   =  -12533.66060984 Ry
     estimated scf accuracy    <       6.15194609 Ry

     iteration # 30     ecut=    80.00 Ry     beta=0.70
     Davidson diagonalization with overlap
     ethr =  4.49E-04,  avg # of iterations =  1.3

     negative rho (up, down):  2.748E-02 0.000E+00

     total cpu time spent up to now is    14833.9 secs

     total energy              =  -12532.72106728 Ry
     Harris-Foulkes estimate   =  -12533.11030827 Ry
     estimated scf accuracy    <       2.60263995 Ry

     iteration # 31     ecut=    80.00 Ry     beta=0.70
     Davidson diagonalization with overlap
     ethr =  2.11E-04,  avg # of iterations =  4.3

     negative rho (up, down):  1.418E-01 0.000E+00

     total cpu time spent up to now is    15204.2 secs

     total energy              =  -12532.53464996 Ry
     Harris-Foulkes estimate   =  -12532.79915591 Ry
     estimated scf accuracy    <       1.58727370 Ry

     iteration # 32     ecut=    80.00 Ry     beta=0.70
     Davidson diagonalization with overlap
     ethr =  1.29E-04,  avg # of iterations =  6.7

     negative rho (up, down):  5.956E-01 0.000E+00

     total cpu time spent up to now is    15627.6 secs

     total energy              =  -12532.27373811 Ry
     Harris-Foulkes estimate   =  -12532.58756857 Ry
     estimated scf accuracy    <       1.21348682 Ry

     iteration # 33     ecut=    80.00 Ry     beta=0.70
     Davidson diagonalization with overlap
     ethr =  9.85E-05,  avg # of iterations =  7.0

     negative rho (up, down):  4.634E-01 0.000E+00

     total cpu time spent up to now is    16120.9 secs

     total energy              =  -12532.26032717 Ry
     Harris-Foulkes estimate   =  -12532.33243673 Ry
     estimated scf accuracy    <       0.54675920 Ry

     iteration # 34     ecut=    80.00 Ry     beta=0.70
     Davidson diagonalization with overlap
     ethr =  4.44E-05,  avg # of iterations =  7.5

     negative rho (up, down):  3.858E-01 0.000E+00

     total cpu time spent up to now is    16574.7 secs

     total energy              =  -12532.24578712 Ry
     Harris-Foulkes estimate   =  -12532.28200749 Ry
     estimated scf accuracy    <       0.30431533 Ry

     iteration # 35     ecut=    80.00 Ry     beta=0.70
     Davidson diagonalization with overlap
     ethr =  2.47E-05,  avg # of iterations =  7.0

     negative rho (up, down):  5.229E-02 0.000E+00

     total cpu time spent up to now is    17022.4 secs

     total energy              =  -12532.22871840 Ry
     Harris-Foulkes estimate   =  -12532.26050848 Ry
     estimated scf accuracy    <       0.18768288 Ry

     iteration # 36     ecut=    80.00 Ry     beta=0.70
     Davidson diagonalization with overlap
     ethr =  1.52E-05,  avg # of iterations = 12.7

     negative rho (up, down):  5.544E-02 0.000E+00

     total cpu time spent up to now is    17627.0 secs

     total energy              =  -12532.23507991 Ry
     Harris-Foulkes estimate   =  -12532.24123434 Ry
     estimated scf accuracy    <       0.03446743 Ry

     iteration # 37     ecut=    80.00 Ry     beta=0.70
     Davidson diagonalization with overlap
     ethr =  2.80E-06,  avg # of iterations = 10.2

     negative rho (up, down):  5.544E-02 0.000E+00

     total cpu time spent up to now is    18149.4 secs

     total energy              =  -12532.23533603 Ry
     Harris-Foulkes estimate   =  -12532.23765193 Ry
     estimated scf accuracy    <       0.01640876 Ry

     iteration # 38     ecut=    80.00 Ry     beta=0.70
     Davidson diagonalization with overlap
     ethr =  1.33E-06,  avg # of iterations = 10.2

     negative rho (up, down):  1.331E-02 0.000E+00

     total cpu time spent up to now is    18677.8 secs

     total energy              =  -12532.23529000 Ry
     Harris-Foulkes estimate   =  -12532.23642464 Ry
     estimated scf accuracy    <       0.00429077 Ry

     iteration # 39     ecut=    80.00 Ry     beta=0.70
     Davidson diagonalization with overlap
     ethr =  3.48E-07,  avg # of iterations = 12.3

     negative rho (up, down):  1.221E-02 0.000E+00

     total cpu time spent up to now is    19268.7 secs

     total energy              =  -12532.23560315 Ry
     Harris-Foulkes estimate   =  -12532.23562087 Ry
     estimated scf accuracy    <       0.00099438 Ry

     iteration # 40     ecut=    80.00 Ry     beta=0.70
     Davidson diagonalization with overlap
     ethr =  8.07E-08,  avg # of iterations =  3.0

     negative rho (up, down):  3.608E-03 0.000E+00

     total cpu time spent up to now is    19640.7 secs

     total energy              =  -12532.23576870 Ry
     Harris-Foulkes estimate   =  -12532.23569537 Ry
     estimated scf accuracy    <       0.00044232 Ry

     iteration # 41     ecut=    80.00 Ry     beta=0.70
     Davidson diagonalization with overlap
     ethr =  3.59E-08,  avg # of iterations = 13.3

     negative rho (up, down):  4.386E-03 0.000E+00

     total cpu time spent up to now is    20272.4 secs

     total energy              =  -12532.23583195 Ry
     Harris-Foulkes estimate   =  -12532.23581573 Ry
     estimated scf accuracy    <       0.00021209 Ry

     iteration # 42     ecut=    80.00 Ry     beta=0.70
     Davidson diagonalization with overlap
     ethr =  1.72E-08,  avg # of iterations =  8.0

     negative rho (up, down):  4.602E-03 0.000E+00

     total cpu time spent up to now is    20760.1 secs

     total energy              =  -12532.23586361 Ry
     Harris-Foulkes estimate   =  -12532.23585116 Ry
     estimated scf accuracy    <       0.00005456 Ry

     iteration # 43     ecut=    80.00 Ry     beta=0.70
     Davidson diagonalization with overlap
     ethr =  4.43E-09,  avg # of iterations =  4.3

     negative rho (up, down):  3.429E-03 0.000E+00

     total cpu time spent up to now is    21155.2 secs

     total energy              =  -12532.23586093 Ry
     Harris-Foulkes estimate   =  -12532.23586863 Ry
     estimated scf accuracy    <       0.00001520 Ry

     iteration # 44     ecut=    80.00 Ry     beta=0.70
     Davidson diagonalization with overlap
     ethr =  1.23E-09,  avg # of iterations =  7.5

     negative rho (up, down):  2.658E-03 0.000E+00

     total cpu time spent up to now is    21636.3 secs

     total energy              =  -12532.23585457 Ry
     Harris-Foulkes estimate   =  -12532.23586258 Ry
     estimated scf accuracy    <       0.00000670 Ry

     iteration # 45     ecut=    80.00 Ry     beta=0.70
     Davidson diagonalization with overlap
     ethr =  5.44E-10,  avg # of iterations =  6.5

     negative rho (up, down):  2.364E-03 0.000E+00

     total cpu time spent up to now is    22085.3 secs

     total energy              =  -12532.23585566 Ry
     Harris-Foulkes estimate   =  -12532.23585519 Ry
     estimated scf accuracy    <       0.00000139 Ry

     iteration # 46     ecut=    80.00 Ry     beta=0.70
     Davidson diagonalization with overlap
     ethr =  1.12E-10,  avg # of iterations =  3.0

     negative rho (up, down):  2.329E-03 0.000E+00

     total cpu time spent up to now is    22446.9 secs

     total energy              =  -12532.23585607 Ry
     Harris-Foulkes estimate   =  -12532.23585579 Ry
     estimated scf accuracy    <       0.00000089 Ry

     iteration # 47     ecut=    80.00 Ry     beta=0.70
     Davidson diagonalization with overlap
     ethr =  7.23E-11,  avg # of iterations =  3.0

     negative rho (up, down):  2.212E-03 0.000E+00

     total cpu time spent up to now is    22805.0 secs

     total energy              =  -12532.23585649 Ry
     Harris-Foulkes estimate   =  -12532.23585615 Ry
     estimated scf accuracy    <       0.00000039 Ry

     iteration # 48     ecut=    80.00 Ry     beta=0.70
     Davidson diagonalization with overlap
     ethr =  3.19E-11,  avg # of iterations =  3.5

     negative rho (up, down):  2.172E-03 0.000E+00

     total cpu time spent up to now is    23181.2 secs

     total energy              =  -12532.23585666 Ry
     Harris-Foulkes estimate   =  -12532.23585653 Ry
     estimated scf accuracy    <       0.00000005 Ry

     iteration # 49     ecut=    80.00 Ry     beta=0.70
     Davidson diagonalization with overlap
     ethr =  4.45E-12,  avg # of iterations =  3.0

     negative rho (up, down):  2.180E-03 0.000E+00

     total cpu time spent up to now is    23632.1 secs

     total energy              =  -12532.23585671 Ry
     Harris-Foulkes estimate   =  -12532.23585667 Ry
     estimated scf accuracy    <       0.00000002 Ry

     iteration # 50     ecut=    80.00 Ry     beta=0.70
     Davidson diagonalization with overlap
     ethr =  1.80E-12,  avg # of iterations =  3.0

     negative rho (up, down):  2.145E-03 0.000E+00

     total cpu time spent up to now is    23977.6 secs

     End of self-consistent calculation

          k = 0.0000 0.0000 0.0000 (256287 PWs)   bands (ev):

   -19.9881 -16.2799 -15.7002 -14.7403 -14.3347 -14.3215 -13.8005 -13.7774
   -13.4606 -12.9051 -12.8611 -12.0274 -11.7364 -11.6449 -10.3860 -10.3008
    -9.4053  -9.1145  -9.0729  -8.4339  -8.3596  -7.9285  -7.5459  -7.5049
    -7.2542  -7.0753  -6.6881  -6.4667  -6.1819  -6.1708  -5.8266  -5.6463
    -5.6389  -5.5935  -5.3443  -5.3277  -5.1842  -4.8450  -4.7400  -4.7167
    -4.4646  -4.3168  -4.1974  -4.1454  -4.1207  -3.8369  -3.6512  -3.5596
    -3.5567  -3.3946  -3.3223  -3.2868  -3.2256  -3.1851  -3.1667  -3.1629
    -3.1592  -3.1580  -3.1373  -3.1178  -3.0674  -2.9235  -2.8720  -2.8591
    -2.8069  -2.7593  -2.7510  -2.7106  -2.6888  -2.4945  -2.4926  -2.4858
    -2.4761  -2.3602  -2.3501  -2.3458  -2.3366  -2.3090  -2.3084  -2.3034
    -2.3030  -2.2869  -2.1775  -2.1750  -2.1703  -2.1682  -2.1080  -2.0548
    -2.0279  -1.9950  -1.9305  -1.9148  -1.9050  -1.8909  -1.8862  -1.8761
    -1.8558  -1.8270  -1.8182  -1.8119  -1.8017  -1.7746  -1.7632  -1.7398
    -1.7213  -1.7204  -1.7190  -1.7037  -1.6880  -1.6695  -1.6646  -1.6584
    -1.6480  -1.6214  -1.6008  -1.5989  -1.5637  -1.5408  -1.5213  -1.5036
    -1.4636  -1.4505  -1.4348  -1.4182  -1.4095  -1.4009  -1.3866  -1.3626
    -1.3616  -1.3456  -1.3375  -1.3216  -1.3113  -1.2567  -1.2142  -1.2018
    -1.2013  -1.1865  -1.1847  -1.1835  -1.1804  -1.1764  -1.1737  -1.1723
    -1.1708  -1.1686  -1.1571  -1.1540  -1.1492  -1.1443  -1.1329  -1.1015
    -1.0918  -1.0890  -1.0817  -1.0689  -1.0669  -1.0637  -1.0625  -1.0216
    -1.0141  -1.0095  -1.0089  -1.0079  -1.0054  -1.0047  -1.0015  -1.0005
    -0.9994  -0.9981  -0.9956  -0.9936  -0.9924  -0.9900  -0.9802  -0.9731
    -0.9323  -0.8977  -0.8450  -0.8358  -0.8346  -0.8343  -0.8219  -0.8098
    -0.7935  -0.7898  -0.7804  -0.7738  -0.7650  -0.7559  -0.7497  -0.7488
    -0.7420  -0.7369  -0.7184  -0.7170  -0.7096  -0.7084  -0.7041  -0.7036
    -0.6945  -0.6885  -0.6457  -0.6352  -0.5911  -0.5900  -0.5817  -0.5791
    -0.5778  -0.5747  -0.5698  -0.5652  -0.5568  -0.5550  -0.5538  -0.5516
    -0.5510  -0.5503  -0.5494  -0.5365  -0.5359  -0.5345  -0.5329  -0.5277
    -0.5124  -0.4991  -0.4970  -0.4673  -0.4589  -0.4444  -0.4435  -0.4408
    -0.4379  -0.4185  -0.4167  -0.4110  -0.4106  -0.3997  -0.3981  -0.3957
    -0.3924  -0.3909  -0.3762  -0.3758  -0.3734  -0.3689  -0.3663  -0.3646
    -0.3627  -0.3596  -0.3569  -0.3562  -0.3539  -0.3446  -0.3436  -0.3364
    -0.3335  -0.3168  -0.2922  -0.2728  -0.2686  -0.2663  -0.2647  -0.2619
    -0.2329  -0.2225  -0.2182  -0.2174  -0.2149  -0.2135  -0.2108  -0.2090
    -0.2088  -0.2070  -0.1823  -0.1670  -0.1614  -0.1598  -0.1529  -0.1494
    -0.1491  -0.1367  -0.1315  -0.1248  -0.1220  -0.1141  -0.1089  -0.1055
    -0.1047  -0.1038  -0.1011  -0.1002  -0.0903  -0.0898  -0.0885  -0.0862
    -0.0848  -0.0714  -0.0668  -0.0629  -0.0496  -0.0478  -0.0204  -0.0118
    -0.0005   0.0105   0.0167   0.0173   0.0405   0.0453   0.0806   0.0820
     0.0831   0.0947   0.0958   0.0966   0.1014   0.1071   0.1204   0.1224
     0.1274   0.1298   0.1375   0.1539   0.1745   0.1795   0.1871   0.1891
     0.1930   0.2002   0.2049   0.2076   0.2235   0.2289   0.2300   0.2351
     0.2374   0.2478   0.2680   0.2747   0.2767   0.2830   0.2858   0.2929
     0.2957   0.3249   0.3267   0.3389   0.3392   0.3451   0.3512   0.3539
     0.3590   0.3628   0.3651   0.3705   0.3802   0.3806   0.3853   0.3877
     0.3879   0.3896   0.3945   0.3962   0.3979   0.4009   0.4033   0.4068
     0.4087   0.4182   0.4184   0.4478   0.4513   0.4530   0.4541   0.4617
     0.4714   0.4826   0.4934   0.4966   0.4975   0.5010   0.5037   0.5048
     0.5083   0.5092   0.5204   0.5256   0.5277   0.5328   0.5372   0.5392
     0.5402   0.5418   0.5445   0.5505   0.5554   0.5636   0.5661   0.5779
     0.5816   0.5870   0.5903   0.5941   0.5961   0.5963   0.5997   0.6057
     0.6082   0.6145   0.6219   0.6268   0.6554   0.6577   0.6626   0.6679
     0.6700   0.6705   0.6761   0.6818   0.7056   0.7080   0.7189   0.7195
     0.7283   0.7286   0.7378   0.7411   0.7448   0.7479   0.7496   0.7507
     0.7612   0.7630   0.7685   0.7736   0.7777   0.7814   0.7857   0.7897
     0.7973   0.8041   0.8094   0.8219   0.8278   0.8308   0.8375   0.8391
     0.8444   0.8519   0.8578   0.8593   0.8630   0.8658   0.8684   0.8702
     0.8731   0.8768   0.8814   0.8842   0.8878   0.8886   0.8914   0.9013
     0.9073   0.9101   0.9215   0.9220   0.9309   0.9328   0.9342   0.9466
     0.9487   0.9528   0.9594   0.9607   0.9636   0.9641   0.9659   0.9680
     0.9714   0.9716   0.9839   0.9858   0.9880   0.9894   1.0156   1.0197
     1.0223   1.0372   1.0477   1.0500   1.0544   1.0574   1.0582   1.0594
     1.0627   1.0651   1.0661   1.0751   1.0846   1.0865   1.0887   1.0906
     1.0993   1.1020   1.1068   1.1073   1.1129   1.1151   1.1214   1.1245
     1.1297   1.1308   1.1328   1.1342   1.1364   1.1431   1.1442   1.1520
     1.1533   1.1569   1.1616   1.1622   1.1627   1.1638   1.1657   1.1686
     1.1738   1.1796   1.1926   1.1984   1.1998   1.2014   1.2070   1.2120
     1.2146   1.2178   1.2316   1.2380   1.2429   1.2435   1.2543   1.2579
     1.2597   1.2638   1.2686   1.2706   1.2725   1.2744   1.2795   1.2834
     1.2847   1.2891   1.2895   1.2944   1.2978   1.3020   1.3044   1.3064
     1.3169   1.3192   1.3208   1.3221   1.3275   1.3319   1.3329   1.3352
     1.3415   1.3578   1.3673   1.3716   1.4073   1.4095   1.4115   1.4182
     1.4200   1.4281   1.4325   1.4359   1.4559   1.4611   1.4756   1.4774
     1.4819   1.4918   1.4956   1.4987   1.5064   1.5133   1.7478   1.8054
     1.8911   1.9210   1.9347   1.9742   1.9967   2.0427   2.0536   2.0566
     2.0595   2.0608   2.0756   2.0833   2.1302   2.1817   2.2863   2.2920
     2.3054   2.3127   2.3258   2.3306   2.3572   2.3759   2.5574   2.5653
     2.5934   2.6540   2.9597   3.3111   3.3738   3.4479   3.5393   3.6289
     3.6507   3.6860   3.6957   3.7083   3.7347   3.7575   3.7890   3.8061
     3.8290   3.8399   3.8591   3.8677   3.8961   3.9106   3.9376   4.0681
     4.0733   4.1505   4.1935   4.2615   4.6212   4.7844   4.9599   5.0129
     5.0778   5.1427   5.2417   5.4541   5.4792   5.5936   5.6085   5.6712
     5.7477   5.7951   6.0255   6.0561   6.1413   6.1761   6.2319   6.2759
     6.3023   6.3066   6.3699   6.4843   6.5196   6.5256   6.5686   6.5739
     6.6043   6.7282   6.8267   6.8582   6.8763   6.9293   6.9843   7.0178
     7.0626   7.1970   7.2101   7.2164   7.3015   7.3665   7.4546   7.4775
     7.5027   7.5418   7.5724   7.5880   7.6650   7.7797   7.8716   7.9022
     7.9349   7.9487   7.9920   8.0604   8.1421   8.1825   8.1870   8.2024
     8.2323   8.2511   8.2707   8.3278   8.3890   8.4057   8.4310   8.4427
     8.5144   8.5637   8.6216   8.6462   8.6638   8.6954   8.7142   8.7480
     8.7561   8.7958   8.8144   8.8414   8.8803   8.9359   8.9683   9.0204
     9.0433   9.1817   9.1984   9.2268   9.2609   9.3133   9.4033   9.4359
     9.4483   9.5440   9.5594

          k = 0.0000-0.2165 0.0000 (256176 PWs)   bands (ev):

   -19.9881 -16.2799 -15.7002 -14.7403 -14.3347 -14.3215 -13.8005 -13.7774
   -13.4606 -12.9051 -12.8611 -12.0274 -11.7364 -11.6448 -10.3860 -10.3008
    -9.4052  -9.1145  -9.0729  -8.4340  -8.3596  -7.9287  -7.5456  -7.5048
    -7.2541  -7.0753  -6.6880  -6.4668  -6.1819  -6.0444  -6.0292  -5.8263
    -5.6027  -5.3446  -5.3293  -5.1323  -5.0168  -4.9867  -4.9449  -4.8409
    -4.5820  -4.3793  -4.3174  -4.0351  -3.8794  -3.8082  -3.5366  -3.4629
    -3.4602  -3.4463  -3.4413  -3.3568  -3.3090  -3.2467  -3.2097  -3.1983
    -3.1808  -3.1728  -3.1369  -3.0704  -2.8934  -2.8547  -2.7610  -2.7489
    -2.7383  -2.7347  -2.7313  -2.7221  -2.7101  -2.6892  -2.6057  -2.5905
    -2.4101  -2.3965  -2.3940  -2.3707  -2.3537  -2.3306  -2.3042  -2.3009
    -2.2830  -2.2794  -2.2435  -2.1378  -2.1378  -2.1146  -2.1145  -2.0708
    -2.0299  -2.0013  -1.9727  -1.9288  -1.9192  -1.9137  -1.9017  -1.8986
    -1.8926  -1.8924  -1.8735  -1.8686  -1.8372  -1.8284  -1.8010  -1.7941
    -1.7786  -1.7664  -1.6823  -1.6326  -1.6112  -1.6103  -1.6066  -1.5925
    -1.5326  -1.5237  -1.5196  -1.5091  -1.4688  -1.4664  -1.4430  -1.4314
    -1.4279  -1.4262  -1.4233  -1.4193  -1.4153  -1.3945  -1.3862  -1.3814
    -1.3736  -1.3706  -1.3653  -1.3633  -1.3559  -1.3174  -1.3092  -1.2885
    -1.2796  -1.2592  -1.2398  -1.2384  -1.2037  -1.2013  -1.1982  -1.1972
    -1.1629  -1.1439  -1.1422  -1.1391  -1.1320  -1.1299  -1.1247  -1.1218
    -1.1046  -1.0881  -1.0810  -1.0716  -1.0706  -1.0693  -1.0624  -1.0610
    -1.0579  -1.0556  -1.0415  -1.0347  -1.0066  -0.9829  -0.9767  -0.9701
    -0.9689  -0.9648  -0.9636  -0.9463  -0.9420  -0.9332  -0.9242  -0.9059
    -0.9052  -0.9025  -0.8942  -0.8620  -0.8126  -0.8114  -0.8006  -0.7977
    -0.7851  -0.7841  -0.7801  -0.7601  -0.7573  -0.7541  -0.7531  -0.7508
    -0.7446  -0.7281  -0.7216  -0.7008  -0.6988  -0.6900  -0.6869  -0.6837
    -0.6828  -0.6814  -0.6784  -0.6546  -0.6430  -0.6379  -0.6377  -0.6330
    -0.6079  -0.6018  -0.6000  -0.5988  -0.5962  -0.5950  -0.5929  -0.5707
    -0.5682  -0.5570  -0.5239  -0.5180  -0.5166  -0.5049  -0.5004  -0.5000
    -0.4803  -0.4730  -0.4575  -0.4548  -0.4515  -0.4472  -0.4415  -0.4408
    -0.4356  -0.4291  -0.4249  -0.4119  -0.4112  -0.4014  -0.3984  -0.3957
    -0.3940  -0.3918  -0.3915  -0.3837  -0.3786  -0.3744  -0.3658  -0.3627
    -0.3594  -0.3570  -0.3515  -0.3496  -0.3137  -0.2969  -0.2930  -0.2916
    -0.2880  -0.2861  -0.2816  -0.2775  -0.2752  -0.2580  -0.2561  -0.2448
    -0.2388  -0.2380  -0.2332  -0.2306  -0.2302  -0.2280  -0.2262  -0.2206
    -0.2183  -0.2069  -0.1737  -0.1703  -0.1694  -0.1664  -0.1634  -0.1536
    -0.1471  -0.1464  -0.1429  -0.1348  -0.1313  -0.1252  -0.1240  -0.1201
    -0.1180  -0.1090  -0.0941  -0.0900  -0.0785  -0.0781  -0.0768  -0.0735
    -0.0570  -0.0565  -0.0455  -0.0383  -0.0330  -0.0304  -0.0254  -0.0233
    -0.0165  -0.0127   0.0150   0.0233   0.0239   0.0353   0.0392   0.0427
     0.0508   0.0521   0.0541   0.0574   0.0748   0.0788   0.1083   0.1117
     0.1143   0.1190   0.1391   0.1644   0.1766   0.1889   0.2166   0.2245
     0.2266   0.2382   0.2390   0.2504   0.2538   0.2584   0.2687   0.2708
     0.2823   0.2868   0.2923   0.2962   0.2999   0.3052   0.3097   0.3112
     0.3152   0.3180   0.3233   0.3244   0.3308   0.3331   0.3340   0.3356
     0.3534   0.3551   0.3663   0.3725   0.3741   0.3743   0.3838   0.3844
     0.3847   0.3866   0.3942   0.3995   0.4034   0.4062   0.4100   0.4116
     0.4142   0.4171   0.4224   0.4273   0.4303   0.4336   0.4342   0.4393
     0.4408   0.4451   0.4462   0.4630   0.4783   0.4893   0.4929   0.5062
     0.5087   0.5088   0.5098   0.5156   0.5189   0.5194   0.5269   0.5309
     0.5318   0.5323   0.5324   0.5347   0.5563   0.5580   0.5706   0.5732
     0.5772   0.5792   0.5858   0.5902   0.5939   0.5964   0.6058   0.6145
     0.6185   0.6201   0.6228   0.6261   0.6337   0.6362   0.6618   0.6825
     0.6851   0.6944   0.7314   0.7337   0.7362   0.7388   0.7417   0.7447
     0.7486   0.7550   0.7555   0.7596   0.7646   0.7687   0.7701   0.7737
     0.7758   0.7769   0.7809   0.7860   0.7881   0.7902   0.7956   0.7998
     0.8031   0.8102   0.8113   0.8132   0.8141   0.8146   0.8179   0.8202
     0.8226   0.8276   0.8291   0.8364   0.8368   0.8374   0.8406   0.8413
     0.8462   0.8499   0.8614   0.8643   0.8736   0.8788   0.8797   0.8819
     0.8827   0.8866   0.8876   0.8897   0.8910   0.8940   0.8993   0.9025
     0.9327   0.9371   0.9720   0.9774   0.9800   0.9855   0.9918   0.9957
     0.9997   1.0037   1.0169   1.0185   1.0202   1.0260   1.0300   1.0314
     1.0349   1.0373   1.0444   1.0483   1.0499   1.0513   1.0551   1.0563
     1.0588   1.0598   1.0609   1.0628   1.0641   1.0716   1.0781   1.0803
     1.0821   1.0849   1.0866   1.0907   1.0916   1.1066   1.1133   1.1164
     1.1189   1.1206   1.1246   1.1271   1.1300   1.1334   1.1430   1.1455
     1.1482   1.1526   1.1556   1.1575   1.1633   1.1672   1.1691   1.1737
     1.1801   1.1860   1.1901   1.1924   1.2037   1.2053   1.2057   1.2166
     1.2234   1.2283   1.2303   1.2317   1.2372   1.2386   1.2429   1.2448
     1.2449   1.2475   1.2629   1.2663   1.2719   1.2791   1.2793   1.2855
     1.2921   1.2976   1.2988   1.3002   1.3013   1.3018   1.3057   1.3063
     1.3308   1.3330   1.3380   1.3389   1.3433   1.3519   1.3588   1.3616
     1.3685   1.3740   1.3746   1.3801   1.3815   1.3864   1.3870   1.4004
     1.4440   1.4465   1.4467   1.4608   1.5010   1.5452   1.5777   1.5856
     1.5961   1.5979   1.6147   1.6198   1.6285   1.6381   1.6543   1.6578
     1.6650   1.6687   1.6697   1.6761   1.7008   1.7050   2.0220   2.1382
     2.2386   2.2517   2.2932   2.2955   2.3306   2.3452   2.4142   2.4209
     2.4306   2.4342   2.4840   2.5284   2.5533   2.5574   2.5589   2.5888
     2.6358   2.6544   2.7700   2.7724   3.0090   3.0091   3.0193   3.0321
     3.1692   3.2900   3.4836   3.5012   3.5277   3.6529   3.8930   3.9167
     3.9896   3.9952   4.1714   4.1744   4.1804   4.1855   4.1934   4.2699
     4.3587   4.5615   4.6791   4.6954   4.8390   4.8971   4.9508   4.9822
     5.1083   5.1183   5.1993   5.2026   5.2233   5.2392   5.3207   5.4420
     5.5497   6.0369   6.0653   6.1160   6.1290   6.2010   6.2394   6.3009
     6.3356   6.3782   6.4195   6.4962   6.5156   6.5390   6.5694   6.6574
     6.7152   6.7381   6.8726   6.8789   6.9151   6.9394   6.9508   6.9702
     6.9794   6.9891   6.9944   7.0588   7.1659   7.2337   7.2491   7.2733
     7.3587   7.4254   7.4768   7.6032   7.6198   7.6626   7.7243   7.8547
     7.9366   7.9750   8.0226   8.0693   8.1491   8.1940   8.2074   8.2127
     8.2910   8.3636   8.3913   8.5212   8.5333   8.5394   8.5601   8.5719
     8.6073   8.6150   8.6244   8.6386   8.7063   8.7255   8.7706   8.7925
     8.8451   8.8589   8.9404   9.0187   9.0973   9.1149   9.1652   9.1833
     9.2178   9.2392   9.2590   9.2680   9.3048   9.3536   9.3846   9.4802
     9.5002   9.5599   9.6037

          k = 0.2500 0.0000 0.0000 (256240 PWs)   bands (ev):

   -19.9879 -16.1566 -15.5799 -15.1762 -14.6382 -14.6040 -13.6940 -13.3478
   -13.2576 -12.7394 -12.4598 -11.9219 -11.8826 -11.0770 -10.9079 -10.2838
    -9.9679  -9.3536  -9.2688  -9.0487  -8.7221  -8.0753  -7.7006  -7.3383
    -6.9278  -6.6937  -6.5196  -6.1852  -5.9916  -5.9484  -5.6972  -5.4675
    -5.4636  -5.3034  -5.0223  -4.8953  -4.8150  -4.6229  -4.5872  -4.5673
    -4.3528  -4.3170  -4.1830  -4.1549  -4.1513  -4.0509  -3.9992  -3.9791
    -3.8358  -3.7601  -3.7527  -3.7179  -3.5857  -3.4919  -3.3914  -3.3413
    -3.2777  -3.2335  -3.1917  -3.1526  -3.1219  -3.0789  -3.0202  -2.9564
    -2.9526  -2.8584  -2.7934  -2.7572  -2.7264  -2.5632  -2.5476  -2.4785
    -2.4478  -2.3445  -2.2563  -2.2536  -2.2389  -2.2334  -2.2145  -2.1390
    -2.0751  -2.0408  -2.0321  -1.9927  -1.9844  -1.9579  -1.9552  -1.9501
    -1.9467  -1.9443  -1.9262  -1.9203  -1.9037  -1.8688  -1.8378  -1.8282
    -1.7959  -1.7920  -1.7674  -1.7575  -1.7365  -1.7327  -1.7305  -1.7291
    -1.7203  -1.7014  -1.6953  -1.6589  -1.6566  -1.6521  -1.6464  -1.6352
    -1.5526  -1.5212  -1.4881  -1.4845  -1.4739  -1.4628  -1.4215  -1.4050
    -1.3990  -1.3961  -1.3946  -1.3860  -1.3741  -1.3616  -1.3506  -1.3407
    -1.3387  -1.3307  -1.3221  -1.3087  -1.2931  -1.2904  -1.2885  -1.2814
    -1.2727  -1.2663  -1.2604  -1.2542  -1.2452  -1.2241  -1.2108  -1.2049
    -1.1955  -1.1790  -1.1741  -1.1671  -1.1580  -1.1568  -1.1543  -1.1493
    -1.1479  -1.1408  -1.1369  -1.1362  -1.1319  -1.1284  -1.1264  -1.1245
    -1.1194  -1.1121  -1.0956  -1.0929  -1.0695  -1.0535  -1.0498  -1.0385
    -1.0040  -0.9999  -0.9673  -0.9663  -0.9529  -0.9476  -0.9380  -0.9227
    -0.9214  -0.9107  -0.9075  -0.9047  -0.8998  -0.8961  -0.8909  -0.8826
    -0.8730  -0.8297  -0.7629  -0.7598  -0.7475  -0.7420  -0.7298  -0.7194
    -0.7178  -0.7133  -0.7069  -0.7027  -0.6998  -0.6981  -0.6877  -0.6844
    -0.6809  -0.6794  -0.6731  -0.6462  -0.6401  -0.6371  -0.6359  -0.6305
    -0.6253  -0.6120  -0.6109  -0.6076  -0.6030  -0.5857  -0.5520  -0.5514
    -0.5470  -0.5452  -0.5391  -0.5362  -0.5331  -0.5305  -0.5131  -0.5071
    -0.5021  -0.4852  -0.4830  -0.4809  -0.4724  -0.4482  -0.4463  -0.4439
    -0.4429  -0.4313  -0.4283  -0.4236  -0.4183  -0.4101  -0.3972  -0.3953
    -0.3930  -0.3800  -0.3708  -0.3650  -0.3580  -0.3481  -0.3464  -0.3403
    -0.3392  -0.3317  -0.3296  -0.3261  -0.3023  -0.3018  -0.2939  -0.2830
    -0.2806  -0.2646  -0.2635  -0.2611  -0.2534  -0.2430  -0.2214  -0.2147
    -0.2136  -0.2114  -0.1987  -0.1891  -0.1872  -0.1742  -0.1659  -0.1626
    -0.1601  -0.1582  -0.1540  -0.1496  -0.1446  -0.1431  -0.1419  -0.1408
    -0.1391  -0.1348  -0.1293  -0.1190  -0.1148  -0.1126  -0.1096  -0.1057
    -0.0974  -0.0902  -0.0834  -0.0754  -0.0709  -0.0687  -0.0542  -0.0398
    -0.0373  -0.0329  -0.0318  -0.0290  -0.0146  -0.0131  -0.0107  -0.0073
    -0.0048  -0.0009   0.0232   0.0317   0.0711   0.0927   0.1011   0.1058
     0.1074   0.1161   0.1190   0.1217   0.1243   0.1255   0.1293   0.1310
     0.1346   0.1396   0.1412   0.1429   0.1468   0.1496   0.1538   0.1584
     0.1670   0.1684   0.1778   0.1809   0.1846   0.1855   0.1928   0.1996
     0.2085   0.2139   0.2175   0.2568   0.2637   0.2694   0.2713   0.2779
     0.2856   0.2882   0.2932   0.2973   0.3002   0.3169   0.3220   0.3241
     0.3263   0.3325   0.3363   0.3394   0.3454   0.3467   0.3493   0.3520
     0.3622   0.3699   0.3737   0.3763   0.3825   0.3867   0.3986   0.4024
     0.4049   0.4062   0.4091   0.4179   0.4267   0.4299   0.4308   0.4350
     0.4445   0.4464   0.4500   0.4549   0.4574   0.4617   0.4668   0.4697
     0.4760   0.4865   0.4902   0.5012   0.5036   0.5095   0.5147   0.5175
     0.5193   0.5235   0.5283   0.5477   0.5583   0.5698   0.5761   0.5877
     0.5896   0.5927   0.5965   0.6032   0.6102   0.6161   0.6187   0.6236
     0.6298   0.6312   0.6327   0.6372   0.6439   0.6556   0.6670   0.6701
     0.6749   0.6779   0.6813   0.6911   0.6986   0.7004   0.7090   0.7102
     0.7202   0.7299   0.7321   0.7381   0.7399   0.7422   0.7426   0.7438
     0.7459   0.7524   0.7573   0.7652   0.7863   0.7982   0.8018   0.8098
     0.8121   0.8176   0.8240   0.8299   0.8319   0.8386   0.8423   0.8434
     0.8497   0.8514   0.8570   0.8593   0.8603   0.8638   0.8666   0.8686
     0.8702   0.8726   0.8745   0.8802   0.8838   0.8847   0.8878   0.8904
     0.8917   0.9034   0.9072   0.9117   0.9159   0.9168   0.9195   0.9248
     0.9303   0.9335   0.9416   0.9502   0.9519   0.9557   0.9582   0.9608
     0.9635   0.9651   0.9723   0.9765   0.9791   0.9836   0.9886   0.9923
     1.0018   1.0040   1.0117   1.0136   1.0297   1.0381   1.0395   1.0423
     1.0502   1.0535   1.0549   1.0644   1.0788   1.0840   1.0931   1.0958
     1.0995   1.1020   1.1065   1.1093   1.1110   1.1128   1.1198   1.1267
     1.1285   1.1357   1.1395   1.1403   1.1450   1.1469   1.1489   1.1528
     1.1544   1.1558   1.1584   1.1656   1.1682   1.1732   1.1759   1.1772
     1.1819   1.1847   1.1879   1.1987   1.2025   1.2044   1.2113   1.2121
     1.2181   1.2205   1.2281   1.2309   1.2319   1.2466   1.2475   1.2511
     1.2552   1.2654   1.2700   1.2710   1.2728   1.2745   1.2762   1.2799
     1.2808   1.2833   1.2865   1.2877   1.2893   1.2909   1.2950   1.3069
     1.3124   1.3146   1.3219   1.3224   1.3235   1.3294   1.3333   1.3352
     1.3403   1.3434   1.3459   1.3572   1.3592   1.3668   1.3680   1.3730
     1.3968   1.3997   1.4057   1.4332   1.4399   1.4590   1.4727   1.4755
     1.4792   1.4858   1.5127   1.5404   1.5987   1.6093   1.6120   1.6336
     1.6436   1.6561   1.6863   1.8771   1.8844   1.9025   1.9253   1.9356
     1.9713   2.0316   2.0636   2.1455   2.3831   2.3986   2.4084   2.4129
     2.6613   2.7676   2.8237   2.8303   2.8730   3.0367   3.0488   3.0651
     3.0655   3.0943   3.1813   3.2247   3.3305   3.3783   3.4678   3.4849
     3.4979   3.5372   3.5465   3.5942   3.6084   3.6580   3.6853   3.7159
     3.7712   3.8379   3.8954   4.0920   4.1120   4.1303   4.2805   4.4864
     4.5655   4.6484   4.6833   4.8889   4.9198   4.9721   5.0572   5.0940
     5.1315   5.1935   5.2955   5.3056   5.3365   5.3447   5.3749   5.3835
     5.5014   5.5057   5.5877   5.6656   5.6981   5.7726   5.8094   5.8559
     5.8595   5.8704   5.9860   6.0418   6.3715   6.4987   6.5217   6.5597
     6.5914   6.6107   6.6724   6.8242   6.8475   6.8710   6.8840   6.8898
     6.9114   6.9838   7.0617   7.0690   7.1375   7.1709   7.2141   7.2741
     7.3389   7.3879   7.4041   7.4245   7.5017   7.5431   7.6201   7.6378
     7.7418   7.8197   7.8501   7.9003   7.9097   7.9263   7.9989   8.0669
     8.1148   8.1319   8.1393   8.1611   8.1933   8.2391   8.2488   8.3644
     8.4294   8.4743   8.4834   8.5631   8.6044   8.6358   8.7869   8.8263
     8.8932   8.9180   8.9696   8.9803   8.9925   8.9984   9.0058   9.0217
     9.0449   9.0801   9.0831   9.1385   9.2130   9.2347   9.2967   9.3290
     9.3360   9.4055   9.4463

          k = 0.2500-0.2165 0.0000 (256316 PWs)   bands (ev):

   -19.9879 -16.1566 -15.5799 -15.1762 -14.6382 -14.6040 -13.6940 -13.3478
   -13.2576 -12.7394 -12.4598 -11.9219 -11.8827 -11.0771 -10.9079 -10.2838
    -9.9679  -9.3535  -9.2688  -9.0487  -8.7221  -8.0754  -7.7010  -7.3379
    -6.9276  -6.6936  -6.5196  -6.1851  -5.9490  -5.8663  -5.8520  -5.6951
    -5.3069  -4.9750  -4.8962  -4.8582  -4.8257  -4.8118  -4.7723  -4.5103
    -4.4936  -4.4368  -4.3590  -4.2561  -4.1516  -3.9199  -3.8191  -3.7675
    -3.7521  -3.7177  -3.6962  -3.6234  -3.6096  -3.5477  -3.5129  -3.4072
    -3.2896  -3.2452  -3.2124  -3.1331  -3.1064  -3.0770  -3.0589  -3.0524
    -3.0043  -2.8724  -2.7960  -2.7479  -2.5570  -2.4722  -2.4623  -2.3629
    -2.3445  -2.3312  -2.3247  -2.3230  -2.3181  -2.2453  -2.1934  -2.1625
    -2.1585  -2.1447  -2.1078  -2.0528  -2.0003  -1.9727  -1.9676  -1.9659
    -1.9377  -1.8931  -1.8868  -1.8726  -1.8654  -1.8590  -1.8526  -1.8426
    -1.8374  -1.8305  -1.8276  -1.8253  -1.8182  -1.8172  -1.8033  -1.7388
    -1.7315  -1.7256  -1.6257  -1.6202  -1.6150  -1.5499  -1.5262  -1.4837
    -1.4779  -1.4693  -1.4327  -1.4299  -1.4281  -1.4153  -1.4146  -1.4073
    -1.4010  -1.3979  -1.3899  -1.3861  -1.3806  -1.3778  -1.3713  -1.3682
    -1.3641  -1.3572  -1.3436  -1.3360  -1.3332  -1.3304  -1.3278  -1.2979
    -1.2840  -1.2787  -1.2729  -1.2694  -1.2632  -1.2616  -1.2439  -1.2295
    -1.2221  -1.1946  -1.1928  -1.1881  -1.1770  -1.1759  -1.1678  -1.1494
    -1.1480  -1.1410  -1.1327  -1.1141  -1.1127  -1.1104  -1.1093  -1.1047
    -1.1020  -1.0995  -1.0796  -1.0755  -1.0664  -1.0570  -1.0282  -1.0248
    -1.0142  -1.0125  -1.0121  -0.9357  -0.9331  -0.9279  -0.9180  -0.9164
    -0.9151  -0.8870  -0.8723  -0.8710  -0.8635  -0.8625  -0.8589  -0.8565
    -0.8494  -0.8358  -0.8273  -0.8003  -0.7960  -0.7716  -0.7627  -0.7600
    -0.7310  -0.7204  -0.7161  -0.7147  -0.7123  -0.7082  -0.6861  -0.6822
    -0.6794  -0.6620  -0.6598  -0.6529  -0.6511  -0.6435  -0.6395  -0.6244
    -0.6122  -0.6002  -0.5880  -0.5859  -0.5755  -0.5643  -0.5591  -0.5586
    -0.5469  -0.5435  -0.5395  -0.5332  -0.5234  -0.5211  -0.5158  -0.5147
    -0.5083  -0.5029  -0.5003  -0.4973  -0.4910  -0.4817  -0.4773  -0.4677
    -0.4671  -0.4413  -0.4345  -0.4262  -0.4135  -0.4108  -0.4058  -0.3990
    -0.3911  -0.3890  -0.3766  -0.3684  -0.3662  -0.3641  -0.3574  -0.3401
    -0.3319  -0.3066  -0.3035  -0.2847  -0.2679  -0.2606  -0.2583  -0.2578
    -0.2550  -0.2527  -0.2394  -0.2359  -0.2234  -0.2214  -0.2177  -0.2159
    -0.2097  -0.2030  -0.1964  -0.1912  -0.1852  -0.1832  -0.1767  -0.1730
    -0.1681  -0.1619  -0.1584  -0.1566  -0.1528  -0.1520  -0.1508  -0.1465
    -0.1439  -0.1414  -0.1327  -0.1268  -0.1215  -0.1198  -0.1160  -0.1152
    -0.0909  -0.0850  -0.0831  -0.0771  -0.0722  -0.0666  -0.0615  -0.0486
    -0.0413  -0.0194  -0.0175  -0.0150  -0.0091  -0.0072   0.0005   0.0019
     0.0053   0.0129   0.0173   0.0215   0.0234   0.0349   0.0497   0.0562
     0.0940   0.1136   0.1174   0.1233   0.1257   0.1289   0.1291   0.1336
     0.1397   0.1430   0.1439   0.1511   0.1523   0.1599   0.1614   0.1705
     0.1760   0.1774   0.1815   0.1856   0.1875   0.2050   0.2104   0.2198
     0.2223   0.2282   0.2341   0.2375   0.2414   0.2456   0.2566   0.2690
     0.2822   0.2868   0.2957   0.2994   0.3028   0.3058   0.3110   0.3188
     0.3230   0.3239   0.3301   0.3330   0.3348   0.3389   0.3422   0.3602
     0.3647   0.3704   0.3760   0.3793   0.3828   0.4139   0.4176   0.4196
     0.4205   0.4403   0.4447   0.4466   0.4495   0.4546   0.4558   0.4610
     0.4661   0.4712   0.4728   0.4773   0.4829   0.4932   0.4968   0.5001
     0.5018   0.5043   0.5083   0.5149   0.5156   0.5164   0.5213   0.5250
     0.5325   0.5352   0.5364   0.5416   0.5460   0.5495   0.5555   0.5578
     0.5593   0.5626   0.5643   0.5664   0.5705   0.5756   0.5881   0.6029
     0.6076   0.6110   0.6162   0.6225   0.6392   0.6437   0.6586   0.6626
     0.6717   0.6733   0.6746   0.6773   0.6784   0.6812   0.6953   0.7008
     0.7014   0.7032   0.7052   0.7060   0.7091   0.7169   0.7293   0.7344
     0.7365   0.7438   0.7465   0.7489   0.7545   0.7660   0.7716   0.7751
     0.7773   0.7836   0.7957   0.8048   0.8131   0.8147   0.8155   0.8190
     0.8230   0.8317   0.8440   0.8493   0.8525   0.8612   0.8646   0.8693
     0.8813   0.8891   0.8949   0.8978   0.9031   0.9198   0.9265   0.9327
     0.9340   0.9364   0.9373   0.9383   0.9393   0.9408   0.9436   0.9477
     0.9520   0.9539   0.9557   0.9609   0.9677   0.9737   0.9745   0.9799
     0.9839   0.9971   1.0086   1.0101   1.0128   1.0168   1.0174   1.0219
     1.0255   1.0275   1.0339   1.0357   1.0379   1.0420   1.0435   1.0483
     1.0503   1.0517   1.0537   1.0596   1.0656   1.0684   1.0710   1.0741
     1.0751   1.0759   1.0791   1.0858   1.0965   1.1008   1.1056   1.1173
     1.1193   1.1215   1.1271   1.1297   1.1340   1.1394   1.1467   1.1507
     1.1584   1.1604   1.1631   1.1728   1.1762   1.1794   1.1818   1.1841
     1.1859   1.1916   1.1942   1.2012   1.2038   1.2053   1.2096   1.2195
     1.2223   1.2273   1.2309   1.2314   1.2339   1.2357   1.2410   1.2435
     1.2455   1.2495   1.2514   1.2534   1.2570   1.2618   1.2674   1.2711
     1.2796   1.2837   1.2866   1.2870   1.2883   1.2920   1.2941   1.2947
     1.2973   1.3049   1.3057   1.3071   1.3265   1.3280   1.3285   1.3342
     1.3436   1.3505   1.3533   1.3589   1.3682   1.3782   1.3794   1.3944
     1.4015   1.4032   1.4039   1.4095   1.4281   1.4426   1.4580   1.4982
     1.5170   1.5278   1.5523   1.5791   1.6031   1.6089   1.6228   1.6282
     1.6381   1.6636   1.6907   1.7246   1.7529   1.9669   1.9722   1.9988
     2.0040   2.1110   2.1429   2.4227   2.4320   2.5678   2.5814   2.6078
     2.6295   2.6357   2.6465   2.6513   2.6696   2.7122   2.7986   2.8362
     2.8780   2.9172   2.9877   3.3837   3.4113   3.4263   3.4569   3.4840
     3.5602   3.6536   3.6904   3.6969   3.7229   3.8242   3.8350   3.9074
     3.9297   4.0045   4.0078   4.2107   4.2270   4.3051   4.3172   4.3493
     4.4522   4.5125   4.5285   4.5780   4.7529   4.8600   4.9327   4.9522
     4.9992   5.0654   5.1564   5.1721   5.2542   5.2795   5.3206   5.3392
     5.3978   5.5806   5.6142   5.6526   5.7054   5.7382   5.8168   5.9504
     6.0547   6.2660   6.3389   6.3972   6.4415   6.4787   6.5336   6.5817
     6.6427   6.6954   6.7275   6.7752   6.8025   6.8668   6.9261   6.9513
     6.9907   7.0069   7.0661   7.0815   7.1460   7.1659   7.1900   7.1979
     7.2605   7.2806   7.3014   7.4336   7.5065   7.5322   7.6059   7.6601
     7.7021   7.7583   7.7918   7.8259   7.8847   7.9418   8.0123   8.0246
     8.0411   8.1247   8.2127   8.3032   8.3205   8.3723   8.4072   8.4589
     8.4666   8.4989   8.5185   8.5521   8.5564   8.6713   8.6889   8.7535
     8.7841   8.7889   8.8519   8.8902   8.9352   8.9507   8.9692   9.0189
     9.0435   9.0703   9.0797   9.0995   9.1109   9.1327   9.1684   9.1963
     9.2209   9.2577   9.2688

          k =-0.5000 0.0000 0.0000 (256496 PWs)   bands (ev):

   -19.9876 -15.7902 -15.7852 -15.2332 -15.2044 -14.3046 -14.2407 -13.0607
   -12.9688 -12.0121 -11.9858 -11.6488 -11.5937 -11.5567 -11.5287 -10.5139
   -10.4049  -9.4568  -9.2990  -9.0662  -9.0012  -8.2808  -8.1387  -7.6019
    -7.2915  -6.4369  -5.5059  -5.4635  -5.4609  -5.4401  -5.3860  -5.0588
    -4.9942  -4.9599  -4.9584  -4.9568  -4.9511  -4.8666  -4.6583  -4.5838
    -4.5360  -4.4984  -4.3749  -4.2248  -4.1297  -4.1054  -4.0505  -4.0352
    -3.8949  -3.8881  -3.8328  -3.7162  -3.6936  -3.6127  -3.5830  -3.5809
    -3.5729  -3.5673  -3.5332  -3.4695  -3.3927  -3.2271  -2.9750  -2.9310
    -2.8191  -2.7992  -2.7941  -2.7753  -2.7290  -2.7269  -2.5433  -2.4811
    -2.4579  -2.4339  -2.4301  -2.3851  -2.3261  -2.2565  -2.0372  -2.0355
    -2.0331  -2.0326  -2.0291  -2.0274  -1.9819  -1.9691  -1.9252  -1.8947
    -1.8518  -1.8052  -1.8037  -1.8024  -1.7959  -1.7714  -1.7579  -1.7552
    -1.7531  -1.7518  -1.6577  -1.6480  -1.6424  -1.6341  -1.6166  -1.5983
    -1.5765  -1.5706  -1.5673  -1.5618  -1.5584  -1.5173  -1.5150  -1.5133
    -1.5130  -1.5069  -1.5031  -1.4972  -1.4924  -1.4903  -1.4691  -1.4520
    -1.4484  -1.4472  -1.4329  -1.4222  -1.4218  -1.4161  -1.4154  -1.3851
    -1.3561  -1.3541  -1.3381  -1.3357  -1.3328  -1.3303  -1.3228  -1.3080
    -1.3006  -1.2925  -1.2907  -1.2832  -1.2740  -1.2595  -1.2570  -1.2567
    -1.2557  -1.2436  -1.2373  -1.2342  -1.2082  -1.2049  -1.1987  -1.1695
    -1.1597  -1.1573  -1.1359  -1.1343  -1.1312  -1.1273  -1.1185  -1.1023
    -1.0983  -1.0928  -1.0914  -1.0879  -1.0867  -1.0776  -1.0748  -1.0681
    -1.0652  -1.0536  -1.0492  -1.0047  -0.9905  -0.9888  -0.9845  -0.9831
    -0.9452  -0.9420  -0.8862  -0.8636  -0.8634  -0.8611  -0.8574  -0.8268
    -0.8235  -0.8213  -0.8200  -0.8190  -0.8168  -0.7909  -0.7869  -0.7821
    -0.7765  -0.7665  -0.7608  -0.7588  -0.7566  -0.7535  -0.7517  -0.7284
    -0.7242  -0.7111  -0.6861  -0.6163  -0.6110  -0.6093  -0.6081  -0.6042
    -0.6018  -0.5863  -0.5833  -0.5752  -0.5672  -0.5612  -0.5575  -0.5515
    -0.5452  -0.5253  -0.5243  -0.5209  -0.5202  -0.5034  -0.4951  -0.4837
    -0.4806  -0.4779  -0.4761  -0.4611  -0.4518  -0.4498  -0.4487  -0.4443
    -0.4429  -0.4350  -0.4342  -0.4259  -0.4060  -0.4028  -0.4016  -0.3986
    -0.3975  -0.3693  -0.3633  -0.3576  -0.3559  -0.2919  -0.2902  -0.2877
    -0.2851  -0.2803  -0.2796  -0.2761  -0.2748  -0.2502  -0.2441  -0.2357
    -0.2295  -0.2072  -0.2057  -0.1822  -0.1787  -0.1784  -0.1765  -0.1721
    -0.1716  -0.1701  -0.1686  -0.1677  -0.1666  -0.1652  -0.1641  -0.1260
    -0.1237  -0.1025  -0.1001  -0.0879  -0.0838  -0.0808  -0.0802  -0.0784
    -0.0760  -0.0729  -0.0714  -0.0704  -0.0658  -0.0654  -0.0604  -0.0560
    -0.0543  -0.0487  -0.0484  -0.0450  -0.0354  -0.0348  -0.0341  -0.0334
    -0.0325  -0.0309  -0.0286  -0.0238  -0.0225  -0.0210  -0.0201  -0.0107
    -0.0079   0.0007   0.0029   0.0041   0.0060   0.0115   0.0140   0.0303
     0.0316   0.0449   0.1202   0.1268   0.1337   0.1347   0.1386   0.1590
     0.1633   0.1668   0.1677   0.1737   0.1758   0.1806   0.1822   0.1825
     0.1867   0.1906   0.1920   0.1941   0.1995   0.2018   0.2026   0.2040
     0.2080   0.2122   0.2133   0.2191   0.2222   0.2252   0.2283   0.2345
     0.2377   0.2493   0.2508   0.2517   0.2565   0.2709   0.2789   0.3168
     0.3340   0.3402   0.3411   0.3424   0.3475   0.3638   0.3648   0.3659
     0.3702   0.3716   0.3735   0.3754   0.3771   0.3815   0.3832   0.3842
     0.3863   0.3917   0.3924   0.3938   0.3956   0.3987   0.4061   0.4122
     0.4197   0.4305   0.4315   0.4385   0.4424   0.4514   0.4549   0.4687
     0.4718   0.4819   0.4824   0.4855   0.4863   0.4891   0.4898   0.4956
     0.4963   0.4991   0.4992   0.5130   0.5140   0.5146   0.5179   0.5248
     0.5377   0.5435   0.5489   0.5558   0.5570   0.5607   0.5621   0.5731
     0.5757   0.5854   0.5920   0.6087   0.6095   0.6106   0.6162   0.6390
     0.6436   0.6577   0.6675   0.6687   0.6740   0.6867   0.6868   0.6878
     0.6882   0.6902   0.6915   0.6927   0.6974   0.7033   0.7041   0.7178
     0.7192   0.7318   0.7357   0.7392   0.7410   0.7493   0.7538   0.7561
     0.7571   0.7581   0.7592   0.7670   0.7715   0.7854   0.7959   0.8017
     0.8083   0.8389   0.8488   0.8602   0.8615   0.8672   0.8688   0.8723
     0.8751   0.8938   0.8955   0.9026   0.9037   0.9105   0.9176   0.9259
     0.9275   0.9300   0.9321   0.9528   0.9570   0.9592   0.9616   0.9633
     0.9651   0.9711   0.9723   0.9738   0.9761   0.9785   0.9815   0.9829
     0.9837   0.9866   0.9901   0.9913   0.9933   0.9992   1.0088   1.0181
     1.0244   1.0246   1.0253   1.0269   1.0306   1.0443   1.0494   1.0587
     1.0620   1.0630   1.0651   1.0809   1.0833   1.0873   1.0900   1.0921
     1.0927   1.0939   1.0952   1.0965   1.1009   1.1088   1.1117   1.1146
     1.1226   1.1434   1.1462   1.1486   1.1497   1.1627   1.1629   1.1657
     1.1664   1.1689   1.1693   1.1727   1.1736   1.1781   1.1788   1.1813
     1.1822   1.1836   1.1853   1.1855   1.1868   1.1895   1.1913   1.1921
     1.1972   1.1972   1.2003   1.2022   1.2128   1.2163   1.2173   1.2283
     1.2312   1.2361   1.2449   1.2471   1.2527   1.2645   1.2647   1.2663
     1.2674   1.2677   1.2752   1.2767   1.2814   1.2843   1.2878   1.2937
     1.2975   1.2982   1.2988   1.3181   1.3215   1.3225   1.3235   1.3267
     1.3283   1.3294   1.3314   1.3371   1.3440   1.3478   1.3531   1.3610
     1.3626   1.3629   1.3634   1.3651   1.3666   1.3770   1.3826   1.4204
     1.4221   1.4333   1.4373   1.4573   1.4583   1.4614   1.4639   1.8593
     1.8704   1.8721   1.8853   2.0406   2.0644   2.1020   2.1145   2.1294
     2.1351   2.1361   2.1391   2.4011   2.4248   2.4316   2.4993   2.6522
     2.6679   2.6736   2.6835   2.6916   2.7742   3.0265   3.0287   3.0582
     3.0590   3.3450   3.3540   3.5238   3.5503   3.5852   3.6179   3.7435
     3.7513   3.7664   3.7794   3.9063   3.9087   3.9510   3.9605   3.9884
     4.0468   4.4367   4.4663   4.5517   4.5644   4.6013   4.6355   4.6639
     4.6811   4.7325   4.7506   4.8067   4.8089   4.8500   4.8569   4.8673
     4.8887   4.9088   4.9176   4.9484   4.9771   5.0298   5.0842   5.2037
     5.2051   5.3180   5.3252   5.3452   5.4045   5.4610   5.4752   5.7675
     5.8071   5.8230   5.8311   5.8881   5.8956   5.9062   5.9519   6.0802
     6.1356   6.2920   6.3742   6.3999   6.5711   6.8477   6.8880   6.9103
     6.9376   6.9789   7.0404   7.0775   7.3393   7.3715   7.4232   7.4273
     7.4387   7.4492   7.4616   7.5179   7.5314   7.6485   7.6602   7.6702
     7.6774   7.6883   7.7347   7.7430   7.7579   7.7831   7.7915   7.8265
     7.8580   7.8719   7.8893   7.9383   7.9762   7.9978   8.0801   8.1474
     8.1594   8.3651   8.4938   8.5050   8.5578   8.5825   8.6196   8.6427
     8.6501   8.7438   8.7486   8.7629   8.7850   8.8597   8.8778   8.9024
     8.9841   9.0195   9.0808   9.1189   9.1291   9.1487   9.1777   9.2405
     9.2853   9.3044   9.3531

          k =-0.5000-0.2165 0.0000 (256328 PWs)   bands (ev):

   -19.9876 -15.7902 -15.7852 -15.2332 -15.2044 -14.3046 -14.2407 -13.0607
   -12.9687 -12.0121 -11.9858 -11.6488 -11.5937 -11.5567 -11.5287 -10.5139
   -10.4049  -9.4568  -9.2990  -9.0662  -9.0011  -8.2808  -8.1387  -7.6023
    -7.2911  -6.4362  -5.5057  -5.4458  -5.3935  -5.3441  -5.3397  -5.3223
    -5.3168  -5.0579  -4.9941  -4.8667  -4.6590  -4.5609  -4.5303  -4.4584
    -4.3932  -4.3801  -4.3626  -4.3466  -4.3421  -4.3057  -4.2840  -4.0760
    -4.0117  -3.9590  -3.9133  -3.8508  -3.7421  -3.6706  -3.6018  -3.5756
    -3.4802  -3.4305  -3.3916  -3.3727  -3.2859  -3.1140  -2.9449  -2.7835
    -2.7439  -2.7347  -2.7340  -2.7238  -2.7126  -2.7057  -2.6907  -2.6679
    -2.5742  -2.4203  -2.3386  -2.3317  -2.2368  -2.2305  -2.2238  -2.2167
    -2.1759  -2.1555  -2.1163  -2.0901  -1.9617  -1.9581  -1.9524  -1.9506
    -1.9305  -1.7881  -1.7801  -1.7495  -1.7314  -1.7169  -1.6643  -1.6503
    -1.6470  -1.6463  -1.6454  -1.6182  -1.6005  -1.5940  -1.5897  -1.5893
    -1.5868  -1.5810  -1.5445  -1.5420  -1.5383  -1.5359  -1.5338  -1.5321
    -1.5294  -1.5268  -1.5192  -1.5142  -1.5133  -1.5126  -1.5119  -1.4631
    -1.4605  -1.4549  -1.4529  -1.4186  -1.3904  -1.3859  -1.3841  -1.3789
    -1.3440  -1.3424  -1.3420  -1.3406  -1.3386  -1.3216  -1.3178  -1.3039
    -1.2974  -1.2865  -1.2815  -1.2739  -1.2712  -1.2708  -1.2697  -1.2673
    -1.2656  -1.2626  -1.2487  -1.2308  -1.2146  -1.2126  -1.2036  -1.2003
    -1.1980  -1.1955  -1.1921  -1.1889  -1.1882  -1.1869  -1.1832  -1.1789
    -1.1768  -1.1362  -1.0441  -1.0361  -1.0252  -1.0226  -1.0101  -1.0055
    -1.0042  -1.0032  -1.0021  -0.9408  -0.9294  -0.9242  -0.9222  -0.9146
    -0.9130  -0.9120  -0.9079  -0.9075  -0.9061  -0.8888  -0.8625  -0.8545
    -0.8523  -0.8494  -0.8467  -0.8406  -0.8376  -0.8278  -0.8246  -0.8193
    -0.8081  -0.8033  -0.7799  -0.7388  -0.7370  -0.7245  -0.7221  -0.7034
    -0.6916  -0.6885  -0.6716  -0.6526  -0.6503  -0.6468  -0.6449  -0.6002
    -0.5991  -0.5981  -0.5965  -0.5824  -0.5814  -0.5738  -0.5716  -0.5594
    -0.5563  -0.5439  -0.5413  -0.5394  -0.5393  -0.5360  -0.5346  -0.4955
    -0.4815  -0.4686  -0.4487  -0.4304  -0.4286  -0.4210  -0.4199  -0.4077
    -0.4069  -0.4054  -0.4047  -0.3931  -0.3914  -0.3899  -0.3866  -0.3262
    -0.3197  -0.3103  -0.3087  -0.3056  -0.3041  -0.3037  -0.3017  -0.3008
    -0.2993  -0.2981  -0.2910  -0.2637  -0.2632  -0.2623  -0.2602  -0.2536
    -0.2528  -0.2505  -0.2478  -0.2446  -0.2432  -0.2424  -0.2420  -0.1842
    -0.1795  -0.1768  -0.1757  -0.1608  -0.1595  -0.1510  -0.1471  -0.1188
    -0.1155  -0.1039  -0.0982  -0.0905  -0.0856  -0.0767  -0.0702  -0.0700
    -0.0690  -0.0657  -0.0639  -0.0616  -0.0591  -0.0567  -0.0544  -0.0532
    -0.0519  -0.0483  -0.0464  -0.0454  -0.0441  -0.0434  -0.0421  -0.0415
    -0.0369  -0.0285  -0.0262  -0.0239  -0.0233  -0.0014  -0.0001   0.0015
     0.0017   0.0070   0.0097   0.0140   0.0153   0.0217   0.0353   0.0529
     0.0595   0.0604   0.0624   0.0664   0.0919   0.0945   0.0956   0.0992
     0.1313   0.1572   0.1631   0.1729   0.1735   0.1790   0.1799   0.1842
     0.1903   0.1950   0.1972   0.2034   0.2056   0.2067   0.2083   0.2143
     0.2174   0.2182   0.2217   0.2235   0.2244   0.2262   0.2303   0.2336
     0.2366   0.2781   0.2895   0.2951   0.3018   0.3036   0.3081   0.3087
     0.3108   0.3132   0.3135   0.3159   0.3184   0.3399   0.3440   0.3475
     0.3516   0.3536   0.3562   0.3605   0.3617   0.3684   0.3742   0.3867
     0.3969   0.4011   0.4043   0.4052   0.4087   0.4128   0.4147   0.4167
     0.4185   0.4193   0.4226   0.4267   0.4283   0.4316   0.4373   0.4422
     0.4467   0.4521   0.4553   0.4606   0.4693   0.4831   0.4848   0.4954
     0.5062   0.5174   0.5227   0.5271   0.5287   0.5341   0.5344   0.5357
     0.5413   0.5437   0.5449   0.5547   0.5583   0.5729   0.5748   0.5771
     0.5775   0.5778   0.5807   0.5819   0.5827   0.5955   0.6003   0.6271
     0.6304   0.6349   0.6360   0.6593   0.6595   0.6641   0.6643   0.6727
     0.6762   0.6918   0.6927   0.6972   0.6991   0.7172   0.7224   0.7264
     0.7318   0.7739   0.7756   0.7763   0.7772   0.7957   0.8050   0.8056
     0.8104   0.8144   0.8170   0.8300   0.8340   0.8433   0.8534   0.8587
     0.8597   0.8623   0.8657   0.8760   0.8819   0.8833   0.8916   0.8925
     0.8927   0.8941   0.8946   0.8962   0.8967   0.8974   0.8999   0.9033
     0.9090   0.9096   0.9133   0.9164   0.9182   0.9247   0.9267   0.9328
     0.9371   0.9414   0.9474   0.9484   0.9515   0.9585   0.9608   0.9634
     0.9667   0.9746   0.9761   0.9831   0.9864   0.9878   0.9899   0.9941
     0.9960   1.0242   1.0300   1.0322   1.0349   1.0387   1.0396   1.0403
     1.0443   1.0554   1.0591   1.0621   1.0659   1.0726   1.0776   1.0916
     1.0974   1.1013   1.1044   1.1093   1.1128   1.1161   1.1181   1.1210
     1.1240   1.1280   1.1309   1.1311   1.1353   1.1369   1.1379   1.1393
     1.1403   1.1691   1.1744   1.1871   1.1907   1.1931   1.1963   1.1985
     1.1997   1.2023   1.2044   1.2047   1.2065   1.2092   1.2100   1.2171
     1.2177   1.2273   1.2276   1.2343   1.2355   1.2364   1.2369   1.2395
     1.2401   1.2412   1.2440   1.2468   1.2483   1.2503   1.2523   1.2554
     1.2579   1.2644   1.2681   1.2738   1.2755   1.2920   1.2933   1.3018
     1.3036   1.3117   1.3135   1.3143   1.3165   1.3222   1.3267   1.3312
     1.3322   1.3377   1.3418   1.3526   1.3539   1.3724   1.3778   1.3987
     1.4038   1.4206   1.4227   1.4247   1.4250   1.4460   1.4472   1.4559
     1.4566   1.4570   1.4626   1.4642   1.4656   1.4683   1.4695   1.4879
[...]
     atom   27 type  1   force =     0.00008278    0.00021908    0.00021330
     atom   28 type  1   force =    -0.00002476   -0.00006618    0.00029455
     atom   29 type  1   force =     0.00005509    0.00006170    0.00029445
     atom   30 type  1   force =     0.00007902    0.00000428    0.00019577
     atom   31 type  1   force =     0.00000563    0.00015119    0.00028951
     atom   32 type  1   force =    -0.00002634    0.00027756    0.00026780
     atom   33 type  1   force =     0.00007248   -0.00004959    0.00007925
     atom   34 type  1   force =     0.00004446   -0.00016049    0.00038040
     atom   35 type  1   force =     0.00005669   -0.00002482    0.00024222
     atom   36 type  1   force =    -0.00010114   -0.00000064   -0.00004417
     atom   37 type  1   force =    -0.00000517   -0.00001691   -0.00020703
     atom   38 type  1   force =     0.00006430    0.00019592    0.00015502
     atom   39 type  1   force =     0.00006637    0.00005374   -0.00012006
     atom   40 type  1   force =    -0.00005869    0.00000149    0.00012074
     atom   41 type  1   force =     0.00008858    0.00007936   -0.00031126
     atom   42 type  1   force =    -0.00002883    0.00017753    0.00039461
     atom   43 type  1   force =    -0.00013571    0.00002397    0.00006810
     atom   44 type  1   force =     0.00001959   -0.00011685   -0.00005385
     atom   45 type  1   force =     0.00010936   -0.00003460   -0.00019471
     atom   46 type  1   force =     0.00003708   -0.00021616   -0.00013571
     atom   47 type  1   force =    -0.00015378   -0.00003562   -0.00013540
     atom   48 type  1   force =    -0.00003859    0.00009466   -0.00016754
     atom   49 type  1   force =     0.00003155    0.00020080   -0.00005970
     atom   50 type  1   force =     0.00001127   -0.00018957   -0.00004071
     atom   51 type  1   force =     0.00023093    0.00017436    0.00023490
     atom   52 type  1   force =    -0.00000902    0.00002337    0.00026542
     atom   53 type  1   force =     0.00006463    0.00015160   -0.00008104
     atom   54 type  1   force =     0.00009953   -0.00009389   -0.00007919
     atom   55 type  1   force =     0.00004121    0.00008336    0.00061816
     atom   56 type  1   force =    -0.00003454    0.00001285   -0.00007866
     atom   57 type  1   force =     0.00006049   -0.00013712    0.00019237
     atom   58 type  1   force =    -0.00004925    0.00074389   -0.00027769
     atom   59 type  1   force =     0.00024194    0.00010314    0.00013714
     atom   60 type  1   force =    -0.00017304    0.00001092   -0.00007661
     atom   61 type  1   force =     0.00046137    0.00018586   -0.00006415
     atom   62 type  1   force =    -0.00011553    0.00015018    0.00019055
     atom   63 type  1   force =    -0.00013354    0.00004561   -0.00044107
     atom   64 type  1   force =     0.00007350   -0.00012245   -0.00020777
     atom   65 type  1   force =    -0.00003279   -0.00001910   -0.00024662
     atom   66 type  1   force =     0.00013671    0.00021301    0.00012050
     atom   67 type  1   force =    -0.00003631    0.00005277   -0.00009842
     atom   68 type  1   force =    -0.00015751    0.00007856    0.00023426
     atom   69 type  1   force =     0.00001708    0.00001650   -0.00028525
     atom   70 type  1   force =    -0.00000592    0.00015415   -0.00006220
     atom   71 type  1   force =    -0.00003333    0.00028219    0.00006347
     atom   72 type  1   force =     0.00001917   -0.00014703    0.00029279
     atom   73 type  1   force =    -0.00025141    0.00018871    0.00015426
     atom   74 type  1   force =    -0.00010754   -0.00024786   -0.00029130
     atom   75 type  1   force =     0.00000334   -0.00005152   -0.00005499
     atom   76 type  1   force =     0.00026805    0.00013999    0.00003106
     atom   77 type  1   force =    -0.00023925    0.00030239   -0.00007129
     atom   78 type  1   force =     0.00002105    0.00041546   -0.00081635
     atom   79 type  1   force =    -0.00026432   -0.00010245    0.00005257
     atom   80 type  1   force =     0.00014521   -0.00006014    0.00010187
     atom   81 type  1   force =     0.00031409    0.00039871    0.00017447
     atom   82 type  1   force =     0.00036051    0.00011708    0.00055159
     atom   83 type  1   force =     0.00030125    0.00021755   -0.00038699
     atom   84 type  1   force =    -0.00018578   -0.00009564    0.00005896
     atom   85 type  1   force =     0.00010597   -0.00025280   -0.00001754
     atom   86 type  1   force =    -0.00001915   -0.00031690    0.00034778
     atom   87 type  1   force =    -0.00012657   -0.00012355    0.00006749
     atom   88 type  1   force =    -0.00011739    0.00032384    0.00036981
     atom   89 type  1   force =     0.00015748    0.00040670   -0.00053893
     atom   90 type  1   force =     0.00021395   -0.00052066    0.00003507
     atom   91 type  1   force =    -0.00018389   -0.00001476    0.00026667
     atom   92 type  1   force =    -0.00041731   -0.00006623   -0.00000438
     atom   93 type  1   force =     0.00049413   -0.00022012   -0.00005398
     atom   94 type  1   force =    -0.00047479    0.00028932   -0.00062555
     atom   95 type  1   force =     0.00049092    0.00048581   -0.00094896
     atom   96 type  1   force =     0.00002238    0.00002642    0.00019885
     atom   97 type  1   force =    -0.00014289    0.00020434   -0.00028507
     atom   98 type  1   force =    -0.00007828    0.00040964    0.00037508
     atom   99 type  1   force =    -0.00007290   -0.00021119    0.00024501
     atom  100 type  1   force =    -0.00034947   -0.00039704    0.00011401
     atom  101 type  3   force =    -0.00108665    0.00007590    0.00010392
     atom  102 type  3   force =     0.00007424    0.00018105    0.00038907
     atom  103 type  3   force =    -0.00079419   -0.00057161   -0.00086609
     atom  104 type  3   force =    -0.00023249   -0.00001404    0.00066033
     atom  105 type  3   force =    -0.00051803    0.00021115   -0.00078405
     atom  106 type  3   force =    -0.00017007   -0.00047890    0.00061078
     atom  107 type  3   force =    -0.00078753   -0.00031882   -0.00129781
     atom  108 type  3   force =     0.00023097   -0.00132780    0.00031217
     atom  109 type  3   force =    -0.00071432   -0.00033763   -0.00011612
     atom  110 type  3   force =     0.00116268   -0.00032975    0.00036658
     atom  111 type  3   force =     0.00013698   -0.00097639    0.00020840
     atom  112 type  3   force =    -0.00055686    0.00035230   -0.00019257
     atom  113 type  3   force =     0.00038962    0.00114515   -0.00019637
     atom  114 type  3   force =    -0.00061712   -0.00000757   -0.00016717
     atom  115 type  3   force =     0.00004253    0.00020294   -0.00036608
     atom  116 type  3   force =     0.00004807    0.00153406    0.00139536
     atom  117 type  3   force =    -0.00023970   -0.00038681   -0.00064808
     atom  118 type  3   force =     0.00053326   -0.00130537    0.00129393
     atom  119 type  3   force =     0.00101116   -0.00015304   -0.00079283
     atom  120 type  3   force =    -0.00123494    0.00115346    0.00069168
     atom  121 type  3   force =    -0.00072484    0.00009218   -0.00006255
     atom  122 type  3   force =     0.00016683   -0.00045661    0.00001324
     atom  123 type  3   force =     0.00040193    0.00118700    0.00002561
     atom  124 type  3   force =     0.00022752    0.00078391   -0.00009768
     atom  125 type  3   force =     0.00133140    0.00007639    0.00079405
     atom  126 type  3   force =     0.00106781   -0.00073609    0.00026123
     atom  127 type  3   force =    -0.00021078    0.00025573   -0.00116983
     atom  128 type  3   force =     0.00040297   -0.00144419   -0.00079464
     atom  129 type  3   force =     0.00047330    0.00073120   -0.00020879
     atom  130 type  3   force =    -0.00015680   -0.00119629    0.00139177
     atom  131 type  5   force =    -0.00023020   -0.00021786    0.00013724
     atom  132 type  5   force =    -0.00011953    0.00031653    0.00013574
     atom  133 type  5   force =    -0.00012768    0.00023473    0.00004003
     atom  134 type  5   force =     0.00298227   -0.00084464   -0.00215036
     atom  135 type  4   force =    -0.00081185    0.00084356   -0.00127629
     atom  136 type  5   force =    -0.00208458   -0.00104342   -0.00086703
     atom  137 type  5   force =     0.00021757   -0.00125057    0.00004307

     Total force =     0.009191     Total SCF correction =     0.000430

     number of scf cycles    =  31
     number of bfgs steps    =  30

     energy   old            =  -12532.2483338632 Ry
     energy   new            =  -12532.2485688581 Ry

     CASE: energy  _new < energy  _old

     new trust radius        =       0.0473113308 bohr
     new conv_thr            =       0.0000000100 Ry


ATOMIC_POSITIONS (angstrom)
Cu      -0.004146060   0.011762682   7.399019285
Cu       1.843589502   1.714770771   7.406181302
Cu       3.689179808   0.012005121   7.398064822
Cu       5.530465701   1.715648538   7.410630450
Cu      -0.001634719   3.417782137   7.417062569
Cu       1.841960489   5.115831956   7.414814979
Cu       3.686299085   3.416543779   7.415544497
Cu       5.531837151   5.116924031   7.416632356
Cu      -0.001945885   6.822097949   7.403666013
Cu       1.843530503   8.531956284   7.393697478
Cu       3.687431952   6.820416238   7.408062601
Cu       5.531558214   8.533369042   7.392793322
Cu      -0.001295633  10.242960315   7.386973560
Cu       1.842367947  11.948398230   7.392477790
Cu       3.687541149  10.244210376   7.390657466
Cu       5.532619094  11.947686381   7.392838879
Cu      -0.001156663  13.648450004   7.395802980
Cu       1.842631356  15.351324343   7.396228166
Cu       3.686766188  13.648395518   7.396535606
Cu       5.531351275  15.347417243   7.396847817
Cu      -0.001214557   1.705172970   9.240323566
Cu       1.842915081   0.004185401   9.233992217
Cu       3.687758668   1.706226963   9.241116911
Cu       5.532596934   0.003428009   9.236807772
Cu      -0.002200101   5.128187078   9.248768489
Cu       1.842063487   3.412618789   9.250133756
Cu       3.686276106   5.123261094   9.247629930
Cu       5.532105473   3.414312737   9.250792445
Cu      -0.002162521   8.541816867   9.220619638
Cu       1.841560972   6.837919124   9.232628021
Cu       3.686846370   8.541415599   9.221120065
Cu       5.531407367   6.836966849   9.232083874
Cu      -0.002414722  11.943525958   9.228545102
Cu       1.841901198  10.243253281   9.219890642
Cu       3.687594990  11.946402562   9.229041001
Cu       5.532396370  10.242534319   9.220528628
Cu      -0.001313962  15.345338048   9.233946666
Cu       1.842280008  13.645561916   9.232523170
Cu       3.687288993  15.345004149   9.232636827
Cu       5.532216956  13.646226553   9.234312296
Cu      -0.001173158  -0.003891090  11.085394712
Cu       1.843999097   1.691943670  11.083586723
Cu       3.687773893  -0.002443474  11.082248929
Cu       5.530134455   1.692504338  11.083455023
Cu      -0.002873756   3.408242525  11.077376679
Cu       1.842496714   5.139215237  11.069578009
Cu       3.687475052   3.404878344  11.083767099
Cu       5.530380413   5.142559534  11.074773973
Cu      -0.003623000   6.858512571  11.076891771
Cu       1.841612761   8.552125295  11.072477403
Cu       3.686560814   6.853366670  11.071449070
Cu       5.531383941   8.550509797  11.070708530
Cu      -0.002666296  10.238703261  11.071645915
Cu       1.842869120  11.937821855  11.069405981
Cu       3.688227047  10.240953752  11.066963613
Cu       5.531873829  11.936400534  11.071073951
Cu      -0.002529634  13.643539324  11.076573047
Cu       1.844433595  15.343714605  11.082194697
Cu       3.688649282  13.649383665  11.080195544
Cu       5.532096135  15.345686496  11.085506336
Cu      -0.004187619   1.691608208  12.918952189
Cu       1.845914897  -0.012699414  12.945820206
Cu       3.686958303   1.671062490  12.944509655
Cu       5.528981685  -0.008047340  12.949212427
Cu      -0.004669410   5.139507555  12.882769076
Cu       1.848079007   3.422854907  12.880271530
Cu       3.688505287   5.144185727  12.891284077
Cu       5.524508023   3.419513901  12.880819891
Cu      -0.006534583   8.567139617  12.946633350
Cu       1.840111649   6.855174467  12.905752227
Cu       3.690083408   8.558221626  12.926999588
Cu       5.532324919   6.867367543  12.922516574
Cu      -0.002834363  11.935364709  12.916871472
Cu       1.843515670  10.250335165  12.923163437
Cu       3.691382048  11.940903556  12.911730059
Cu       5.535618276  10.246606739  12.932882914
Cu      -0.000680389  15.332756627  12.936347247
Cu       1.846829227  13.636005159  12.903710537
Cu       3.690292892  15.355752260  12.952156847
Cu       5.531806974  13.633001848  12.910860794
Cu      -0.002724092   0.001895263  14.776099377
Cu       1.837385925   1.743423700  14.683218645
Cu       3.683447708  -0.025034115  14.885311192
Cu       5.531920382   1.748149202  14.693575542
Cu       0.000594786   3.443951021  14.677470723
Cu       1.851740565   5.133917542  14.687988983
Cu       3.681858710   3.432977912  14.697368980
Cu       5.520450992   5.120779075  14.689370107
Cu      -0.010211183   6.810865579  14.712050638
Cu       1.828408031   8.542876681  14.733352037
Cu       3.693578180   6.844544376  14.716324564
Cu       5.547849281   8.577028948  14.784687437
Cu       0.028219450  10.284460266  14.819953094
Cu       1.852756005  11.966263775  14.743238474
Cu       3.678704113  10.258123312  14.758212887
Cu       5.527580891  11.943615834  14.762248145
Cu      -0.003984648  13.611138095  14.779294548
Cu       1.826727303  15.296541862  14.746509380
Cu       3.695966996  13.636870675  14.761967941
Cu       5.551500969  15.305022475  14.747804609
C        0.026089699   0.631675692  17.460996601
C        0.023804568   2.070898339  17.534021162
C        1.256775832  -0.058635639  17.404101067
C        1.250279414   2.783417202  17.549305824
C        2.479470563   0.634248976  17.370600037
C        2.479198423   2.071735739  17.458307928
C        3.714768142  -0.058695084  17.193650305
C        3.710493870   2.786564694  17.474767890
C        4.949835040   0.635902997  17.359777204
C        4.945031353   2.073082180  17.451984845
C        6.174280881  -0.057226939  17.387551473
C        6.173320777   2.783808320  17.545536682
C        0.020983379   4.928867617  17.606168984
C        0.018996354   6.359458306  17.572959379
C        1.248352423   4.213517310  17.590087765
C        1.248178805   7.076002793  17.556220526
C        2.476364534   4.929084579  17.569919953
C        2.474097320   6.359305890  17.569604964
C        3.708553086   4.214722608  17.544675103
C        3.703664292   7.069745846  17.555175186
C        4.939228604   4.927661450  17.565981723
C        4.936499946   6.356862168  17.565656224
C        6.171214634   4.213937919  17.585655542
C        6.164714588   7.069066090  17.547869430
C        0.007492431   9.209590228  17.510385131
C        1.237554459   8.519496279  17.536321820
C        2.478599108   9.203843519  17.547660593
C        3.709214740   8.506906900  17.546741382
C        4.931465055   9.200472367  17.464193391
C        6.160660553   8.506678335  17.494896162
H        1.256577718  -1.150112849  17.369992815
H        3.715943666  -1.147829610  17.278898697
H        6.173639425  -1.149176564  17.353800772
H       -0.028228809  10.294180019  17.617825685
O        2.546312409  10.572264303  17.575645121
H        1.871334957  10.969551466  16.958635433
H        4.930492322  10.288964037  17.452798398



     Writing output data file gc.save
     Check: negative starting charge=   -0.002182
     NEW-OLD atomic charge density approx. for the potential
     Check: negative starting charge=   -0.002180

     negative rho (up, down):  2.208E-03 0.000E+00

     total cpu time spent up to now is   168920.1 secs

     Self-consistent Calculation

     iteration #  1     ecut=    80.00 Ry     beta=0.70
     Davidson diagonalization with overlap
     ethr =  1.00E-06,  avg # of iterations =  3.2

     Threshold (ethr) on eigenvalues was too large:
     Diagonalizing with lowered threshold

     Davidson diagonalization with overlap
     ethr =  6.74E-08,  avg # of iterations =  2.0

     negative rho (up, down):  2.199E-03 0.000E+00

     total cpu time spent up to now is   169836.3 secs

     total energy              =  -12532.24863451 Ry
     Harris-Foulkes estimate   =  -12532.24875419 Ry
     estimated scf accuracy    <       0.00084268 Ry

     iteration #  2     ecut=    80.00 Ry     beta=0.70
     Davidson diagonalization with overlap
     ethr =  6.84E-08,  avg # of iterations =  2.0

     negative rho (up, down):  2.196E-03 0.000E+00

     total cpu time spent up to now is   170185.6 secs

     total energy              =  -12532.24864620 Ry
     Harris-Foulkes estimate   =  -12532.24870165 Ry
     estimated scf accuracy    <       0.00021027 Ry

     iteration #  3     ecut=    80.00 Ry     beta=0.70
     Davidson diagonalization with overlap
     ethr =  1.71E-08,  avg # of iterations =  2.0

     negative rho (up, down):  2.196E-03 0.000E+00

     total cpu time spent up to now is   170574.1 secs

     total energy              =  -12532.24866562 Ry
     Harris-Foulkes estimate   =  -12532.24869244 Ry
     estimated scf accuracy    <       0.00024022 Ry

     iteration #  4     ecut=    80.00 Ry     beta=0.70
     Davidson diagonalization with overlap
     ethr =  1.71E-08,  avg # of iterations =  2.0

     negative rho (up, down):  2.198E-03 0.000E+00

     total cpu time spent up to now is   170929.2 secs

     total energy              =  -12532.24867653 Ry
     Harris-Foulkes estimate   =  -12532.24867752 Ry
     estimated scf accuracy    <       0.00000461 Ry

     iteration #  5     ecut=    80.00 Ry     beta=0.70
     Davidson diagonalization with overlap
     ethr =  3.74E-10,  avg # of iterations =  3.2

     negative rho (up, down):  2.200E-03 0.000E+00

     total cpu time spent up to now is   171473.8 secs

     total energy              =  -12532.24867713 Ry
     Harris-Foulkes estimate   =  -12532.24867770 Ry
     estimated scf accuracy    <       0.00000328 Ry

     iteration #  6     ecut=    80.00 Ry     beta=0.70
     Davidson diagonalization with overlap
     ethr =  2.66E-10,  avg # of iterations =  1.0

     negative rho (up, down):  2.203E-03 0.000E+00

     total cpu time spent up to now is   171808.6 secs

     total energy              =  -12532.24867725 Ry
     Harris-Foulkes estimate   =  -12532.24867736 Ry
     estimated scf accuracy    <       0.00000118 Ry

     iteration #  7     ecut=    80.00 Ry     beta=0.70
     Davidson diagonalization with overlap
     ethr =  9.55E-11,  avg # of iterations =  2.2

     negative rho (up, down):  2.204E-03 0.000E+00

     total cpu time spent up to now is   172162.1 secs

     total energy              =  -12532.24867729 Ry
     Harris-Foulkes estimate   =  -12532.24867732 Ry
     estimated scf accuracy    <       0.00000026 Ry

     iteration #  8     ecut=    80.00 Ry     beta=0.70
     Davidson diagonalization with overlap
     ethr =  2.12E-11,  avg # of iterations =  2.0

     negative rho (up, down):  2.204E-03 0.000E+00

     total cpu time spent up to now is   172530.5 secs

     total energy              =  -12532.24867731 Ry
     Harris-Foulkes estimate   =  -12532.24867732 Ry
     estimated scf accuracy    <       0.00000006 Ry

     iteration #  9     ecut=    80.00 Ry     beta=0.70
     Davidson diagonalization with overlap
     ethr =  4.95E-12,  avg # of iterations =  2.5

     negative rho (up, down):  2.204E-03 0.000E+00

     total cpu time spent up to now is   172897.8 secs

     total energy              =  -12532.24867731 Ry
     Harris-Foulkes estimate   =  -12532.24867731 Ry
     estimated scf accuracy    <       0.00000003 Ry

     iteration # 10     ecut=    80.00 Ry     beta=0.70
     Davidson diagonalization with overlap
