
     Program PWSCF v.5.4.0 starts on 17Mar2017 at  2: 4:52 

     This program is part of the open-source Quantum ESPRESSO suite
     for quantum simulation of materials; please cite
         "P. Giannozzi et al., J. Phys.:Condens. Matter 21 395502 (2009);
          URL http://www.quantum-espresso.org", 
     in publications or presentations arising from this work. More details at
     http://www.quantum-espresso.org/quote

     Parallel version (MPI & OpenMP), running on      56 processor cores
     Number of MPI processes:                56
     Threads/MPI process:                     1
     R & G space division:  proc/nbgrp/npool/nimage =      56
     Waiting for input...
     Reading input from standard input

     Current dimensions of program PWSCF are:
     Max number of different atomic species (ntypx) = 10
     Max number of k-points (npk) =  40000
     Max angular momentum in pseudopotentials (lmaxx) =  3

     -------------------------------------
     Parameters for Dispersion Correction:
     -------------------------------------
       atom      VdW radius       C_6     

        Cu         2.952        374.666
        C          2.744         60.710
        H          1.892          4.857

     Subspace diagonalization in iterative solution of the eigenvalue problem:
     one sub-group per band group will be used
     scalapack distributed-memory algorithm (size of sub-group:  5*  5 procs)

 
     Parallelization info
     --------------------
     sticks:   dense  smooth     PW     G-vecs:    dense   smooth      PW
     Min         204     204     54                36612    36612    4962
     Max         205     205     55                36617    36617    4968
     Sum       11433   11433   3039              2050409  2050409  278033
 


     bravais-lattice index     =            0
     lattice parameter (alat)  =      13.9425  a.u.
     unit-cell volume          =   21209.0878 (a.u.)^3
     number of atoms/cell      =          151
     number of atomic types    =            3
     number of electrons       =      1298.00
     number of Kohn-Sham states=          779
     kinetic-energy cutoff     =      80.0000  Ry
     charge density cutoff     =     320.0000  Ry
     convergence threshold     =      1.0E-08
     mixing beta               =       0.7000
     number of iterations used =            8  local-TF  mixing
     Exchange-correlation      =  SLA  PW   PBE  PBE ( 1  4  3  4 0 0)
     nstep                     =           50


     celldm(1)=  13.942539  celldm(2)=   0.000000  celldm(3)=   0.000000
     celldm(4)=   0.000000  celldm(5)=   0.000000  celldm(6)=   0.000000

     crystal axes: (cart. coord. in units of alat)
               a(1) = (   1.000000   0.000000   0.000000 )  
               a(2) = (   0.000000   2.309401   0.000000 )  
               a(3) = (   0.000000   0.000000   3.388418 )  

     reciprocal axes: (cart. coord. in units 2 pi/alat)
               b(1) = (  1.000000  0.000000  0.000000 )  
               b(2) = (  0.000000  0.433013  0.000000 )  
               b(3) = (  0.000000  0.000000  0.295123 )  


     PseudoPot. # 1 for Cu read from file:
     /home/549/hxw549/Short/pseudopotentials/Cu.pbe-n-van_ak.UPF
     MD5 check sum: 601f7c30f7467666bec936e0661ce3e1
     Pseudo is Ultrasoft + core correction, Zval = 11.0
     Generated by new atomic code, or converted to UPF format
     Using radial grid of  867 points,  6 beta functions with: 
                l(1) =   0
                l(2) =   0
                l(3) =   1
                l(4) =   1
                l(5) =   2
                l(6) =   2
     Q(r) pseudized with  8 coefficients,  rinner =    1.400   1.400   1.400
                                                       1.400   1.400

     PseudoPot. # 2 for C  read from file:
     /home/549/hxw549/Short/pseudopotentials/C.pbe-mt_gipaw.UPF
     MD5 check sum: 5ac2f21f2c440b14befe521540822c15
     Pseudo is Norm-conserving, Zval =  4.0
     Generated by new atomic code, or converted to UPF format
     Using radial grid of 1073 points,  1 beta functions with: 
                l(1) =   0

     PseudoPot. # 3 for H  read from file:
     /home/549/hxw549/Short/pseudopotentials/H.pbe-van_ak.UPF
     MD5 check sum: 077eb6d537518a38cb46c6de387227b7
     Pseudo is Ultrasoft, Zval =  1.0
     Generated by new atomic code, or converted to UPF format
     Using radial grid of  615 points,  1 beta functions with: 
                l(1) =   0
     Q(r) pseudized with  8 coefficients,  rinner =    0.800

     atomic species   valence    mass     pseudopotential
        Cu            11.00    63.54600     Cu( 1.00)
        C              4.00    12.01070     C ( 1.00)
        H              1.00     1.00783     H ( 1.00)

     No symmetry found



   Cartesian axes

     site n.     atom                  positions (alat units)
         1           Cu  tau(   1) = (  -0.0000061   0.0000859   0.9974453  )
         2           Cu  tau(   2) = (   0.2499834   0.2309435   0.9974857  )
         3           Cu  tau(   3) = (   0.4999820   0.0000292   0.9973921  )
         4           Cu  tau(   4) = (   0.7499943   0.2309608   0.9975192  )
         5           Cu  tau(   5) = (  -0.0000148   0.4618129   0.9975194  )
         6           Cu  tau(   6) = (   0.2499854   0.6927730   0.9973716  )
         7           Cu  tau(   7) = (   0.4999975   0.4618632   0.9975075  )
         8           Cu  tau(   8) = (   0.7500019   0.6927697   0.9973799  )
         9           Cu  tau(   9) = (  -0.0000106   0.9237787   0.9972545  )
        10           Cu  tau(  10) = (   0.2500158   1.1547493   0.9973328  )
        11           Cu  tau(  11) = (   0.4999952   0.9237374   0.9972820  )
        12           Cu  tau(  12) = (   0.7499663   1.1547437   0.9973571  )
        13           Cu  tau(  13) = (  -0.0000104   1.3856717   0.9974709  )
        14           Cu  tau(  14) = (   0.2499853   1.6165564   0.9975482  )
        15           Cu  tau(  15) = (   0.4999900   1.3856800   0.9975628  )
        16           Cu  tau(  16) = (   0.7499916   1.6165628   0.9975545  )
        17           Cu  tau(  17) = (  -0.0000073   1.8474464   0.9974902  )
        18           Cu  tau(  18) = (   0.2499750   2.0784722   0.9974066  )
        19           Cu  tau(  19) = (   0.4999832   1.8474812   0.9974253  )
        20           Cu  tau(  20) = (   0.7500006   2.0784589   0.9973454  )
        21           Cu  tau(  21) = (   0.0000109   0.2310340   1.2461899  )
        22           Cu  tau(  22) = (   0.2499611   0.0001434   1.2460132  )
        23           Cu  tau(  23) = (   0.4999655   0.2309886   1.2459791  )
        24           Cu  tau(  24) = (   0.7500092   0.0000164   1.2458673  )
        25           Cu  tau(  25) = (   0.0000112   0.6929613   1.2458008  )
        26           Cu  tau(  26) = (   0.2499727   0.4619415   1.2459274  )
        27           Cu  tau(  27) = (   0.5000148   0.6929143   1.2458515  )
        28           Cu  tau(  28) = (   0.7500244   0.4619772   1.2460084  )
        29           Cu  tau(  29) = (   0.0000256   1.1545435   1.2458302  )
        30           Cu  tau(  30) = (   0.2500054   0.9237705   1.2457457  )
        31           Cu  tau(  31) = (   0.4999823   1.1544964   1.2459093  )
        32           Cu  tau(  32) = (   0.7500144   0.9237499   1.2457813  )
        33           Cu  tau(  33) = (   0.0000043   1.6164167   1.2460943  )
        34           Cu  tau(  34) = (   0.2499800   1.3854236   1.2460378  )
        35           Cu  tau(  35) = (   0.4999700   1.6165683   1.2460311  )
        36           Cu  tau(  36) = (   0.7500068   1.3854772   1.2459916  )
        37           Cu  tau(  37) = (   0.0000062   2.0785055   1.2457744  )
        38           Cu  tau(  38) = (   0.2499628   1.8474789   1.2459507  )
        39           Cu  tau(  39) = (   0.4999638   2.0784842   1.2457312  )
        40           Cu  tau(  40) = (   0.7500076   1.8475446   1.2458854  )
        41           Cu  tau(  41) = (   0.0000421  -0.0000984   1.4956486  )
        42           Cu  tau(  42) = (   0.2499623   0.2315383   1.4961046  )
        43           Cu  tau(  43) = (   0.4999233  -0.0000235   1.4954027  )
        44           Cu  tau(  44) = (   0.7500237   0.2310909   1.4955939  )
        45           Cu  tau(  45) = (   0.0001374   0.4625534   1.4958692  )
        46           Cu  tau(  46) = (   0.2500592   0.6931357   1.4956891  )
        47           Cu  tau(  47) = (   0.4999375   0.4622726   1.4956622  )
        48           Cu  tau(  48) = (   0.7501621   0.6931585   1.4957151  )
        49           Cu  tau(  49) = (   0.0001828   0.9236847   1.4959747  )
        50           Cu  tau(  50) = (   0.2499626   1.1539495   1.4960842  )
        51           Cu  tau(  51) = (   0.5000381   0.9235334   1.4959102  )
        52           Cu  tau(  52) = (   0.7502011   1.1541901   1.4957430  )
        53           Cu  tau(  53) = (   0.0000953   1.3849016   1.4959015  )
        54           Cu  tau(  54) = (   0.2498984   1.6162198   1.4957240  )
        55           Cu  tau(  55) = (   0.4999417   1.3851159   1.4955146  )
        56           Cu  tau(  56) = (   0.7500739   1.6163865   1.4955053  )
        57           Cu  tau(  57) = (   0.0000045   1.8475864   1.4954591  )
        58           Cu  tau(  58) = (   0.2499675   2.0785101   1.4955159  )
        59           Cu  tau(  59) = (   0.4999572   1.8477277   1.4954640  )
        60           Cu  tau(  60) = (   0.7499945   2.0785278   1.4955203  )
        61           Cu  tau(  61) = (   0.0002526   0.2313820   1.7443139  )
        62           Cu  tau(  62) = (   0.2500737  -0.0001503   1.7450533  )
        63           Cu  tau(  63) = (   0.4998469   0.2308748   1.7445869  )
        64           Cu  tau(  64) = (   0.7499076  -0.0000485   1.7449958  )
        65           Cu  tau(  65) = (   0.0007880   0.6933814   1.7462931  )
        66           Cu  tau(  66) = (   0.2505091   0.4637436   1.7464953  )
        67           Cu  tau(  67) = (   0.5001093   0.6932142   1.7459778  )
        68           Cu  tau(  68) = (   0.7499111   0.4624311   1.7447734  )
        69           Cu  tau(  69) = (   0.0006026   1.1535406   1.7467850  )
        70           Cu  tau(  70) = (   0.2504681   0.9227611   1.7472317  )
        71           Cu  tau(  71) = (   0.5001426   1.1538995   1.7452058  )
        72           Cu  tau(  72) = (   0.7505891   0.9235710   1.7460410  )
        73           Cu  tau(  73) = (   0.0000939   1.6164061   1.7446895  )
        74           Cu  tau(  74) = (   0.2497645   1.3844234   1.7455021  )
        75           Cu  tau(  75) = (   0.4999242   1.6163742   1.7438986  )
        76           Cu  tau(  76) = (   0.7504900   1.3848341   1.7447937  )
        77           Cu  tau(  77) = (  -0.0000473   2.0782602   1.7454104  )
        78           Cu  tau(  78) = (   0.2498110   1.8476558   1.7448167  )
        79           Cu  tau(  79) = (   0.5000051   2.0786793   1.7453087  )
        80           Cu  tau(  80) = (   0.7501459   1.8475994   1.7447935  )
        81           Cu  tau(  81) = (   0.0000976   0.0007723   1.9906318  )
        82           Cu  tau(  82) = (   0.2501989   0.2313265   1.9903681  )
        83           Cu  tau(  83) = (   0.4999932   0.0000684   1.9922485  )
        84           Cu  tau(  84) = (   0.7502428   0.2309055   1.9904384  )
        85           Cu  tau(  85) = (   0.0001321   0.4622343   1.9898579  )
        86           Cu  tau(  86) = (   0.2538981   0.6929866   1.9986273  )
        87           Cu  tau(  87) = (   0.5010490   0.4602715   1.9915572  )
        88           Cu  tau(  88) = (   0.7488732   0.6926230   1.9918521  )
        89           Cu  tau(  89) = (   0.0018147   0.9218361   1.9937327  )
        90           Cu  tau(  90) = (   0.2511742   1.1538759   1.9943600  )
        91           Cu  tau(  91) = (   0.5011685   0.9247265   1.9937814  )
        92           Cu  tau(  92) = (   0.7507104   1.1545977   1.9924256  )
        93           Cu  tau(  93) = (   0.0005167   1.3857501   1.9918262  )
        94           Cu  tau(  94) = (   0.2497976   1.6164030   1.9902238  )
        95           Cu  tau(  95) = (   0.5002128   1.3859419   1.9895526  )
        96           Cu  tau(  96) = (   0.7503957   1.6162378   1.9900106  )
        97           Cu  tau(  97) = (  -0.0000512   1.8469837   1.9922161  )
        98           Cu  tau(  98) = (   0.2497710   2.0782644   1.9915109  )
        99           Cu  tau(  99) = (   0.5000489   1.8467959   1.9902846  )
       100           Cu  tau( 100) = (   0.7502177   2.0783528   1.9915112  )
       101           C   tau( 101) = (  -0.0002098   0.0967553   2.3864269  )
       102           C   tau( 102) = (  -0.0004443   0.2892915   2.3824989  )
       103           C   tau( 103) = (   0.1664573   0.0003862   2.3880128  )
       104           C   tau( 104) = (   0.1661509   0.3855107   2.3854947  )
       105           C   tau( 105) = (   0.3329453   0.0964106   2.3839289  )
       106           C   tau( 106) = (   0.3327286   0.2889342   2.3812828  )
       107           C   tau( 107) = (   0.4995193  -0.0001709   2.3847586  )
       108           C   tau( 108) = (   0.4992636   0.3873268   2.3829426  )
       109           C   tau( 109) = (   0.6662386   0.0967513   2.3842387  )
       110           C   tau( 110) = (   0.6661894   0.2894929   2.3796984  )
       111           C   tau( 111) = (   0.8329776   0.0006750   2.3882623  )
       112           C   tau( 112) = (   0.8330665   0.3859807   2.3807428  )
       113           C   tau( 113) = (  -0.0008094   0.6752194   2.3903250  )
       114           C   tau( 114) = (  -0.0023765   0.8665840   2.4024231  )
       115           C   tau( 115) = (   0.1653521   0.5774293   2.4007909  )
       116           C   tau( 116) = (   0.1617500   0.9629727   2.4250507  )
       117           C   tau( 117) = (   0.3294266   0.6721357   2.4295002  )
       118           C   tau( 118) = (   0.3233511   0.8625891   2.4537468  )
       119           C   tau( 119) = (   0.4987408   0.5780922   2.4102068  )
       120           C   tau( 120) = (   0.4909264   0.9609824   2.3885300  )
       121           C   tau( 121) = (   0.4326327   0.9234273   2.1771705  )
       122           H   tau( 122) = (   0.5215427   0.8011131   2.1451670  )
       123           H   tau( 123) = (   0.2924810   0.8664689   2.1568447  )
       124           C   tau( 124) = (   0.6668673   0.6743972   2.4080838  )
       125           C   tau( 125) = (   0.6670222   0.8654362   2.4110113  )
       126           C   tau( 126) = (   0.8328878   0.5784795   2.3841666  )
       127           C   tau( 127) = (   0.8296306   0.9630023   2.3982248  )
       128           C   tau( 128) = (  -0.0014117   1.2507970   2.3781078  )
       129           C   tau( 129) = (  -0.0006213   1.4443829   2.3748691  )
       130           C   tau( 130) = (   0.1649337   1.1554713   2.4033028  )
       131           C   tau( 131) = (   0.1660025   1.5420028   2.3811817  )
       132           C   tau( 132) = (   0.3321272   1.2540382   2.4068409  )
       133           C   tau( 133) = (   0.3323911   1.4460927   2.3885974  )
       134           C   tau( 134) = (   0.4977026   1.1596173   2.4133552  )
       135           C   tau( 135) = (   0.4993170   1.5425317   2.3871911  )
       136           C   tau( 136) = (   0.6634179   1.2527115   2.3958217  )
       137           C   tau( 137) = (   0.6652879   1.4457936   2.3864415  )
       138           C   tau( 138) = (   0.8307721   1.1555320   2.3830936  )
       139           C   tau( 139) = (   0.8325128   1.5410990   2.3790392  )
       140           C   tau( 140) = (  -0.0004353   1.8302901   2.3842062  )
       141           C   tau( 141) = (  -0.0003749   2.0218396   2.3881816  )
       142           C   tau( 142) = (   0.1663896   1.7340477   2.3845843  )
       143           C   tau( 143) = (   0.1663319   2.1174702   2.3882690  )
       144           C   tau( 144) = (   0.3331113   1.8302513   2.3883560  )
       145           C   tau( 145) = (   0.3332205   2.0216681   2.3882129  )
       146           C   tau( 146) = (   0.4996591   1.7344228   2.3876921  )
       147           C   tau( 147) = (   0.4997329   2.1171075   2.3883617  )
       148           C   tau( 148) = (   0.6663572   1.8299026   2.3881965  )
       149           C   tau( 149) = (   0.6663858   2.0214995   2.3885405  )
       150           C   tau( 150) = (   0.8328109   1.7334525   2.3837572  )
       151           C   tau( 151) = (   0.8331188   2.1177257   2.3886260  )

     number of k points=     6  gaussian smearing, width (Ry)=  0.1000
                       cart. coord. in units 2pi/alat
        k(    1) = (   0.0000000   0.0000000   0.0000000), wk =   0.2500000
        k(    2) = (   0.0000000  -0.2165064   0.0000000), wk =   0.2500000
        k(    3) = (   0.2500000   0.0000000   0.0000000), wk =   0.5000000
        k(    4) = (   0.2500000  -0.2165064   0.0000000), wk =   0.5000000
        k(    5) = (  -0.5000000   0.0000000   0.0000000), wk =   0.2500000
        k(    6) = (  -0.5000000  -0.2165064   0.0000000), wk =   0.2500000

     Dense  grid:  2050409 G-vectors     FFT dimensions: (  80, 192, 270)

     Largest allocated arrays     est. size (Mb)     dimensions
        Kohn-Sham Wavefunctions        54.73 Mb     (    4604,  779)
        NL pseudopotentials           130.04 Mb     (    4604, 1851)
        Each V/rho on FFT grid          1.17 Mb     (   76800)
        Each G-vector array             0.28 Mb     (   36616)
        G-vector shells                 0.14 Mb     (   17932)
     Largest temporary arrays     est. size (Mb)     dimensions
        Auxiliary wavefunctions       218.90 Mb     (    4604, 3116)
        Each subspace H/S matrix        5.92 Mb     (     623,  623)
        Each <psi_i|beta_j> matrix     22.00 Mb     (    1851,  779)
        Arrays for rho mixing           9.38 Mb     (   76800,    8)

     Initial potential from superposition of free atoms
     Check: negative starting charge=   -0.001883

     starting charge 1272.31749, renormalised to 1298.00000

     negative rho (up, down):  1.921E-03 0.000E+00
     Starting wfc are 1294 randomized atomic wfcs

     total cpu time spent up to now is      108.0 secs

     Self-consistent Calculation

     iteration #  1     ecut=    80.00 Ry     beta=0.70
     Davidson diagonalization with overlap
     c_bands:  2 eigenvalues not converged
     c_bands:  5 eigenvalues not converged
     ethr =  1.00E-04,  avg # of iterations = 23.3

     negative rho (up, down):  2.857E+01 0.000E+00

     total cpu time spent up to now is     1882.3 secs

     total energy              =   -9351.74057198 Ry
     Harris-Foulkes estimate   =  -17234.36772505 Ry
     estimated scf accuracy    <  180623.97291752 Ry

     iteration #  2     ecut=    80.00 Ry     beta=0.70
     Davidson diagonalization with overlap
     ethr =  1.00E-02,  avg # of iterations = 13.2

     negative rho (up, down):  3.181E+01 0.000E+00

     total cpu time spent up to now is     2804.8 secs

     total energy              =  -12249.14943611 Ry
     Harris-Foulkes estimate   =  -13667.25373928 Ry
     estimated scf accuracy    <   21248.19201171 Ry

     iteration #  3     ecut=    80.00 Ry     beta=0.70
     Davidson diagonalization with overlap
     ethr =  1.00E-02,  avg # of iterations =  7.0

     negative rho (up, down):  3.311E+01 0.000E+00

     total cpu time spent up to now is     3322.8 secs

     total energy              =  -12477.96009000 Ry
     Harris-Foulkes estimate   =  -13403.11543717 Ry
     estimated scf accuracy    <    6182.92415355 Ry

     iteration #  4     ecut=    80.00 Ry     beta=0.70
     Davidson diagonalization with overlap
     ethr =  1.00E-02,  avg # of iterations =  5.3

     negative rho (up, down):  2.768E+01 0.000E+00

     total cpu time spent up to now is     3790.0 secs

     total energy              =  -12831.82804799 Ry
     Harris-Foulkes estimate   =  -13140.99322127 Ry
     estimated scf accuracy    <    4270.73248034 Ry

     iteration #  5     ecut=    80.00 Ry     beta=0.70
     Davidson diagonalization with overlap
     ethr =  1.00E-02,  avg # of iterations =  5.0

     negative rho (up, down):  1.884E+01 0.000E+00

     total cpu time spent up to now is     4129.5 secs

     total energy              =  -12875.10516549 Ry
     Harris-Foulkes estimate   =  -13034.32205290 Ry
     estimated scf accuracy    <    1069.29825904 Ry

     iteration #  6     ecut=    80.00 Ry     beta=0.70
     Davidson diagonalization with overlap
     ethr =  1.00E-02,  avg # of iterations =  2.0

     negative rho (up, down):  1.074E+01 0.000E+00

     total cpu time spent up to now is     4350.9 secs

     total energy              =  -12829.92645456 Ry
     Harris-Foulkes estimate   =  -12911.10721486 Ry
     estimated scf accuracy    <     528.27606149 Ry

     iteration #  7     ecut=    80.00 Ry     beta=0.70
     Davidson diagonalization with overlap
     ethr =  1.00E-02,  avg # of iterations =  2.0

     negative rho (up, down):  9.128E+00 0.000E+00

     total cpu time spent up to now is     4537.2 secs

     total energy              =  -12823.70000723 Ry
     Harris-Foulkes estimate   =  -12853.49703415 Ry
     estimated scf accuracy    <    1064.17082282 Ry

     iteration #  8     ecut=    80.00 Ry     beta=0.70
     Davidson diagonalization with overlap
     ethr =  1.00E-02,  avg # of iterations =  1.0

     negative rho (up, down):  8.354E+00 0.000E+00

     total cpu time spent up to now is     4702.4 secs

     total energy              =  -12820.45116378 Ry
     Harris-Foulkes estimate   =  -12836.46109514 Ry
     estimated scf accuracy    <     747.25530564 Ry

     iteration #  9     ecut=    80.00 Ry     beta=0.70
     Davidson diagonalization with overlap
     ethr =  1.00E-02,  avg # of iterations =  1.0

     negative rho (up, down):  7.604E+00 0.000E+00

     total cpu time spent up to now is     4868.0 secs

     total energy              =  -12813.56060635 Ry
     Harris-Foulkes estimate   =  -12824.43966108 Ry
     estimated scf accuracy    <     278.80004697 Ry

     iteration # 10     ecut=    80.00 Ry     beta=0.70
     Davidson diagonalization with overlap
     ethr =  1.00E-02,  avg # of iterations =  1.0

     negative rho (up, down):  2.214E+00 0.000E+00

     total cpu time spent up to now is     5034.7 secs

     total energy              =  -12765.65845719 Ry
     Harris-Foulkes estimate   =  -12818.60088888 Ry
     estimated scf accuracy    <     471.80830613 Ry

     iteration # 11     ecut=    80.00 Ry     beta=0.70
     Davidson diagonalization with overlap
     ethr =  1.00E-02,  avg # of iterations =  2.0

     negative rho (up, down):  1.608E+00 0.000E+00

     total cpu time spent up to now is     5224.7 secs

     total energy              =  -12750.67718475 Ry
     Harris-Foulkes estimate   =  -12792.10981252 Ry
     estimated scf accuracy    <     947.83733057 Ry

     iteration # 12     ecut=    80.00 Ry     beta=0.70
     Davidson diagonalization with overlap
     ethr =  1.00E-02,  avg # of iterations =  2.3

     negative rho (up, down):  1.327E+00 0.000E+00

     total cpu time spent up to now is     5407.2 secs

     total energy              =  -12738.48851331 Ry
     Harris-Foulkes estimate   =  -12761.78682599 Ry
     estimated scf accuracy    <     224.51953914 Ry

     iteration # 13     ecut=    80.00 Ry     beta=0.70
     Davidson diagonalization with overlap
     ethr =  1.00E-02,  avg # of iterations =  1.8

     negative rho (up, down):  1.291E+00 0.000E+00

     total cpu time spent up to now is     5583.2 secs

     total energy              =  -12733.94424104 Ry
     Harris-Foulkes estimate   =  -12746.91743907 Ry
     estimated scf accuracy    <     133.99804008 Ry

     iteration # 14     ecut=    80.00 Ry     beta=0.70
     Davidson diagonalization with overlap
     ethr =  1.00E-02,  avg # of iterations =  1.3

     negative rho (up, down):  1.600E+00 0.000E+00

     total cpu time spent up to now is     5752.0 secs

     total energy              =  -12728.07900553 Ry
     Harris-Foulkes estimate   =  -12739.47627399 Ry
     estimated scf accuracy    <      89.03412890 Ry

     iteration # 15     ecut=    80.00 Ry     beta=0.70
     Davidson diagonalization with overlap
     ethr =  6.86E-03,  avg # of iterations =  1.0

     negative rho (up, down):  7.495E+00 0.000E+00

     total cpu time spent up to now is     5918.0 secs

     total energy              =  -12723.13626472 Ry
     Harris-Foulkes estimate   =  -12731.93293331 Ry
     estimated scf accuracy    <      56.51096713 Ry

     iteration # 16     ecut=    80.00 Ry     beta=0.70
     Davidson diagonalization with overlap
     ethr =  4.35E-03,  avg # of iterations =  3.8

     negative rho (up, down):  6.403E+00 0.000E+00

     total cpu time spent up to now is     6117.8 secs

     total energy              =  -12721.33486307 Ry
     Harris-Foulkes estimate   =  -12724.85274194 Ry
     estimated scf accuracy    <      31.60282597 Ry

     iteration # 17     ecut=    80.00 Ry     beta=0.70
     Davidson diagonalization with overlap
     ethr =  2.43E-03,  avg # of iterations =  4.8

     negative rho (up, down):  5.121E+00 0.000E+00

     total cpu time spent up to now is     6329.4 secs

     total energy              =  -12719.69724608 Ry
     Harris-Foulkes estimate   =  -12723.06563765 Ry
     estimated scf accuracy    <      37.34340972 Ry

     iteration # 18     ecut=    80.00 Ry     beta=0.70
     Davidson diagonalization with overlap
     ethr =  2.43E-03,  avg # of iterations =  2.5

     negative rho (up, down):  6.619E+00 0.000E+00

     total cpu time spent up to now is     6511.8 secs

     total energy              =  -12718.67538444 Ry
     Harris-Foulkes estimate   =  -12720.72038555 Ry
     estimated scf accuracy    <      21.13710314 Ry

     iteration # 19     ecut=    80.00 Ry     beta=0.70
     Davidson diagonalization with overlap
     ethr =  1.63E-03,  avg # of iterations =  5.2

     negative rho (up, down):  4.126E+00 0.000E+00

     total cpu time spent up to now is     6743.5 secs

     total energy              =  -12718.26135152 Ry
     Harris-Foulkes estimate   =  -12720.73854893 Ry
     estimated scf accuracy    <      13.19715491 Ry

     iteration # 20     ecut=    80.00 Ry     beta=0.70
     Davidson diagonalization with overlap
     ethr =  1.02E-03,  avg # of iterations =  3.2

     negative rho (up, down):  2.609E+00 0.000E+00

     total cpu time spent up to now is     6936.0 secs

     total energy              =  -12716.65651627 Ry
     Harris-Foulkes estimate   =  -12718.61160559 Ry
     estimated scf accuracy    <       9.25036093 Ry

     iteration # 21     ecut=    80.00 Ry     beta=0.70
     Davidson diagonalization with overlap
     ethr =  7.13E-04,  avg # of iterations =  1.0

     negative rho (up, down):  2.472E+00 0.000E+00

     total cpu time spent up to now is     7102.6 secs

     total energy              =  -12716.87405034 Ry
     Harris-Foulkes estimate   =  -12717.14878715 Ry
     estimated scf accuracy    <      15.72927523 Ry

     iteration # 22     ecut=    80.00 Ry     beta=0.70
     Davidson diagonalization with overlap
     ethr =  7.13E-04,  avg # of iterations =  6.0

     negative rho (up, down):  2.139E+00 0.000E+00

     total cpu time spent up to now is     7327.5 secs

     total energy              =  -12716.53539213 Ry
     Harris-Foulkes estimate   =  -12717.16772190 Ry
     estimated scf accuracy    <       7.38613055 Ry

     iteration # 23     ecut=    80.00 Ry     beta=0.70
     Davidson diagonalization with overlap
     ethr =  5.69E-04,  avg # of iterations =  3.7

     negative rho (up, down):  1.276E+00 0.000E+00

     total cpu time spent up to now is     7524.7 secs

     total energy              =  -12714.86487202 Ry
     Harris-Foulkes estimate   =  -12716.70087588 Ry
     estimated scf accuracy    <       7.97590097 Ry

     iteration # 24     ecut=    80.00 Ry     beta=0.70
     Davidson diagonalization with overlap
     ethr =  5.69E-04,  avg # of iterations =  1.0

     negative rho (up, down):  4.538E-01 0.000E+00

     total cpu time spent up to now is     7691.0 secs

     total energy              =  -12714.12188689 Ry
     Harris-Foulkes estimate   =  -12715.01238801 Ry
     estimated scf accuracy    <      14.69215532 Ry

     iteration # 25     ecut=    80.00 Ry     beta=0.70
     Davidson diagonalization with overlap
     ethr =  5.69E-04,  avg # of iterations =  8.7

     negative rho (up, down):  1.715E-01 0.000E+00

     total cpu time spent up to now is     7949.6 secs

     total energy              =  -12712.81173382 Ry
     Harris-Foulkes estimate   =  -12714.49626157 Ry
     estimated scf accuracy    <      22.48240902 Ry

     iteration # 26     ecut=    80.00 Ry     beta=0.70
     Davidson diagonalization with overlap
     ethr =  5.69E-04,  avg # of iterations =  2.8

     negative rho (up, down):  5.663E-01 0.000E+00

     total cpu time spent up to now is     8136.7 secs

     total energy              =  -12712.93550767 Ry
     Harris-Foulkes estimate   =  -12713.31393994 Ry
     estimated scf accuracy    <      10.75408418 Ry

     iteration # 27     ecut=    80.00 Ry     beta=0.70
     Davidson diagonalization with overlap
     ethr =  5.69E-04,  avg # of iterations =  1.7

     negative rho (up, down):  2.880E-01 0.000E+00

     total cpu time spent up to now is     8311.8 secs

     total energy              =  -12712.33563360 Ry
     Harris-Foulkes estimate   =  -12713.60135611 Ry
     estimated scf accuracy    <       3.50047083 Ry

     iteration # 28     ecut=    80.00 Ry     beta=0.70
     Davidson diagonalization with overlap
     ethr =  2.70E-04,  avg # of iterations =  4.5

     negative rho (up, down):  6.194E-01 0.000E+00

     total cpu time spent up to now is     8521.0 secs

     total energy              =  -12712.17680198 Ry
     Harris-Foulkes estimate   =  -12712.55690393 Ry
     estimated scf accuracy    <       1.50646770 Ry

     iteration # 29     ecut=    80.00 Ry     beta=0.70
     Davidson diagonalization with overlap
     ethr =  1.16E-04,  avg # of iterations =  9.0

     negative rho (up, down):  6.198E-01 0.000E+00

     total cpu time spent up to now is     8801.4 secs

     total energy              =  -12712.12539476 Ry
     Harris-Foulkes estimate   =  -12712.24841532 Ry
     estimated scf accuracy    <       0.59990139 Ry

     iteration # 30     ecut=    80.00 Ry     beta=0.70
     Davidson diagonalization with overlap
     ethr =  4.62E-05,  avg # of iterations =  9.2

     negative rho (up, down):  4.767E-01 0.000E+00

     total cpu time spent up to now is     9079.4 secs

     total energy              =  -12712.09051734 Ry
     Harris-Foulkes estimate   =  -12712.16599476 Ry
     estimated scf accuracy    <       0.34022378 Ry

     iteration # 31     ecut=    80.00 Ry     beta=0.70
     Davidson diagonalization with overlap
     ethr =  2.62E-05,  avg # of iterations = 10.3

     negative rho (up, down):  3.411E-01 0.000E+00

     total cpu time spent up to now is     9379.0 secs

     total energy              =  -12712.10077833 Ry
     Harris-Foulkes estimate   =  -12712.12477961 Ry
     estimated scf accuracy    <       0.15085576 Ry

     iteration # 32     ecut=    80.00 Ry     beta=0.70
     Davidson diagonalization with overlap
     ethr =  1.16E-05,  avg # of iterations =  6.7

     negative rho (up, down):  2.080E-01 0.000E+00

     total cpu time spent up to now is     9626.7 secs

     total energy              =  -12712.10945230 Ry
     Harris-Foulkes estimate   =  -12712.11228111 Ry
     estimated scf accuracy    <       0.03603679 Ry

     iteration # 33     ecut=    80.00 Ry     beta=0.70
     Davidson diagonalization with overlap
     ethr =  2.78E-06,  avg # of iterations =  7.2

     negative rho (up, down):  1.672E-01 0.000E+00

     total cpu time spent up to now is     9890.1 secs

     total energy              =  -12712.10948321 Ry
     Harris-Foulkes estimate   =  -12712.11163162 Ry
     estimated scf accuracy    <       0.01870823 Ry

     iteration # 34     ecut=    80.00 Ry     beta=0.70
     Davidson diagonalization with overlap
     ethr =  1.44E-06,  avg # of iterations =  7.2

     negative rho (up, down):  7.946E-02 0.000E+00

     total cpu time spent up to now is    10136.4 secs

     total energy              =  -12712.10707742 Ry
     Harris-Foulkes estimate   =  -12712.11068242 Ry
     estimated scf accuracy    <       0.01023431 Ry

     iteration # 35     ecut=    80.00 Ry     beta=0.70
     Davidson diagonalization with overlap
     c_bands:  2 eigenvalues not converged
     ethr =  7.88E-07,  avg # of iterations = 12.3

     negative rho (up, down):  6.906E-02 0.000E+00

     total cpu time spent up to now is    10477.4 secs

     total energy              =  -12712.10765898 Ry
     Harris-Foulkes estimate   =  -12712.10847033 Ry
     estimated scf accuracy    <       0.00414820 Ry

     iteration # 36     ecut=    80.00 Ry     beta=0.70
     Davidson diagonalization with overlap
     c_bands:  1 eigenvalues not converged
     ethr =  3.20E-07,  avg # of iterations =  7.3

     negative rho (up, down):  2.804E-02 0.000E+00

     total cpu time spent up to now is    10721.5 secs

     total energy              =  -12712.10712234 Ry
     Harris-Foulkes estimate   =  -12712.10802212 Ry
     estimated scf accuracy    <       0.00103710 Ry

     iteration # 37     ecut=    80.00 Ry     beta=0.70
     Davidson diagonalization with overlap
     c_bands:  1 eigenvalues not converged
     c_bands:  2 eigenvalues not converged
     ethr =  7.99E-08,  avg # of iterations = 15.3

     negative rho (up, down):  1.369E-02 0.000E+00

     total cpu time spent up to now is    11089.4 secs

     total energy              =  -12712.10693544 Ry
     Harris-Foulkes estimate   =  -12712.10720818 Ry
     estimated scf accuracy    <       0.00057814 Ry

     iteration # 38     ecut=    80.00 Ry     beta=0.70
     Davidson diagonalization with overlap
     c_bands:  1 eigenvalues not converged
     ethr =  4.45E-08,  avg # of iterations = 12.7

     negative rho (up, down):  3.796E-03 0.000E+00

     total cpu time spent up to now is    11424.2 secs

     total energy              =  -12712.10679673 Ry
     Harris-Foulkes estimate   =  -12712.10698587 Ry
     estimated scf accuracy    <       0.00018136 Ry

     iteration # 39     ecut=    80.00 Ry     beta=0.70
     Davidson diagonalization with overlap
     c_bands:  1 eigenvalues not converged
     ethr =  1.40E-08,  avg # of iterations = 14.5

     negative rho (up, down):  2.605E-03 0.000E+00

     total cpu time spent up to now is    11796.0 secs

     total energy              =  -12712.10681166 Ry
     Harris-Foulkes estimate   =  -12712.10682488 Ry
     estimated scf accuracy    <       0.00009779 Ry

     iteration # 40     ecut=    80.00 Ry     beta=0.70
     Davidson diagonalization with overlap
     ethr =  7.53E-09,  avg # of iterations =  5.3

     negative rho (up, down):  1.831E-03 0.000E+00

     total cpu time spent up to now is    12021.3 secs

     total energy              =  -12712.10681880 Ry
     Harris-Foulkes estimate   =  -12712.10681822 Ry
     estimated scf accuracy    <       0.00002022 Ry

     iteration # 41     ecut=    80.00 Ry     beta=0.70
     Davidson diagonalization with overlap
     c_bands:  1 eigenvalues not converged
     ethr =  1.56E-09,  avg # of iterations =  8.3

     negative rho (up, down):  1.704E-03 0.000E+00

     total cpu time spent up to now is    12308.1 secs

     total energy              =  -12712.10681985 Ry
     Harris-Foulkes estimate   =  -12712.10682138 Ry
     estimated scf accuracy    <       0.00001132 Ry

     iteration # 42     ecut=    80.00 Ry     beta=0.70
     Davidson diagonalization with overlap
     ethr =  8.72E-10,  avg # of iterations =  2.0

     negative rho (up, down):  1.685E-03 0.000E+00

     total cpu time spent up to now is    12492.8 secs

     total energy              =  -12712.10682012 Ry
     Harris-Foulkes estimate   =  -12712.10682080 Ry
     estimated scf accuracy    <       0.00000438 Ry

     iteration # 43     ecut=    80.00 Ry     beta=0.70
     Davidson diagonalization with overlap
     ethr =  3.37E-10,  avg # of iterations =  2.0

     negative rho (up, down):  1.784E-03 0.000E+00

     total cpu time spent up to now is    12674.8 secs

     total energy              =  -12712.10682058 Ry
     Harris-Foulkes estimate   =  -12712.10682031 Ry
     estimated scf accuracy    <       0.00000067 Ry

     iteration # 44     ecut=    80.00 Ry     beta=0.70
     Davidson diagonalization with overlap
     ethr =  5.17E-11,  avg # of iterations =  3.0

     negative rho (up, down):  1.856E-03 0.000E+00

     total cpu time spent up to now is    12872.7 secs

     total energy              =  -12712.10682048 Ry
     Harris-Foulkes estimate   =  -12712.10682063 Ry
     estimated scf accuracy    <       0.00000023 Ry

     iteration # 45     ecut=    80.00 Ry     beta=0.70
     Davidson diagonalization with overlap
     ethr =  1.81E-11,  avg # of iterations =  2.0

     negative rho (up, down):  1.896E-03 0.000E+00

     total cpu time spent up to now is    13062.4 secs

     total energy              =  -12712.10682040 Ry
     Harris-Foulkes estimate   =  -12712.10682051 Ry
     estimated scf accuracy    <       0.00000010 Ry

     iteration # 46     ecut=    80.00 Ry     beta=0.70
     Davidson diagonalization with overlap
     ethr =  7.47E-12,  avg # of iterations =  2.5

     negative rho (up, down):  1.932E-03 0.000E+00

     total cpu time spent up to now is    13255.8 secs

     total energy              =  -12712.10682031 Ry
     Harris-Foulkes estimate   =  -12712.10682041 Ry
     estimated scf accuracy    <       0.00000002 Ry

     iteration # 47     ecut=    80.00 Ry     beta=0.70
     Davidson diagonalization with overlap
     ethr =  1.82E-12,  avg # of iterations =  3.0

     negative rho (up, down):  1.936E-03 0.000E+00

     total cpu time spent up to now is    13491.2 secs

     total energy              =  -12712.10682028 Ry
     Harris-Foulkes estimate   =  -12712.10682032 Ry
     estimated scf accuracy    <       0.00000001 Ry

     iteration # 48     ecut=    80.00 Ry     beta=0.70
     Davidson diagonalization with overlap
     ethr =  8.36E-13,  avg # of iterations =  3.0

     negative rho (up, down):  1.937E-03 0.000E+00

     total cpu time spent up to now is    13683.1 secs

     End of self-consistent calculation

          k = 0.0000 0.0000 0.0000 (256287 PWs)   bands (ev):

   -16.0575 -15.7354 -15.6321 -14.6332 -14.5302 -14.1196 -14.0620 -13.8257
   -13.7281 -13.6793 -13.6637 -12.8863 -12.7410 -12.6870 -12.6509 -12.6189
   -12.6010 -11.4517 -10.9595 -10.9278 -10.9183 -10.8108 -10.5795  -9.7303
    -9.0687  -9.0579  -9.0468  -9.0196  -8.2091  -8.1772  -8.1461  -8.1378
    -7.2274  -7.1839  -7.1392  -7.1098  -7.0911  -7.0863  -7.0679  -7.0416
    -5.8809  -5.6743  -5.6384  -5.5575  -5.5438  -5.4523  -5.4031  -5.3914
    -5.3547  -5.2637  -5.1390  -5.1277  -4.7101  -4.6262  -4.3741  -4.2530
    -4.1923  -4.1416  -4.0761  -4.0296  -3.8773  -3.8393  -3.7435  -3.6332
    -3.6198  -3.3190  -3.1204  -3.0920  -3.0879  -3.0669  -3.0493  -3.0219
    -2.9519  -2.9424  -2.9100  -2.8521  -2.8112  -2.7507  -2.6716  -2.6628
    -2.6574  -2.6540  -2.5742  -2.5483  -2.5083  -2.4302  -2.4214  -2.3973
    -2.3035  -2.2882  -2.2782  -2.2601  -2.2253  -2.1782  -2.0621  -2.0554
    -2.0280  -2.0128  -1.9544  -1.8730  -1.8659  -1.8554  -1.8230  -1.8096
    -1.8024  -1.8004  -1.7984  -1.7264  -1.7064  -1.6960  -1.6850  -1.6824
    -1.6689  -1.6369  -1.5672  -1.5562  -1.4838  -1.4583  -1.4381  -1.4238
    -1.4120  -1.3997  -1.3725  -1.3687  -1.3622  -1.3222  -1.3115  -1.3077
    -1.2947  -1.2801  -1.2580  -1.2493  -1.2346  -1.2185  -1.2129  -1.2017
    -1.1817  -1.1689  -1.1640  -1.1590  -1.1477  -1.1154  -1.1038  -1.0653
    -1.0563  -1.0264  -1.0162  -0.9974  -0.9877  -0.9594  -0.9551  -0.9455
    -0.9120  -0.9008  -0.8975  -0.8934  -0.8660  -0.8576  -0.8397  -0.8155
    -0.8135  -0.8106  -0.7909  -0.7830  -0.7437  -0.7401  -0.7291  -0.7216
    -0.7089  -0.6939  -0.6853  -0.6785  -0.6739  -0.6711  -0.6695  -0.6634
    -0.6603  -0.6492  -0.6428  -0.6266  -0.6148  -0.6019  -0.5950  -0.5882
    -0.5836  -0.5659  -0.5592  -0.5452  -0.5321  -0.5300  -0.5218  -0.5123
    -0.5076  -0.5055  -0.5027  -0.5014  -0.5008  -0.4991  -0.4981  -0.4967
    -0.4946  -0.4905  -0.4896  -0.4850  -0.4818  -0.4595  -0.4517  -0.4078
    -0.4050  -0.3906  -0.3702  -0.3333  -0.3308  -0.3237  -0.3220  -0.3099
    -0.2932  -0.2847  -0.2797  -0.2717  -0.2573  -0.2502  -0.2431  -0.2411
    -0.2363  -0.2197  -0.2170  -0.2117  -0.2093  -0.2079  -0.2000  -0.1976
    -0.1818  -0.1602  -0.1420  -0.1267  -0.1047  -0.1007  -0.0977  -0.0840
    -0.0826  -0.0724  -0.0689  -0.0631  -0.0596  -0.0546  -0.0537  -0.0521
    -0.0503  -0.0476  -0.0440  -0.0368  -0.0325  -0.0265  -0.0228  -0.0194
    -0.0129  -0.0097   0.0056   0.0095   0.0474   0.0531   0.0547   0.0608
     0.0707   0.0844   0.0884   0.0889   0.0919   0.0948   0.1015   0.1077
     0.1150   0.1182   0.1235   0.1263   0.1294   0.1308   0.1334   0.1382
     0.1391   0.1435   0.1504   0.1541   0.1587   0.1633   0.1639   0.1779
     0.1900   0.2154   0.2209   0.2274   0.2334   0.2404   0.2418   0.2631
     0.2812   0.2828   0.2871   0.2889   0.2907   0.2923   0.2934   0.3035
     0.3146   0.3229   0.3398   0.3431   0.3507   0.3566   0.3608   0.3654
     0.3689   0.3714   0.3720   0.3759   0.3816   0.3897   0.3942   0.3947
     0.4000   0.4024   0.4055   0.4072   0.4116   0.4126   0.4217   0.4262
     0.4314   0.4441   0.4524   0.4566   0.4619   0.4732   0.4864   0.4874
     0.5059   0.5144   0.5251   0.5291   0.5346   0.5496   0.5542   0.5784
     0.5818   0.5861   0.5922   0.5925   0.5989   0.5992   0.6096   0.6156
     0.6228   0.6317   0.6353   0.6452   0.6711   0.6793   0.6875   0.6918
     0.6950   0.6986   0.7072   0.7105   0.7142   0.7232   0.7269   0.7325
     0.7533   0.7571   0.7583   0.7638   0.7691   0.7813   0.7854   0.8001
     0.8007   0.8098   0.8150   0.8166   0.8239   0.8330   0.8375   0.8465
     0.8485   0.8493   0.8526   0.8591   0.8603   0.8652   0.8811   0.8818
     0.8868   0.8900   0.8929   0.8954   0.8979   0.9048   0.9076   0.9130
     0.9158   0.9246   0.9323   0.9376   0.9432   0.9473   0.9557   0.9623
     0.9693   0.9695   0.9828   0.9862   0.9986   0.9997   1.0045   1.0093
     1.0113   1.0132   1.0209   1.0274   1.0317   1.0335   1.0348   1.0367
     1.0376   1.0460   1.0466   1.0517   1.0611   1.0653   1.0690   1.0748
     1.0772   1.0900   1.0914   1.0943   1.0969   1.0994   1.0995   1.1009
     1.1074   1.1152   1.1191   1.1332   1.1392   1.1404   1.1528   1.1566
     1.1633   1.1687   1.1730   1.1752   1.1780   1.1969   1.2053   1.2075
     1.2228   1.2260   1.2295   1.2325   1.2350   1.2451   1.2489   1.2506
     1.2557   1.2615   1.2665   1.2761   1.2800   1.2904   1.2908   1.2921
     1.2997   1.3040   1.3129   1.3144   1.3197   1.3272   1.3296   1.3332
     1.3357   1.3385   1.3426   1.3495   1.3582   1.3608   1.3613   1.3634
     1.3674   1.3696   1.3720   1.3750   1.3769   1.3838   1.3915   1.3949
     1.3961   1.4003   1.4064   1.4123   1.4188   1.4241   1.4273   1.4405
     1.4467   1.4540   1.4553   1.4579   1.4616   1.4656   1.4665   1.4676
     1.4683   1.4728   1.4810   1.4851   1.4987   1.5079   1.5135   1.5163
     1.5208   1.5283   1.5332   1.5445   1.5458   1.5507   1.5526   1.5540
     1.5565   1.5647   1.5671   1.5755   1.5760   1.5802   1.5832   1.5867
     1.5895   1.5907   1.5943   1.5998   1.6092   1.6131   1.6142   1.6166
     1.6186   1.6204   1.6238   1.6259   1.6304   1.6359   1.6453   1.6458
     1.6501   1.6541   1.6589   1.6604   1.6623   1.6647   1.6673   1.6682
     1.6818   1.6894   1.6921   1.6980   1.7024   1.7058   1.7068   1.7096
     1.7123   1.7202   1.7247   1.7305   1.7370   1.7375   1.7449   1.7510
     1.7524   1.7582   1.7636   1.7678   1.7689   1.7701   1.7735   1.7759
     1.7810   1.7836   1.7843   1.7856   1.7890   1.7910   1.7935   1.8011
     1.8051   1.8064   1.8111   1.8190   1.8245   1.8277   1.8330   1.8401
     1.8480   1.8628   1.8670   1.8730   1.8749   1.8847   1.9001   1.9047
     1.9062   1.9249   1.9334   1.9477   1.9495   1.9596   1.9654   1.9756
     1.9776   1.9928   1.9946   1.9981   2.0106   2.0335   2.1991   2.2665
     2.3085   2.4559   2.4800   2.4909   2.5245   2.5306   2.5487   2.5558
     2.5574   2.5676   2.5732   2.5896   2.6301   2.7002   2.7592   2.7748
     2.7979   2.8078   2.8168   2.8487   2.8946   3.0216   3.0565   3.0807
     3.1233   3.3356   3.4218   3.4520   3.4608   3.5618   3.8748   3.9277
     4.1292   4.1625   4.1717   4.1839   4.2015   4.2234   4.2798   4.3011
     4.3105   4.3211   4.3472   4.3495   4.3507   4.3834   4.4146   4.4488
     4.4994   4.5762   4.6138   4.6528   4.7460   5.0563   5.1268   5.1599
     5.2554   5.2773   5.3845   5.6237   5.7142   5.7519   5.7907   6.0278
     6.0445   6.0603   6.0967   6.2336   6.2739   6.2944   6.6003   6.6783
     6.6965   6.7318   6.7699   6.8217   6.8284   6.8617   6.8859   6.9776
     7.0388   7.0821   7.1053   7.1261   7.1282   7.1576   7.2191   7.2488
     7.3711   7.3946   7.4132   7.4282   7.4929   7.6102   7.6948   7.7117
     7.8388   7.9097   7.9209   7.9744   7.9959   7.9994   8.0310   8.0408
     8.1814   8.2385   8.4278   8.4669   8.5237   8.5290   8.5333   8.5498
     8.5942   8.6434   8.6706   8.6817   8.7045   8.7495   8.7918   8.8250
     8.8478   8.8606   8.8764   8.9297   8.9420   9.0277   9.0349   9.0909
     9.1035   9.1565   9.2098   9.3174   9.3280   9.3498   9.3539   9.3862
     9.4174   9.4199   9.4251   9.4521   9.4979   9.5327   9.6078   9.6769
     9.7361   9.8692   9.8974  10.0675  10.0795  10.0883  10.0957  10.1588
    10.1825  10.2458  10.2951

          k = 0.0000-0.2165 0.0000 (256176 PWs)   bands (ev):

   -15.9781 -15.9523 -15.2644 -15.1724 -14.1079 -13.9934 -13.9909 -13.9480
   -13.7719 -13.7169 -13.3517 -13.2752 -13.2398 -13.2164 -12.1001 -11.8630
   -11.8448 -11.8285 -11.6935 -11.6193 -11.0390  -9.9589  -9.9444  -9.9271
    -9.8787  -8.7142  -8.6864  -8.5513  -8.5407  -8.5356  -8.5070  -7.7422
    -7.7041  -7.6931  -7.6825  -6.5558  -6.5538  -6.5253  -6.4647  -6.4457
    -6.3842  -6.3649  -6.3480  -5.6927  -5.6207  -5.5506  -5.5341  -5.5182
    -4.9520  -4.7399  -4.7275  -4.6599  -4.6186  -4.5404  -4.5043  -4.4633
    -4.3868  -4.2793  -4.1667  -4.1335  -4.1213  -4.1108  -3.9829  -3.7470
    -3.5459  -3.4457  -3.1943  -2.9963  -2.9555  -2.9535  -2.9455  -2.9178
    -2.8734  -2.7939  -2.7822  -2.7236  -2.6907  -2.6816  -2.6181  -2.6096
    -2.5851  -2.5723  -2.4457  -2.4382  -2.4007  -2.3875  -2.3455  -2.2968
    -2.2587  -2.2536  -2.2459  -2.2364  -2.2341  -2.2304  -2.2076  -2.1456
    -2.1424  -2.1308  -2.0009  -1.9804  -1.9254  -1.9085  -1.9055  -1.9048
    -1.8497  -1.8402  -1.8172  -1.8019  -1.7921  -1.7240  -1.6862  -1.6491
    -1.6429  -1.6222  -1.6083  -1.5958  -1.5264  -1.5141  -1.5002  -1.4623
    -1.4470  -1.4297  -1.4170  -1.4095  -1.3965  -1.3814  -1.3708  -1.3700
    -1.3497  -1.3380  -1.3057  -1.2937  -1.2894  -1.2282  -1.1903  -1.1817
    -1.1774  -1.1456  -1.1136  -1.1092  -1.0921  -1.0654  -1.0182  -1.0153
    -0.9960  -0.9687  -0.9626  -0.9543  -0.9332  -0.9233  -0.9197  -0.9178
    -0.9160  -0.9123  -0.9055  -0.8929  -0.8872  -0.8779  -0.8759  -0.8700
    -0.8555  -0.8503  -0.8400  -0.8338  -0.8049  -0.7931  -0.7873  -0.7663
    -0.7365  -0.7352  -0.7321  -0.7227  -0.6975  -0.6954  -0.6837  -0.6775
    -0.6627  -0.6368  -0.6308  -0.6306  -0.6263  -0.6120  -0.5921  -0.5845
    -0.5791  -0.5747  -0.5681  -0.5621  -0.5579  -0.5507  -0.5482  -0.5332
    -0.5259  -0.5176  -0.5051  -0.4840  -0.4751  -0.4682  -0.4656  -0.4634
    -0.4556  -0.4522  -0.4356  -0.4254  -0.4103  -0.4033  -0.4025  -0.3849
    -0.3656  -0.3177  -0.3037  -0.3032  -0.3012  -0.2925  -0.2823  -0.2788
    -0.2741  -0.2554  -0.2537  -0.2512  -0.2492  -0.2469  -0.2466  -0.2254
    -0.2234  -0.2154  -0.1980  -0.1928  -0.1891  -0.1865  -0.1702  -0.1621
    -0.1591  -0.1567  -0.1321  -0.1307  -0.1306  -0.1156  -0.1122  -0.1063
    -0.0991  -0.0959  -0.0920  -0.0879  -0.0733  -0.0608  -0.0440  -0.0391
    -0.0166  -0.0127  -0.0055  -0.0012   0.0043   0.0073   0.0205   0.0343
     0.0369   0.0428   0.0462   0.0534   0.0554   0.0600   0.0637   0.0704
     0.0792   0.0844   0.0903   0.0929   0.0952   0.0995   0.1031   0.1053
     0.1103   0.1139   0.1198   0.1342   0.1368   0.1427   0.1462   0.1483
     0.1499   0.1626   0.1692   0.1767   0.1932   0.2033   0.2105   0.2119
     0.2147   0.2157   0.2220   0.2242   0.2325   0.2445   0.2507   0.2515
     0.2582   0.2644   0.2659   0.2708   0.2756   0.2776   0.2818   0.2844
     0.2982   0.2999   0.3050   0.3205   0.3285   0.3302   0.3448   0.3509
     0.3564   0.3587   0.3626   0.3627   0.3650   0.3733   0.3761   0.3884
     0.3908   0.3957   0.4040   0.4103   0.4229   0.4266   0.4267   0.4313
     0.4323   0.4411   0.4427   0.4538   0.4567   0.4617   0.4656   0.4712
     0.4761   0.4815   0.4876   0.4985   0.5204   0.5269   0.5289   0.5335
     0.5467   0.5509   0.5530   0.5562   0.5597   0.5901   0.5943   0.6067
     0.6205   0.6358   0.6403   0.6447   0.6536   0.6560   0.6731   0.6906
     0.7082   0.7295   0.7358   0.7391   0.7415   0.7449   0.7499   0.7533
     0.7754   0.7778   0.7787   0.7854   0.7919   0.7959   0.7993   0.8057
     0.8102   0.8130   0.8137   0.8210   0.8244   0.8252   0.8294   0.8444
     0.8472   0.8567   0.8617   0.8633   0.8689   0.8706   0.8727   0.8809
     0.8852   0.8874   0.8874   0.8921   0.8948   0.8957   0.9001   0.9045
     0.9083   0.9096   0.9153   0.9257   0.9281   0.9316   0.9322   0.9329
     0.9338   0.9406   0.9435   0.9485   0.9538   0.9697   0.9926   0.9949
     0.9968   1.0038   1.0069   1.0106   1.0153   1.0183   1.0193   1.0256
     1.0276   1.0283   1.0315   1.0327   1.0374   1.0448   1.0670   1.0685
     1.0746   1.0766   1.0786   1.0859   1.0899   1.0925   1.1004   1.1046
     1.1071   1.1091   1.1190   1.1270   1.1274   1.1333   1.1624   1.1677
     1.1746   1.1810   1.1906   1.2003   1.2145   1.2198   1.2285   1.2405
     1.2451   1.2488   1.2502   1.2515   1.2531   1.2585   1.2610   1.2640
     1.2671   1.2679   1.2815   1.2827   1.2873   1.2893   1.2906   1.2947
     1.3001   1.3082   1.3152   1.3175   1.3176   1.3183   1.3203   1.3234
     1.3280   1.3294   1.3335   1.3380   1.3396   1.3397   1.3429   1.3440
     1.3495   1.3506   1.3565   1.3602   1.3627   1.3654   1.3684   1.3770
     1.3820   1.3846   1.3854   1.3898   1.3912   1.3998   1.4203   1.4296
     1.4334   1.4352   1.4427   1.4546   1.4754   1.4770   1.4806   1.4855
     1.4871   1.4963   1.5071   1.5098   1.5145   1.5241   1.5274   1.5286
     1.5300   1.5347   1.5359   1.5412   1.5419   1.5457   1.5471   1.5485
     1.5506   1.5517   1.5531   1.5595   1.5620   1.5678   1.5721   1.5741
     1.5773   1.5786   1.5873   1.5903   1.5991   1.6078   1.6117   1.6153
     1.6189   1.6196   1.6267   1.6280   1.6332   1.6369   1.6407   1.6431
     1.6446   1.6526   1.6536   1.6586   1.6642   1.6653   1.6666   1.6676
     1.6761   1.6815   1.6889   1.6931   1.6948   1.7056   1.7102   1.7128
     1.7201   1.7255   1.7272   1.7305   1.7314   1.7349   1.7389   1.7456
     1.7516   1.7580   1.7607   1.7729   1.7752   1.7773   1.7854   1.7910
     1.7942   1.7958   1.7971   1.8001   1.8027   1.8028   1.8142   1.8202
     1.8262   1.8372   1.8387   1.8456   1.8479   1.8491   1.8593   1.8633
     1.8715   1.8772   1.8820   1.8844   1.8854   1.8942   1.8950   1.9111
     1.9328   1.9388   1.9526   2.0106   2.0199   2.0453   2.0537   2.0593
     2.0842   2.0935   2.1079   2.1101   2.1157   2.1413   2.1489   2.1556
     2.1607   2.1902   2.2043   2.2055   2.2528   2.4068   2.4763   2.5007
     2.5413   2.7651   2.7693   2.7839   2.8143   2.8395   2.8585   2.8961
     2.9214   2.9246   2.9299   2.9912   3.0142   3.0378   3.0418   3.1133
     3.1141   3.1907   3.2634   3.2664   3.3500   3.5133   3.5133   3.5543
     3.5712   3.7079   3.7625   3.8927   4.0266   4.1396   4.2205   4.3564
     4.3582   4.4348   4.4411   4.5168   4.5648   4.6407   4.6791   4.7173
     4.7867   4.8562   4.9039   5.0117   5.0531   5.0690   5.1911   5.3329
     5.4063   5.4495   5.5671   5.6569   5.6949   5.6983   5.7197   5.7286
     5.8368   5.9268   5.9828   6.0138   6.0895   6.1518   6.2387   6.6379
     6.7129   6.7220   6.7616   6.7818   6.8121   6.8465   6.9305   6.9448
     7.0081   7.0576   7.1194   7.1524   7.2724   7.3696   7.3841   7.4028
     7.4127   7.4307   7.4436   7.4570   7.5056   7.5330   7.5483   7.5983
     7.6115   7.6616   7.6950   7.7792   7.8232   7.9657   8.0725   8.0775
     8.1359   8.1445   8.4103   8.4340   8.4947   8.5003   8.5492   8.5599
     8.6564   8.6922   8.7176   8.7399   8.7823   8.8313   8.9371   8.9484
     8.9529   8.9911   9.0247   9.0386   9.0653   9.0900   9.1088   9.1259
     9.1885   9.2010   9.2201   9.3037   9.3114   9.3393   9.3774   9.4444
     9.5357   9.5523   9.6438   9.6673   9.7127   9.7252   9.7278   9.7446
     9.8003   9.8060   9.8959   9.9504   9.9529   9.9925  10.0796  10.1264
    10.1881  10.2163  10.2300

          k = 0.2500 0.0000 0.0000 (256240 PWs)   bands (ev):

   -15.9343 -15.6148 -15.5086 -14.9446 -14.6446 -14.5262 -14.4683 -14.4065
   -13.5371 -13.4445 -13.0213 -12.7852 -12.6396 -12.6191 -12.6045 -11.8922
   -11.7071 -11.6439 -11.5886 -11.1411 -10.5708 -10.3411 -10.2990 -10.2229
    -9.7555  -9.6271  -9.3042  -9.2955  -8.9330  -8.6698  -8.6476  -8.1132
    -7.1687  -7.1226  -7.0942  -7.0792  -7.0332  -6.9645  -6.5171  -6.2619
    -5.8899  -5.6919  -5.5254  -5.4863  -5.4809  -5.4472  -5.3254  -4.9701
    -4.9593  -4.8299  -4.7239  -4.5570  -4.5054  -4.3193  -4.1883  -4.1094
    -4.0905  -4.0063  -3.9803  -3.9154  -3.8871  -3.8096  -3.7575  -3.6525
    -3.6429  -3.6035  -3.4895  -3.4823  -3.4557  -3.3447  -3.2503  -3.1799
    -3.1586  -3.1183  -3.0746  -3.0708  -3.0289  -2.9632  -2.9391  -2.9085
    -2.8849  -2.7784  -2.7249  -2.6914  -2.6661  -2.6220  -2.5141  -2.4603
    -2.4562  -2.4097  -2.3608  -2.3046  -2.2768  -2.0755  -2.0480  -2.0341
    -2.0161  -1.9876  -1.8974  -1.8142  -1.7658  -1.7586  -1.7441  -1.7327
    -1.6838  -1.6566  -1.6174  -1.5901  -1.5786  -1.5527  -1.5371  -1.4927
    -1.4726  -1.4589  -1.4495  -1.4422  -1.4301  -1.4256  -1.4124  -1.4004
    -1.3761  -1.3582  -1.3435  -1.3287  -1.3208  -1.2922  -1.2795  -1.2526
    -1.2452  -1.2346  -1.2303  -1.2265  -1.2229  -1.2063  -1.1929  -1.1771
    -1.1659  -1.1510  -1.1456  -1.1378  -1.0981  -1.0750  -1.0137  -0.9957
    -0.9801  -0.9695  -0.9459  -0.9292  -0.9154  -0.9075  -0.8943  -0.8878
    -0.8840  -0.8819  -0.8546  -0.8510  -0.8437  -0.8399  -0.8291  -0.8212
    -0.8110  -0.8039  -0.7847  -0.7818  -0.7786  -0.7747  -0.7596  -0.7556
    -0.7482  -0.7454  -0.7252  -0.7087  -0.7005  -0.6944  -0.6929  -0.6830
    -0.6805  -0.6699  -0.6670  -0.6617  -0.6559  -0.6407  -0.6363  -0.6299
    -0.6291  -0.6285  -0.6272  -0.6263  -0.6176  -0.6147  -0.6061  -0.5967
    -0.5916  -0.5842  -0.5598  -0.5556  -0.5468  -0.5381  -0.5302  -0.5030
    -0.4799  -0.4736  -0.4678  -0.4579  -0.4516  -0.4449  -0.4353  -0.4209
    -0.4147  -0.4114  -0.4037  -0.3979  -0.3943  -0.3932  -0.3795  -0.3601
    -0.3406  -0.3214  -0.2742  -0.2476  -0.2464  -0.2362  -0.2202  -0.2165
    -0.2052  -0.2002  -0.1991  -0.1905  -0.1854  -0.1785  -0.1740  -0.1692
    -0.1579  -0.1517  -0.1471  -0.1404  -0.1359  -0.1313  -0.1247  -0.1193
    -0.1114  -0.1068  -0.0957  -0.0741  -0.0668  -0.0535  -0.0472  -0.0441
    -0.0414  -0.0336  -0.0317  -0.0285  -0.0216  -0.0175   0.0017   0.0068
     0.0154   0.0210   0.0238   0.0318   0.0452   0.0546   0.0557   0.0586
     0.0625   0.0685   0.0792   0.0826   0.0884   0.0951   0.1019   0.1114
     0.1205   0.1257   0.1302   0.1356   0.1394   0.1489   0.1510   0.1625
     0.1666   0.1692   0.1792   0.1877   0.1967   0.2004   0.2052   0.2106
     0.2143   0.2181   0.2320   0.2395   0.2418   0.2585   0.2762   0.2806
     0.2860   0.2906   0.2995   0.3051   0.3121   0.3176   0.3317   0.3330
     0.3399   0.3420   0.3459   0.3491   0.3511   0.3526   0.3553   0.3582
     0.3615   0.3701   0.3767   0.3803   0.3857   0.3871   0.3906   0.3975
     0.4034   0.4104   0.4231   0.4269   0.4300   0.4375   0.4451   0.4543
     0.4603   0.4670   0.4700   0.4827   0.4856   0.4892   0.4916   0.5021
     0.5044   0.5163   0.5292   0.5363   0.5408   0.5511   0.5890   0.5947
     0.6067   0.6107   0.6164   0.6198   0.6251   0.6264   0.6308   0.6330
     0.6354   0.6388   0.6397   0.6450   0.6498   0.6533   0.6563   0.6596
     0.6677   0.6704   0.6746   0.6775   0.6807   0.6849   0.6876   0.6954
     0.7040   0.7168   0.7289   0.7319   0.7354   0.7422   0.7539   0.7561
     0.7659   0.7727   0.7841   0.7888   0.7936   0.8060   0.8115   0.8147
     0.8219   0.8257   0.8330   0.8355   0.8389   0.8423   0.8450   0.8494
     0.8530   0.8625   0.8650   0.8744   0.8760   0.8828   0.8912   0.8942
     0.8954   0.9006   0.9025   0.9098   0.9186   0.9273   0.9281   0.9342
     0.9384   0.9463   0.9485   0.9517   0.9543   0.9603   0.9633   0.9692
     0.9786   0.9855   0.9921   0.9933   1.0033   1.0103   1.0128   1.0153
     1.0215   1.0240   1.0289   1.0473   1.0545   1.0602   1.0616   1.0732
     1.0811   1.0898   1.0938   1.0956   1.1014   1.1076   1.1109   1.1144
     1.1192   1.1261   1.1272   1.1323   1.1367   1.1390   1.1533   1.1571
     1.1629   1.1695   1.1790   1.1888   1.1963   1.2029   1.2055   1.2114
     1.2146   1.2234   1.2280   1.2331   1.2360   1.2415   1.2453   1.2463
     1.2527   1.2552   1.2598   1.2677   1.2727   1.2756   1.2882   1.2924
     1.2939   1.3030   1.3056   1.3149   1.3184   1.3237   1.3282   1.3350
     1.3387   1.3426   1.3437   1.3477   1.3503   1.3531   1.3582   1.3655
     1.3660   1.3690   1.3717   1.3736   1.3770   1.3788   1.3834   1.3859
     1.3911   1.4019   1.4048   1.4072   1.4112   1.4167   1.4182   1.4199
     1.4211   1.4273   1.4292   1.4394   1.4440   1.4487   1.4524   1.4570
     1.4586   1.4622   1.4722   1.4761   1.4831   1.4848   1.4883   1.4911
     1.4972   1.5030   1.5057   1.5204   1.5254   1.5291   1.5325   1.5349
     1.5434   1.5577   1.5640   1.5762   1.5789   1.5843   1.5863   1.5898
     1.5938   1.5966   1.6023   1.6045   1.6088   1.6106   1.6132   1.6206
     1.6237   1.6272   1.6311   1.6326   1.6336   1.6423   1.6464   1.6476
     1.6503   1.6530   1.6541   1.6570   1.6620   1.6645   1.6677   1.6724
     1.6789   1.6813   1.6879   1.6954   1.6993   1.7011   1.7030   1.7070
     1.7103   1.7125   1.7217   1.7264   1.7314   1.7352   1.7377   1.7428
     1.7469   1.7563   1.7630   1.7667   1.7690   1.7709   1.7725   1.7777
     1.7785   1.7805   1.7855   1.7871   1.7899   1.7951   1.7990   1.8058
     1.8076   1.8112   1.8165   1.8184   1.8255   1.8284   1.8329   1.8338
     1.8398   1.8485   1.8502   1.8572   1.8577   1.8664   1.8680   1.8877
     1.8916   1.8961   1.9069   1.9167   1.9280   1.9642   1.9693   1.9706
     1.9814   1.9996   2.0122   2.0605   2.0874   2.0952   2.1120   2.1235
     2.1336   2.1851   2.1890   2.2847   2.3273   2.3733   2.4120   2.4271
     2.4489   2.5210   2.5534   2.5769   2.6617   2.8112   2.8866   2.9029
     2.9406   3.0879   3.3195   3.3220   3.3934   3.5170   3.5218   3.5613
     3.5681   3.5763   3.6294   3.7068   3.7916   3.8358   3.9112   3.9691
     3.9903   4.0015   4.0435   4.0574   4.0688   4.1036   4.1381   4.2284
     4.2623   4.3019   4.3946   4.4497   4.4914   4.6160   4.6866   4.7198
     4.7500   4.8203   5.0551   5.1281   5.1831   5.1946   5.3152   5.5043
     5.5371   5.5599   5.5989   5.6274   5.7250   5.7910   5.8058   5.8147
     5.8719   5.8856   5.9450   5.9941   6.0174   6.0522   6.1104   6.1167
     6.1760   6.2220   6.2907   6.3492   6.3707   6.4093   6.5725   6.5971
     6.9057   7.0208   7.0399   7.0814   7.0898   7.1095   7.1656   7.1936
     7.2465   7.2844   7.3305   7.3750   7.3847   7.3960   7.4738   7.5899
     7.6047   7.6198   7.7435   7.7961   7.8103   7.8644   7.8724   7.9495
     8.0276   8.0715   8.0888   8.1170   8.1780   8.2184   8.2542   8.3241
     8.3841   8.3934   8.4601   8.5091   8.5785   8.6179   8.6549   8.6757
     8.7066   8.7085   8.7197   8.7713   8.9219   8.9500   8.9729   9.0125
     9.1715   9.2295   9.2416   9.3096   9.3874   9.4432   9.4703   9.4724
     9.4906   9.4969   9.5158   9.5266   9.5435   9.5719   9.5758   9.5794
     9.6157   9.6688   9.6804   9.7169   9.8100   9.8218   9.9712  10.0250
    10.0913  10.1020  10.1779

          k = 0.2500-0.2165 0.0000 (256316 PWs)   bands (ev):

   -15.8564 -15.8283 -15.1523 -15.0504 -14.8472 -14.8410 -14.1631 -14.0737
   -13.6766 -13.5978 -12.9559 -12.9164 -12.7282 -12.6477 -12.2826 -12.1782
   -11.6971 -11.5081 -11.2251 -10.8994 -10.8269 -10.6295 -10.5371 -10.2731
   -10.1898  -9.1922  -9.1811  -8.6783  -8.6671  -8.6190  -8.5774  -8.0650
    -8.0377  -7.9504  -7.9357  -6.3222  -6.2525  -6.2177  -6.1964  -6.0937
    -6.0764  -5.8865  -5.8421  -5.6328  -5.5732  -5.5069  -5.3573  -5.3402
    -4.8408  -4.7333  -4.5131  -4.4869  -4.3930  -4.3664  -4.3402  -4.2972
    -4.2775  -4.1318  -3.9979  -3.9830  -3.9661  -3.7834  -3.7518  -3.7300
    -3.6538  -3.6109  -3.4348  -3.3917  -3.3790  -3.2703  -3.2219  -3.1374
    -3.1235  -3.1149  -3.1007  -3.0716  -3.0412  -2.9207  -2.8087  -2.7721
    -2.7510  -2.6565  -2.6313  -2.6112  -2.5802  -2.5700  -2.5592  -2.5496
    -2.4758  -2.4293  -2.4010  -2.3137  -2.1802  -2.1375  -2.0719  -2.0002
    -1.9675  -1.9573  -1.9365  -1.8910  -1.8465  -1.8257  -1.8195  -1.7695
    -1.7462  -1.6824  -1.6667  -1.6359  -1.6126  -1.5947  -1.5363  -1.5179
    -1.4989  -1.4760  -1.4596  -1.4396  -1.4245  -1.4181  -1.4009  -1.3824
    -1.3770  -1.3574  -1.3517  -1.3449  -1.3381  -1.3309  -1.3247  -1.3239
    -1.3190  -1.3171  -1.2899  -1.2673  -1.2585  -1.2300  -1.1861  -1.1507
    -1.1131  -1.1049  -1.0640  -1.0300  -1.0010  -0.9794  -0.9747  -0.9628
    -0.9556  -0.9291  -0.9240  -0.9216  -0.9094  -0.9054  -0.9034  -0.8929
    -0.8906  -0.8772  -0.8746  -0.8727  -0.8635  -0.8601  -0.8582  -0.8522
    -0.8502  -0.8332  -0.8294  -0.8094  -0.7890  -0.7778  -0.7738  -0.7695
    -0.7665  -0.7615  -0.7583  -0.7511  -0.7371  -0.7325  -0.7085  -0.6917
    -0.6850  -0.6811  -0.6739  -0.6716  -0.6672  -0.6519  -0.6391  -0.6357
    -0.6275  -0.6151  -0.6114  -0.6089  -0.6049  -0.5920  -0.5779  -0.5725
    -0.5678  -0.5559  -0.5323  -0.5202  -0.5159  -0.5115  -0.5096  -0.5010
    -0.4821  -0.4614  -0.4328  -0.4250  -0.4234  -0.4212  -0.4077  -0.4061
    -0.3835  -0.3712  -0.3634  -0.3598  -0.3554  -0.3490  -0.3420  -0.3354
    -0.3191  -0.3033  -0.2868  -0.2750  -0.2655  -0.2576  -0.2527  -0.2456
    -0.2337  -0.2175  -0.2138  -0.2108  -0.2066  -0.1855  -0.1806  -0.1719
    -0.1648  -0.1548  -0.1468  -0.1390  -0.1335  -0.1278  -0.1189  -0.1118
    -0.1031  -0.0918  -0.0832  -0.0702  -0.0615  -0.0538  -0.0465  -0.0457
    -0.0407  -0.0292  -0.0229  -0.0218  -0.0169  -0.0151  -0.0120  -0.0103
    -0.0057   0.0026   0.0042   0.0112   0.0177   0.0232   0.0317   0.0397
     0.0494   0.0606   0.0681   0.0803   0.0840   0.0937   0.0984   0.1073
     0.1133   0.1161   0.1290   0.1325   0.1350   0.1385   0.1428   0.1652
     0.1730   0.1910   0.1976   0.2036   0.2260   0.2291   0.2341   0.2391
     0.2450   0.2485   0.2592   0.2630   0.2673   0.2721   0.2782   0.2800
     0.2895   0.2926   0.2984   0.3035   0.3062   0.3113   0.3161   0.3289
     0.3325   0.3379   0.3416   0.3441   0.3479   0.3501   0.3522   0.3557
     0.3598   0.3628   0.3718   0.3736   0.3749   0.3824   0.3851   0.3879
     0.4008   0.4102   0.4180   0.4220   0.4251   0.4386   0.4543   0.4640
     0.4706   0.4771   0.4807   0.4871   0.4900   0.4927   0.4979   0.5038
     0.5054   0.5107   0.5180   0.5235   0.5274   0.5321   0.5418   0.5572
     0.5758   0.5841   0.5900   0.6126   0.6281   0.6311   0.6328   0.6356
     0.6372   0.6386   0.6407   0.6510   0.6549   0.6663   0.6677   0.6694
     0.6700   0.6748   0.6805   0.6829   0.6882   0.6894   0.6977   0.7030
     0.7158   0.7213   0.7271   0.7393   0.7449   0.7533   0.7564   0.7645
     0.7684   0.7816   0.7968   0.7993   0.8017   0.8052   0.8109   0.8123
     0.8199   0.8230   0.8245   0.8291   0.8301   0.8378   0.8477   0.8560
     0.8637   0.8677   0.8723   0.8777   0.8862   0.8903   0.8975   0.9068
     0.9167   0.9245   0.9262   0.9349   0.9470   0.9503   0.9538   0.9548
     0.9579   0.9615   0.9657   0.9708   0.9710   0.9827   0.9876   0.9920
     1.0002   1.0017   1.0073   1.0099   1.0124   1.0158   1.0172   1.0228
     1.0234   1.0271   1.0338   1.0364   1.0377   1.0432   1.0495   1.0536
     1.0563   1.0575   1.0629   1.0641   1.0666   1.0680   1.0781   1.0938
     1.1023   1.1079   1.1120   1.1152   1.1248   1.1377   1.1440   1.1580
     1.1613   1.1625   1.1702   1.1743   1.1800   1.1844   1.1890   1.1971
     1.1994   1.2028   1.2042   1.2058   1.2103   1.2151   1.2272   1.2292
     1.2354   1.2425   1.2460   1.2541   1.2593   1.2612   1.2706   1.2768
     1.2835   1.2891   1.2941   1.3046   1.3094   1.3116   1.3163   1.3175
     1.3194   1.3235   1.3286   1.3378   1.3416   1.3481   1.3518   1.3606
     1.3664   1.3722   1.3766   1.3862   1.3982   1.4052   1.4085   1.4131
     1.4231   1.4304   1.4310   1.4364   1.4386   1.4390   1.4402   1.4418
     1.4456   1.4483   1.4512   1.4553   1.4598   1.4658   1.4689   1.4768
     1.4828   1.4902   1.5006   1.5062   1.5111   1.5141   1.5183   1.5219
     1.5240   1.5258   1.5291   1.5328   1.5370   1.5391   1.5413   1.5421
     1.5452   1.5473   1.5505   1.5535   1.5563   1.5616   1.5630   1.5670
     1.5710   1.5749   1.5793   1.5839   1.5898   1.5983   1.6019   1.6132
     1.6147   1.6187   1.6221   1.6275   1.6321   1.6361   1.6428   1.6449
     1.6539   1.6592   1.6603   1.6644   1.6702   1.6742   1.6793   1.6821
     1.6833   1.6887   1.6930   1.6956   1.6983   1.7022   1.7071   1.7106
     1.7185   1.7266   1.7278   1.7295   1.7301   1.7319   1.7348   1.7360
     1.7416   1.7439   1.7470   1.7487   1.7576   1.7605   1.7665   1.7746
     1.7785   1.7810   1.7837   1.7853   1.7876   1.7900   1.7903   1.7906
     1.7952   1.8022   1.8044   1.8090   1.8268   1.8272   1.8372   1.8382
     1.8394   1.8440   1.8496   1.8564   1.8662   1.8732   1.8819   1.8915
     1.9003   1.9040   1.9058   1.9208   1.9278   1.9354   1.9514   1.9746
     1.9953   2.0357   2.0561   2.0703   2.0999   2.1051   2.1153   2.1187
     2.1301   2.1337   2.1502   2.1831   2.2492   2.3054   2.4634   2.4674
     2.4922   2.5205   2.6073   2.6373   2.7345   2.9235   2.9305   3.1046
     3.1234   3.1292   3.1363   3.1551   3.1679   3.2278   3.2958   3.3206
     3.3826   3.4389   3.5211   3.6873   3.8786   3.9070   3.9448   3.9797
     3.9962   4.1203   4.1630   4.1817   4.2381   4.2945   4.3454   4.3829
     4.4056   4.4742   4.5091   4.5493   4.6840   4.7157   4.7427   4.8179
     4.9002   4.9463   4.9735   5.0069   5.0369   5.0661   5.1263   5.2219
     5.2825   5.3329   5.4108   5.4845   5.5773   5.6361   5.6760   5.7293
     5.7783   5.7889   5.8024   5.8502   6.0115   6.0346   6.1023   6.1258
     6.2312   6.2888   6.2980   6.3812   6.4150   6.7359   6.8569   6.9181
     6.9482   6.9947   7.0548   7.1026   7.1785   7.2129   7.2734   7.3288
     7.3619   7.3903   7.4181   7.4357   7.4926   7.5406   7.5593   7.5942
     7.6244   7.6595   7.6750   7.7011   7.7438   7.7556   7.7634   7.7835
     7.9322   7.9938   8.0383   8.0950   8.1709   8.2193   8.3038   8.3111
     8.3577   8.4487   8.5127   8.5450   8.5771   8.7055   8.7106   8.7275
     8.7619   8.8572   8.8992   8.9526   9.0104   9.0252   9.0397   9.0536
     9.0927   9.1127   9.1177   9.1500   9.2012   9.2325   9.2940   9.3634
     9.3699   9.3901   9.4255   9.4544   9.4800   9.5082   9.5376   9.5738
     9.5921   9.6084   9.6488   9.6884   9.6997   9.7073   9.7339   9.7810
     9.9980  10.0804  10.1088

          k =-0.5000 0.0000 0.0000 (256496 PWs)   bands (ev):

   -15.6061 -15.5274 -15.2959 -15.1777 -15.1379 -15.1293 -14.1859 -14.0708
   -14.0466 -14.0392 -12.5124 -12.2924 -12.2723 -12.2642 -11.8358 -11.7131
   -11.5777 -11.4167 -11.3603 -11.3453 -11.0414 -10.7457 -10.6556 -10.3070
   -10.2087  -9.7028  -9.6919  -9.3338  -9.3211  -8.4972  -8.4810  -8.4715
    -8.4560  -7.0363  -6.9977  -6.9670  -6.9430  -6.9171  -6.8735  -5.8725
    -5.4698  -5.4645  -4.9689  -4.9493  -4.8621  -4.7152  -4.6632  -4.4920
    -4.4549  -4.4466  -4.4406  -4.3512  -4.3202  -4.3059  -4.2972  -4.2925
    -4.2635  -4.1937  -4.1354  -4.0750  -4.0357  -4.0133  -3.9474  -3.9165
    -3.8408  -3.7779  -3.6455  -3.6420  -3.6270  -3.5574  -3.4883  -3.3897
    -3.2023  -3.1838  -3.1799  -3.0801  -3.0765  -3.0676  -3.0601  -2.9770
    -2.9528  -2.9389  -2.9255  -2.8707  -2.8355  -2.6428  -2.4475  -2.4202
    -2.4117  -2.3727  -2.3451  -2.3231  -2.3059  -2.2888  -2.2548  -2.2295
    -2.0657  -2.0552  -2.0108  -1.9872  -1.9720  -1.9633  -1.9398  -1.6271
    -1.5887  -1.5656  -1.5386  -1.5258  -1.5251  -1.5222  -1.4670  -1.4621
    -1.4256  -1.3931  -1.3845  -1.3460  -1.3161  -1.3024  -1.2765  -1.2712
    -1.2562  -1.2485  -1.2388  -1.2262  -1.2134  -1.2046  -1.1695  -1.1403
    -1.1377  -1.1236  -1.1114  -1.0858  -1.0790  -1.0746  -1.0610  -1.0534
    -1.0474  -1.0443  -1.0424  -1.0201  -1.0144  -1.0096  -1.0046  -1.0014
    -0.9958  -0.9888  -0.9819  -0.9619  -0.9564  -0.9535  -0.9426  -0.9420
    -0.9306  -0.9274  -0.9182  -0.9129  -0.9014  -0.8810  -0.8574  -0.8482
    -0.8459  -0.8317  -0.8293  -0.8266  -0.8119  -0.8103  -0.8047  -0.8015
    -0.8007  -0.7930  -0.7762  -0.7619  -0.7588  -0.7562  -0.7537  -0.7344
    -0.7332  -0.7245  -0.7095  -0.7027  -0.6780  -0.6513  -0.6391  -0.6317
    -0.6307  -0.6261  -0.6207  -0.6182  -0.6099  -0.6088  -0.6021  -0.5993
    -0.5884  -0.5798  -0.5790  -0.5774  -0.5764  -0.5702  -0.5665  -0.5602
    -0.5245  -0.5187  -0.5173  -0.4955  -0.4934  -0.4489  -0.4275  -0.4026
    -0.3988  -0.3778  -0.3577  -0.3516  -0.3509  -0.3464  -0.3284  -0.3271
    -0.3210  -0.3143  -0.3047  -0.2909  -0.2875  -0.2836  -0.2809  -0.2703
    -0.2661  -0.2611  -0.2574  -0.2485  -0.2441  -0.2343  -0.2191  -0.2180
    -0.2004  -0.1574  -0.1516  -0.1327  -0.1259  -0.1194  -0.1010  -0.0989
    -0.0796  -0.0762  -0.0695  -0.0572  -0.0552  -0.0540  -0.0532  -0.0478
    -0.0346  -0.0287  -0.0173  -0.0168  -0.0167  -0.0150  -0.0001   0.0071
     0.0136   0.0253   0.0350   0.0480   0.0513   0.0552   0.0589   0.0647
     0.0801   0.0827   0.0961   0.0997   0.1031   0.1062   0.1153   0.1215
     0.1289   0.1315   0.1415   0.1471   0.1553   0.1742   0.2071   0.2146
     0.2157   0.2174   0.2189   0.2225   0.2279   0.2382   0.2412   0.2495
     0.2609   0.2678   0.2880   0.2982   0.3088   0.3218   0.3243   0.3247
     0.3257   0.3276   0.3279   0.3303   0.3310   0.3331   0.3373   0.3467
     0.3652   0.3744   0.3858   0.3920   0.4041   0.4078   0.4123   0.4168
     0.4173   0.4214   0.4222   0.4236   0.4262   0.4280   0.4338   0.4452
     0.4488   0.4502   0.4538   0.4543   0.4581   0.4626   0.4670   0.4675
     0.4679   0.4685   0.4701   0.4725   0.4736   0.4754   0.4846   0.4919
     0.4920   0.4973   0.5003   0.5021   0.5031   0.5134   0.5175   0.5302
     0.5412   0.5543   0.5942   0.6084   0.6259   0.6314   0.6334   0.6429
     0.6501   0.6642   0.6670   0.6696   0.6774   0.6795   0.6852   0.6862
     0.6877   0.6907   0.6938   0.6957   0.6998   0.7008   0.7028   0.7069
     0.7090   0.7096   0.7120   0.7156   0.7180   0.7213   0.7247   0.7300
     0.7382   0.7396   0.7416   0.7423   0.7506   0.7572   0.7809   0.7914
     0.7994   0.8095   0.8260   0.8404   0.8449   0.8489   0.8529   0.8564
     0.8602   0.8659   0.8677   0.8759   0.8776   0.8780   0.8787   0.8795
     0.8805   0.8834   0.8840   0.8876   0.8885   0.8983   0.9072   0.9164
     0.9191   0.9267   0.9273   0.9359   0.9400   0.9414   0.9451   0.9576
     0.9606   0.9621   0.9666   0.9749   0.9755   0.9781   0.9807   0.9859
     0.9879   0.9899   0.9926   0.9990   1.0059   1.0083   1.0137   1.0217
     1.0282   1.0374   1.0449   1.0524   1.0557   1.0581   1.0630   1.0657
     1.0665   1.0718   1.0788   1.0861   1.1031   1.1086   1.1119   1.1161
     1.1225   1.1370   1.1466   1.1612   1.1751   1.1844   1.1878   1.1898
     1.1909   1.1911   1.1932   1.1953   1.2005   1.2023   1.2071   1.2126
     1.2187   1.2239   1.2308   1.2337   1.2370   1.2378   1.2399   1.2462
     1.2472   1.2530   1.2551   1.2636   1.2668   1.2827   1.2882   1.2923
     1.3117   1.3164   1.3233   1.3431   1.3484   1.3547   1.3609   1.3656
     1.3680   1.3697   1.3812   1.3854   1.3961   1.3999   1.4056   1.4107
     1.4153   1.4157   1.4248   1.4286   1.4335   1.4430   1.4493   1.4546
     1.4612   1.4625   1.4642   1.4682   1.4693   1.4727   1.4753   1.4768
     1.4800   1.4831   1.4839   1.4850   1.4870   1.4956   1.5006   1.5149
     1.5272   1.5281   1.5303   1.5321   1.5366   1.5414   1.5457   1.5512
     1.5557   1.5594   1.5614   1.5652   1.5746   1.5767   1.5855   1.5879
     1.5899   1.5912   1.5949   1.5953   1.5963   1.6000   1.6086   1.6123
     1.6182   1.6215   1.6271   1.6374   1.6436   1.6504   1.6516   1.6547
     1.6615   1.6641   1.6665   1.6681   1.6691   1.6698   1.6708   1.6709
     1.6743   1.6772   1.6786   1.6803   1.6807   1.6829   1.6853   1.6871
     1.6917   1.6958   1.6960   1.6974   1.7032   1.7108   1.7127   1.7179
     1.7222   1.7265   1.7284   1.7379   1.7417   1.7592   1.7613   1.7623
     1.7654   1.7688   1.7717   1.7744   1.7809   1.7848   1.7878   1.7896
     1.7964   1.7989   1.8005   1.8059   1.8088   1.8112   1.8172   1.8189
     1.8202   1.8243   1.8263   1.8283   1.8377   1.8396   1.8582   1.8625
     1.8631   1.8641   1.8645   1.8651   1.8673   1.8793   1.9014   1.9125
     1.9182   1.9221   1.9432   1.9502   1.9548   1.9582   1.9598   1.9939
     2.2183   2.3690   2.4094   2.4192   2.5356   2.5617   2.5729   2.6107
     2.6236   2.6305   2.6623   2.6637   2.7558   2.9598   2.9844   3.0033
     3.1302   3.1649   3.1888   3.2076   3.3115   3.4813   3.5203   3.5307
     3.5395   3.6724   3.8101   3.8616   4.0726   4.0945   4.1112   4.2007
     4.2506   4.2652   4.2751   4.3237   4.3857   4.4010   4.4170   4.4442
     4.5206   4.6945   4.7516   4.8207   4.9396   5.0652   5.0797   5.0955
     5.1255   5.1463   5.1942   5.2053   5.2318   5.2534   5.3259   5.3552
     5.3658   5.3674   5.3838   5.3843   5.3975   5.4240   5.4631   5.4945
     5.5230   5.5824   5.6760   5.7915   5.8393   5.8655   5.8958   5.9968
     6.0570   6.0870   6.1863   6.2930   6.3034   6.3235   6.3304   6.3521
     6.3803   6.4321   6.5196   6.6377   6.7283   6.7499   6.7760   6.7892
     6.8186   6.8754   6.9587   7.3316   7.4029   7.4399   7.4614   7.5108
     7.5966   7.7199   7.8777   7.9071   7.9291   7.9314   7.9380   7.9462
     8.0626   8.0852   8.0900   8.1452   8.1491   8.1722   8.1918   8.2221
     8.2545   8.2888   8.3536   8.3649   8.3795   8.4163   8.4256   8.4425
     8.4591   8.5840   8.5906   8.5939   8.6954   8.7066   8.7819   9.1013
     9.1433   9.1517   9.1735   9.2025   9.2279   9.2307   9.2310   9.2572
     9.3248   9.3930   9.4189   9.4910   9.4942   9.5203   9.5728   9.5961
     9.6898   9.7013   9.7035   9.7839   9.8441   9.8556   9.8650   9.8986
     9.9741   9.9781   9.9832

          k =-0.5000-0.2165 0.0000 (256328 PWs)   bands (ev):

   -15.5553 -15.4610 -15.4546 -15.4101 -14.8198 -14.7080 -14.6821 -14.6779
   -13.3951 -13.2532 -13.2452 -13.2335 -11.9756 -11.6493 -11.6430 -11.6107
   -11.4439 -11.1871 -11.1815 -11.1694 -11.0759 -11.0303 -10.9972 -10.9836
   -10.6418  -9.3174  -9.3092  -9.2551  -9.2482  -8.3704  -8.3518  -8.3320
    -8.3111  -7.5901  -7.5740  -7.5628  -7.5596  -5.8840  -5.6235  -5.5188
    -5.5036  -5.4802  -4.9686  -4.9084  -4.8644  -4.8578  -4.8324  -4.8301
    -4.8230  -4.8073  -4.6793  -4.6592  -4.6509  -4.5307  -4.3401  -4.1752
    -3.9923  -3.9499  -3.8935  -3.8578  -3.8513  -3.8447  -3.8125  -3.7957
    -3.7688  -3.7575  -3.7301  -3.6702  -3.5248  -3.5204  -3.4892  -3.3125
    -3.2667  -3.2569  -3.2377  -3.2309  -3.2141  -3.1705  -3.1265  -3.0846
    -3.0839  -3.0170  -2.9770  -2.8705  -2.6914  -2.6719  -2.6371  -2.3181
    -2.2512  -2.2492  -2.2271  -2.2265  -2.1994  -2.1808  -2.1774  -2.0323
    -1.9277  -1.8847  -1.8722  -1.8692  -1.8319  -1.7939  -1.7596  -1.7473
    -1.7109  -1.6941  -1.6869  -1.6737  -1.6152  -1.5951  -1.5738  -1.5500
    -1.5159  -1.4774  -1.4590  -1.4527  -1.4497  -1.3583  -1.3526  -1.3278
    -1.2828  -1.2465  -1.2364  -1.1671  -1.1439  -1.1407  -1.1369  -1.1341
    -1.1303  -1.1196  -1.1115  -1.1039  -1.0892  -1.0838  -1.0835  -1.0823
    -1.0775  -1.0414  -1.0324  -1.0307  -1.0297  -1.0292  -1.0270  -1.0148
    -1.0072  -1.0059  -1.0055  -1.0006  -0.9993  -0.9606  -0.9561  -0.9548
    -0.9310  -0.8967  -0.8900  -0.8876  -0.8568  -0.8514  -0.8377  -0.8370
    -0.8326  -0.8318  -0.8195  -0.8128  -0.8026  -0.7975  -0.7828  -0.7756
    -0.7728  -0.7690  -0.7643  -0.7639  -0.7602  -0.7568  -0.7539  -0.7491
    -0.7288  -0.7104  -0.7044  -0.7035  -0.7021  -0.6959  -0.6878  -0.6876
    -0.6870  -0.6851  -0.6847  -0.6792  -0.6480  -0.6200  -0.6174  -0.6000
    -0.5935  -0.5512  -0.5339  -0.5329  -0.5159  -0.5063  -0.5042  -0.4910
    -0.4835  -0.4715  -0.4437  -0.4369  -0.4257  -0.4234  -0.4182  -0.4144
    -0.4132  -0.4109  -0.4047  -0.4011  -0.3916  -0.3623  -0.3584  -0.3480
    -0.3450  -0.3379  -0.3364  -0.3328  -0.3265  -0.3221  -0.3197  -0.3128
    -0.3117  -0.2843  -0.2603  -0.2230  -0.2212  -0.2185  -0.2161  -0.2053
    -0.1882  -0.1796  -0.1694  -0.1468  -0.1439  -0.1334  -0.1197  -0.1084
    -0.0996  -0.0931  -0.0901  -0.0838  -0.0793  -0.0751  -0.0667  -0.0506
    -0.0469  -0.0441  -0.0425  -0.0359  -0.0311  -0.0093   0.0017   0.0083
     0.0165   0.0313   0.0672   0.0774   0.0794   0.0850   0.0906   0.0913
     0.0964   0.1020   0.1071   0.1123   0.1136   0.1223   0.1468   0.1778
     0.1862   0.1904   0.1935   0.1954   0.1961   0.1990   0.2035   0.2061
     0.2063   0.2146   0.2323   0.2375   0.2392   0.2399   0.2427   0.2470
     0.2497   0.2507   0.2520   0.2530   0.2604   0.2621   0.2946   0.3194
     0.3230   0.3272   0.3356   0.3428   0.3506   0.3684   0.3724   0.3845
     0.3854   0.3987   0.4055   0.4068   0.4131   0.4168   0.4215   0.4250
     0.4270   0.4300   0.4324   0.4331   0.4368   0.4398   0.4418   0.4453
     0.4472   0.4508   0.4544   0.4575   0.4577   0.4581   0.4635   0.4700
     0.4715   0.4731   0.4834   0.4860   0.4894   0.4949   0.4967   0.5002
     0.5008   0.5048   0.5079   0.5131   0.5264   0.5482   0.5557   0.5606
     0.5620   0.5685   0.5826   0.5905   0.5922   0.6082   0.6363   0.6420
     0.6557   0.6645   0.6684   0.6710   0.6767   0.6792   0.6879   0.6895
     0.6965   0.6984   0.7026   0.7049   0.7064   0.7087   0.7129   0.7140
     0.7152   0.7165   0.7181   0.7221   0.7236   0.7257   0.7287   0.7324
     0.7469   0.7493   0.7530   0.7548   0.7634   0.7718   0.7879   0.7895
     0.7984   0.8001   0.8061   0.8087   0.8157   0.8164   0.8176   0.8224
     0.8464   0.8504   0.8552   0.8564   0.8572   0.8607   0.8667   0.8741
     0.8851   0.8902   0.8964   0.9022   0.9043   0.9056   0.9095   0.9172
     0.9175   0.9197   0.9212   0.9230   0.9240   0.9257   0.9273   0.9318
     0.9353   0.9415   0.9425   0.9482   0.9510   0.9776   0.9824   0.9854
     0.9889   1.0114   1.0263   1.0289   1.0309   1.0313   1.0328   1.0340
     1.0355   1.0411   1.0487   1.0516   1.0581   1.0588   1.0639   1.0658
     1.0716   1.0730   1.0777   1.0791   1.0794   1.0932   1.1070   1.1155
     1.1228   1.1316   1.1396   1.1461   1.1483   1.1549   1.1590   1.1608
[...]
     atom   59 type  1   force =     0.00002266   -0.00011533   -0.00010651
     atom   60 type  1   force =    -0.00003780   -0.00040802   -0.00014089
     atom   61 type  1   force =     0.00010424   -0.00103729   -0.00097264
     atom   62 type  1   force =     0.00032417   -0.00050769   -0.00015637
     atom   63 type  1   force =     0.00009202   -0.00071188   -0.00050701
     atom   64 type  1   force =    -0.00015098   -0.00127169   -0.00037338
     atom   65 type  1   force =     0.00027676    0.00142128    0.00021108
     atom   66 type  1   force =     0.00190260    0.00514123    0.00446409
     atom   67 type  1   force =     0.00003642   -0.00146517    0.00022381
     atom   68 type  1   force =    -0.00094471    0.00078338   -0.00036218
     atom   69 type  1   force =    -0.00048522   -0.00170569   -0.00173168
     atom   70 type  1   force =     0.00069840   -0.00002191   -0.00161813
     atom   71 type  1   force =     0.00162423   -0.00282279    0.00455512
     atom   72 type  1   force =    -0.00203687    0.00150890    0.00210979
     atom   73 type  1   force =     0.00078871    0.00139242    0.00054533
     atom   74 type  1   force =     0.00459964   -0.00037143   -0.00125443
     atom   75 type  1   force =     0.00086824   -0.00093337   -0.00040182
     atom   76 type  1   force =    -0.00080662   -0.00107820   -0.00152299
     atom   77 type  1   force =     0.00015355   -0.00013219    0.00017330
     atom   78 type  1   force =     0.00066117    0.00062144   -0.00004939
     atom   79 type  1   force =     0.00008586   -0.00019159   -0.00002831
     atom   80 type  1   force =    -0.00009511    0.00017306    0.00032421
     atom   81 type  1   force =     0.00030519   -0.00019345    0.00042213
     atom   82 type  1   force =     0.00135349   -0.00001017   -0.00020630
     atom   83 type  1   force =    -0.00037590   -0.00097151    0.00027262
     atom   84 type  1   force =    -0.00210007   -0.00123712    0.00019266
     atom   85 type  1   force =     0.00192634    0.00437383   -0.00089818
     atom   86 type  1   force =    -0.00143414   -0.00318143   -0.00089366
     atom   87 type  1   force =    -0.00135631    0.00074597   -0.00221138
     atom   88 type  1   force =    -0.00129347    0.00190676   -0.00113560
     atom   89 type  1   force =     0.00259501   -0.00048271   -0.00292353
     atom   90 type  1   force =    -0.00142137    0.00062202   -0.00312390
     atom   91 type  1   force =     0.00032324    0.00030985    0.01687016
     atom   92 type  1   force =    -0.00168961   -0.00109511   -0.00032707
     atom   93 type  1   force =     0.00380912    0.00081518    0.00145808
     atom   94 type  1   force =     0.00307885    0.00297188    0.00091413
     atom   95 type  1   force =    -0.00009859   -0.00229112   -0.00211250
     atom   96 type  1   force =     0.00091679   -0.00068104    0.00057235
     atom   97 type  1   force =     0.00029124    0.00061315    0.00069419
     atom   98 type  1   force =     0.00033596   -0.00026804    0.00005517
     atom   99 type  1   force =     0.00122158    0.00006251   -0.00024426
     atom  100 type  1   force =     0.00016897   -0.00002272    0.00001718
     atom  101 type  2   force =    -0.00014070   -0.00271868    0.00224412
     atom  102 type  2   force =     0.00319346    0.00117352    0.00563734
     atom  103 type  2   force =    -0.00014248    0.00089179   -0.00083548
     atom  104 type  2   force =    -0.00256516   -0.00146401    0.00171954
     atom  105 type  2   force =    -0.00188870   -0.00255867   -0.00015141
     atom  106 type  2   force =    -0.00062374    0.00136569    0.00309999
     atom  107 type  2   force =    -0.00074943    0.00036021   -0.00023441
     atom  108 type  2   force =     0.00107961    0.00191578    0.00213635
     atom  109 type  2   force =     0.00138569    0.00060812    0.00068096
     atom  110 type  2   force =    -0.00067768   -0.00049298    0.00042792
     atom  111 type  2   force =    -0.00251707   -0.00182614   -0.00060094
     atom  112 type  2   force =    -0.00237672    0.00172899    0.00444978
     atom  113 type  2   force =    -0.00544100    0.00253354    0.00494188
     atom  114 type  2   force =     0.00671342   -0.00126256    0.00064473
     atom  115 type  2   force =     0.00325036   -0.00407701    0.00219141
     atom  116 type  2   force =    -0.00339626   -0.00035309    0.00486262
     atom  117 type  2   force =     0.00155959   -0.00053577    0.00366376
     atom  118 type  2   force =     0.00062564   -0.00157474    0.00295889
     atom  119 type  2   force =    -0.00004234   -0.00194628   -0.00049011
     atom  120 type  2   force =     0.00063917    0.00029576    0.01768560
     atom  121 type  2   force =    -0.00990519    0.00315127   -0.03194440
     atom  122 type  3   force =    -0.00346648   -0.01027253   -0.00298869
     atom  123 type  3   force =    -0.00273907    0.00920444   -0.00962512
     atom  124 type  2   force =    -0.00495626    0.00277682   -0.00079997
     atom  125 type  2   force =     0.00347226   -0.00008430    0.01035736
     atom  126 type  2   force =     0.00687091   -0.00397180    0.00446575
     atom  127 type  2   force =    -0.00688214   -0.00037820   -0.00083130
     atom  128 type  2   force =    -0.00570363    0.00003924    0.00287647
     atom  129 type  2   force =     0.00359357    0.00012286    0.00203045
     atom  130 type  2   force =     0.00586494    0.00126466   -0.00103044
     atom  131 type  2   force =     0.00076514    0.00201803    0.00156381
     atom  132 type  2   force =     0.00192362   -0.00322188   -0.00253298
     atom  133 type  2   force =    -0.00256453   -0.00017461    0.00041290
     atom  134 type  2   force =    -0.00197503   -0.00005120    0.00318969
     atom  135 type  2   force =     0.00139220   -0.00000431    0.00078039
     atom  136 type  2   force =    -0.00074965   -0.00001585   -0.00146728
     atom  137 type  2   force =     0.00095884    0.00134720   -0.00159624
     atom  138 type  2   force =     0.00502360    0.00195022    0.00293080
     atom  139 type  2   force =    -0.00455374   -0.00029369    0.00330527
     atom  140 type  2   force =     0.00107705    0.00293216   -0.00002478
     atom  141 type  2   force =    -0.00317097   -0.00132376   -0.00286017
     atom  142 type  2   force =    -0.00226544   -0.00162708    0.00190306
     atom  143 type  2   force =     0.00016582    0.00063115   -0.00186394
     atom  144 type  2   force =    -0.00063509    0.00127024    0.00025679
     atom  145 type  2   force =     0.00055111   -0.00094093   -0.00136117
     atom  146 type  2   force =     0.00052288    0.00152629   -0.00085798
     atom  147 type  2   force =    -0.00242786    0.00088235   -0.00164256
     atom  148 type  2   force =    -0.00187085   -0.00042730   -0.00068946
     atom  149 type  2   force =    -0.00148929   -0.00079193   -0.00162706
     atom  150 type  2   force =    -0.00022953    0.00182640    0.00213686
     atom  151 type  2   force =     0.00165667    0.00081914   -0.00296073

     Total force =     0.059322     Total SCF correction =     0.000320

     number of scf cycles    =  11
     number of bfgs steps    =  10

     energy   old            =  -12712.4032255215 Ry
     energy   new            =  -12712.4082401351 Ry

     CASE: energy  _new < energy  _old

     new trust radius        =       0.1568706876 bohr
     new conv_thr            =       0.0000000100 Ry


ATOMIC_POSITIONS (angstrom)
Cu      -0.000203656   0.000004048   7.362093171
Cu       1.844130392   1.700975269   7.357419750
Cu       3.688787523  -0.003277018   7.358643302
Cu       5.533543884   1.700423174   7.357012881
Cu       0.000201271   3.404366573   7.354960130
Cu       1.846059641   5.111224120   7.358469907
Cu       3.688819284   3.407395252   7.359671130
Cu       5.532672610   5.111826399   7.359146713
Cu      -0.000130387   6.814420607   7.357419630
Cu       1.846764439   8.518046582   7.358013767
Cu       3.689422924   6.814803802   7.361386654
Cu       5.531961765   8.517217840   7.359330887
Cu       0.000138574  10.225377901   7.353697287
Cu       1.843424589  11.928791308   7.357285968
Cu       3.688852528  10.221523323   7.361250391
Cu       5.534229668  11.930119708   7.356190850
Cu       0.000100287  13.629495514   7.363579341
Cu       1.843364804  15.334474343   7.362322728
Cu       3.688451600  13.636381892   7.355486843
Cu       5.534231044  15.334385866   7.361230313
Cu      -0.000164433   1.698542212   9.189308865
Cu       1.842907409  -0.004825825   9.189741303
Cu       3.689126698   1.688605036   9.176301440
Cu       5.534731379  -0.003608468   9.191017152
Cu       0.002624184   5.101544264   9.173183290
Cu       1.842652049   3.397360447   9.178412171
Cu       3.689916813   5.108638471   9.187063451
Cu       5.536699741   3.391928595   9.171670078
Cu       0.002628692   8.528928967   9.167068992
Cu       1.851891830   6.813719345   9.180831758
Cu       3.689938582   8.517879698   9.191135987
Cu       5.533573744   6.813558580   9.189321393
Cu       0.000939606  11.927847858   9.194281181
Cu       1.837277467  10.234090112   9.173135220
Cu       3.688090558  11.962117776   9.154347053
Cu       5.541948738  10.239557490   9.166759398
Cu      -0.000039984  15.334103514   9.193719803
Cu       1.841120844  13.631878539   9.195186021
Cu       3.688558975  15.333445613   9.191270187
Cu       5.536438029  13.633142482   9.193146690
Cu      -0.000527654  -0.008201069  11.032287911
Cu       1.840860696   1.675478088  11.009156483
Cu       3.689847102  -0.008516979  11.027741870
Cu       5.539087034   1.686649515  11.021365943
Cu       0.002252703   3.386235967  11.013696632
Cu       1.851675500   5.090926041  11.004591429
Cu       3.692275822   3.373451781  10.992522639
Cu       5.542868877   5.071399555  10.983903299
Cu       0.041593036   6.818736601  10.975024934
Cu       1.829401227   8.546586982  10.992347927
Cu       3.695705555   6.807856680  11.021625391
Cu       5.564570413   8.564408348  10.973484730
Cu       0.007623679  10.232206805  11.035370017
Cu       1.829987656  11.934342309  11.038657452
Cu       3.688780441  10.319290024  10.921559245
Cu       5.549802721  11.939766356  11.031024248
Cu       0.000529693  13.633933081  11.035018229
Cu       1.844246414  15.334339059  11.035184414
Cu       3.688554430  13.633781577  11.031283695
Cu       5.533614467  15.333590360  11.034336411
Cu      -0.002558409   1.681250427  12.859936743
Cu       1.846458333  -0.004955112  12.874889311
Cu       3.697318723   1.680807888  12.858278102
Cu       5.534059717  -0.008681374  12.871593656
Cu       0.029116790   5.073314928  12.824886363
Cu       1.857000995   3.349772023  12.814074229
Cu       3.700248911   5.085178635  12.836533441
Cu       5.535596123   3.372698553  12.836527579
Cu       0.062858211   8.534073387  12.898630141
Cu       1.867135749   6.820562994  12.836022867
Cu       3.694728663   8.657883247  12.661710088
Cu       5.647142101   6.830018566  12.710535683
Cu       0.006548478  11.937602365  12.879362860
Cu       1.833424878  10.234607014  12.900036414
Cu       3.693431642  11.927158397  12.856658968
Cu       5.577929001  10.241595111  12.864590550
Cu       0.001088777  15.332587904  12.876475267
Cu       1.845296935  13.633013904  12.873200552
Cu       3.689491470  15.334672603  12.876968768
Cu       5.536203686  13.631212192  12.874332699
Cu       0.004328723   0.000514618  14.685164145
Cu       1.857243351   1.696600095  14.691555166
Cu       3.688361108  -0.002592877  14.700223494
Cu       5.522646693   1.680480179  14.685822508
Cu      -0.017275068   3.320129187  14.710039291
Cu       1.764864261   5.026455147  14.596628107
Cu       3.700727276   3.376778071  14.675936224
Cu       5.589160352   5.065813494  14.600272780
Cu      -0.051277946   6.805908077  14.669938275
Cu       1.960437169   8.460028773  14.733550757
Cu       3.960084621   7.029384412  14.323610818
Cu       5.666781943   8.648038651  14.735194084
Cu       0.106096522  10.248633165  14.740345139
Cu       1.860330301  11.948893865  14.695606935
Cu       3.712881477  10.249515907  14.671390340
Cu       5.563003290  11.923381605  14.690908190
Cu       0.003652065  13.634221414  14.699282522
Cu       1.848770302  15.330918216  14.690984623
Cu       3.698522470  13.621643572  14.683853630
Cu       5.534056854  15.333596687  14.689543187
C       -0.016253989   0.725951359  17.564926416
C       -0.019256942   2.144095806  17.617598624
C        1.212091192   0.012493297  17.586464796
C        1.207216888   2.851383979  17.716117183
C        2.440740277   0.725120635  17.587142851
C        2.436725997   2.141560705  17.647829396
C        3.671827321   0.010750116  17.572613759
C        3.666990958   2.856352195  17.683391795
C        4.902925405   0.726608179  17.565826806
C        4.899270129   2.144548752  17.600690169
C        6.131318534   0.013245704  17.568344815
C        6.130645282   2.852446474  17.649878794
C       -0.024813240   4.972687708  17.890473331
C       -0.032214487   6.390494079  17.960426429
C        1.202940569   4.258212032  17.893073748
C        1.194100390   7.104730807  18.043853331
C        2.427071358   4.962900088  18.022098511
C        2.407430820   6.378984593  18.078799889
C        3.663650182   4.262820474  17.842675850
C        3.623149724   7.079479124  17.527439228
C        3.210277455   6.735713160  16.054268249
H        3.560735910   5.703980345  15.863397950
H        2.099186591   6.630433778  16.009047539
C        4.901798617   4.974469172  17.808458660
C        4.916347078   6.382265125  17.779083387
C        6.131165046   4.263958810  17.773063278
C        6.119696460   7.096791594  17.811933353
C       -0.026985474   9.225367589  17.698205838
C       -0.022740857  10.646378747  17.589946728
C        1.200751013   8.520899544  17.829742211
C        1.205598481  11.362987738  17.611870854
C        2.432775622   9.243460695  17.754740464
C        2.434512199  10.661646022  17.682608423
C        3.656912074   8.552477419  17.714976542
C        3.666444700  11.365343039  17.646736109
C        4.884537292   9.238590296  17.666384282
C        4.894365278  10.658103749  17.642195363
C        6.121104849   8.520605705  17.702589926
C        6.126150940  11.360407446  17.578287124
C       -0.017347200  13.492617917  17.559448396
C       -0.017066097  14.918492817  17.590205185
C        1.211337812  12.785034454  17.584871290
C        1.213467825  15.629505492  17.595353416
C        2.442079997  13.492208626  17.616866471
C        2.443938739  14.918505170  17.608591001
C        3.670845388  12.787703029  17.623624668
C        3.673564957  15.628025946  17.604411436
C        4.901282040  13.491191141  17.607156463
C        4.902864330  14.918168588  17.604477822
C        6.128798798  12.783803279  17.566335282
C        6.134212050  15.630407809  17.587745528



     Writing output data file gc.save
     Check: negative starting charge=   -0.001836
     NEW-OLD atomic charge density approx. for the potential
     Check: negative starting charge=   -0.001830

     negative rho (up, down):  1.854E-03 0.000E+00

     total cpu time spent up to now is    46553.1 secs

     Self-consistent Calculation

     iteration #  1     ecut=    80.00 Ry     beta=0.70
     Davidson diagonalization with overlap
     c_bands:  1 eigenvalues not converged
     ethr =  1.00E-06,  avg # of iterations = 11.0

     negative rho (up, down):  3.582E-03 0.000E+00

     total cpu time spent up to now is    47173.8 secs

     total energy              =  -12712.40903455 Ry
     Harris-Foulkes estimate   =  -12712.42640429 Ry
     estimated scf accuracy    <       0.18844658 Ry

     iteration #  2     ecut=    80.00 Ry     beta=0.70
     Davidson diagonalization with overlap
     ethr =  1.45E-05,  avg # of iterations =  1.3

     negative rho (up, down):  4.981E-03 0.000E+00

     total cpu time spent up to now is    47355.4 secs

     total energy              =  -12712.40964050 Ry
     Harris-Foulkes estimate   =  -12712.41802668 Ry
     estimated scf accuracy    <       0.03272353 Ry

     iteration #  3     ecut=    80.00 Ry     beta=0.70
     Davidson diagonalization with overlap
     ethr =  2.52E-06,  avg # of iterations =  6.7

     negative rho (up, down):  7.765E-03 0.000E+00

     total cpu time spent up to now is    47611.9 secs

     total energy              =  -12712.41155832 Ry
     Harris-Foulkes estimate   =  -12712.41556901 Ry
     estimated scf accuracy    <       0.04778621 Ry

     iteration #  4     ecut=    80.00 Ry     beta=0.70
     Davidson diagonalization with overlap
     ethr =  2.52E-06,  avg # of iterations =  3.3

     negative rho (up, down):  8.183E-03 0.000E+00

     total cpu time spent up to now is    47817.6 secs

     total energy              =  -12712.41339092 Ry
     Harris-Foulkes estimate   =  -12712.41350048 Ry
     estimated scf accuracy    <       0.00170254 Ry

     iteration #  5     ecut=    80.00 Ry     beta=0.70
     Davidson diagonalization with overlap
     ethr =  1.31E-07,  avg # of iterations =  3.2

     negative rho (up, down):  7.926E-03 0.000E+00

     total cpu time spent up to now is    48022.3 secs

     total energy              =  -12712.41337414 Ry
     Harris-Foulkes estimate   =  -12712.41349221 Ry
     estimated scf accuracy    <       0.00114402 Ry

     iteration #  6     ecut=    80.00 Ry     beta=0.70
     Davidson diagonalization with overlap
     ethr =  8.81E-08,  avg # of iterations =  2.2

     negative rho (up, down):  6.293E-03 0.000E+00

     total cpu time spent up to now is    48207.2 secs

     total energy              =  -12712.41336891 Ry
     Harris-Foulkes estimate   =  -12712.41342323 Ry
     estimated scf accuracy    <       0.00026794 Ry

     iteration #  7     ecut=    80.00 Ry     beta=0.70
     Davidson diagonalization with overlap
     ethr =  2.06E-08,  avg # of iterations =  3.2

     negative rho (up, down):  4.889E-03 0.000E+00

     total cpu time spent up to now is    48404.6 secs

     total energy              =  -12712.41335806 Ry
     Harris-Foulkes estimate   =  -12712.41338636 Ry
     estimated scf accuracy    <       0.00007250 Ry

     iteration #  8     ecut=    80.00 Ry     beta=0.70
     Davidson diagonalization with overlap
     ethr =  5.59E-09,  avg # of iterations =  5.8

     negative rho (up, down):  3.240E-03 0.000E+00

     total cpu time spent up to now is    48635.9 secs

     total energy              =  -12712.41334622 Ry
     Harris-Foulkes estimate   =  -12712.41336349 Ry
     estimated scf accuracy    <       0.00001844 Ry

     iteration #  9     ecut=    80.00 Ry     beta=0.70
     Davidson diagonalization with overlap
     ethr =  1.42E-09,  avg # of iterations =  8.8

     negative rho (up, down):  2.568E-03 0.000E+00

     total cpu time spent up to now is    48909.2 secs

     total energy              =  -12712.41334490 Ry
     Harris-Foulkes estimate   =  -12712.41334813 Ry
     estimated scf accuracy    <       0.00000665 Ry

     iteration # 10     ecut=    80.00 Ry     beta=0.70
     Davidson diagonalization with overlap
     ethr =  5.12E-10,  avg # of iterations =  2.0

     negative rho (up, down):  2.310E-03 0.000E+00

     total cpu time spent up to now is    49092.9 secs

     total energy              =  -12712.41334507 Ry
     Harris-Foulkes estimate   =  -12712.41334552 Ry
     estimated scf accuracy    <       0.00000209 Ry

     iteration # 11     ecut=    80.00 Ry     beta=0.70
     Davidson diagonalization with overlap
     ethr =  1.61E-10,  avg # of iterations =  2.0

     negative rho (up, down):  2.019E-03 0.000E+00

     total cpu time spent up to now is    49283.5 secs

     total energy              =  -12712.41334543 Ry
     Harris-Foulkes estimate   =  -12712.41334530 Ry
     estimated scf accuracy    <       0.00000125 Ry

     iteration # 12     ecut=    80.00 Ry     beta=0.70
     Davidson diagonalization with overlap
