
     Program PWSCF v.5.4.0 starts on 14Mar2017 at 21:57:32 

     This program is part of the open-source Quantum ESPRESSO suite
     for quantum simulation of materials; please cite
         "P. Giannozzi et al., J. Phys.:Condens. Matter 21 395502 (2009);
          URL http://www.quantum-espresso.org", 
     in publications or presentations arising from this work. More details at
     http://www.quantum-espresso.org/quote

     Parallel version (MPI & OpenMP), running on      56 processor cores
     Number of MPI processes:                56
     Threads/MPI process:                     1
     R & G space division:  proc/nbgrp/npool/nimage =      56
     Waiting for input...
     Reading input from standard input

     Current dimensions of program PWSCF are:
     Max number of different atomic species (ntypx) = 10
     Max number of k-points (npk) =  40000
     Max angular momentum in pseudopotentials (lmaxx) =  3

     -------------------------------------
     Parameters for Dispersion Correction:
     -------------------------------------
       atom      VdW radius       C_6     

        Cu         2.952        374.666
        C          2.744         60.710
        H          1.892          4.857

     Subspace diagonalization in iterative solution of the eigenvalue problem:
     one sub-group per band group will be used
     scalapack distributed-memory algorithm (size of sub-group:  5*  5 procs)

 
     Parallelization info
     --------------------
     sticks:   dense  smooth     PW     G-vecs:    dense   smooth      PW
     Min         204     204     54                36612    36612    4962
     Max         205     205     55                36617    36617    4968
     Sum       11433   11433   3039              2050409  2050409  278033
 


     bravais-lattice index     =            0
     lattice parameter (alat)  =      13.9425  a.u.
     unit-cell volume          =   21209.0878 (a.u.)^3
     number of atoms/cell      =          151
     number of atomic types    =            3
     number of electrons       =      1298.00
     number of Kohn-Sham states=          779
     kinetic-energy cutoff     =      80.0000  Ry
     charge density cutoff     =     320.0000  Ry
     convergence threshold     =      1.0E-08
     mixing beta               =       0.7000
     number of iterations used =            8  local-TF  mixing
     Exchange-correlation      =  SLA  PW   PBE  PBE ( 1  4  3  4 0 0)
     nstep                     =           50


     celldm(1)=  13.942539  celldm(2)=   0.000000  celldm(3)=   0.000000
     celldm(4)=   0.000000  celldm(5)=   0.000000  celldm(6)=   0.000000

     crystal axes: (cart. coord. in units of alat)
               a(1) = (   1.000000   0.000000   0.000000 )  
               a(2) = (   0.000000   2.309401   0.000000 )  
               a(3) = (   0.000000   0.000000   3.388418 )  

     reciprocal axes: (cart. coord. in units 2 pi/alat)
               b(1) = (  1.000000  0.000000  0.000000 )  
               b(2) = (  0.000000  0.433013  0.000000 )  
               b(3) = (  0.000000  0.000000  0.295123 )  


     PseudoPot. # 1 for Cu read from file:
     /home/549/hxw549/Short/pseudopotentials/Cu.pbe-n-van_ak.UPF
     MD5 check sum: 601f7c30f7467666bec936e0661ce3e1
     Pseudo is Ultrasoft + core correction, Zval = 11.0
     Generated by new atomic code, or converted to UPF format
     Using radial grid of  867 points,  6 beta functions with: 
                l(1) =   0
                l(2) =   0
                l(3) =   1
                l(4) =   1
                l(5) =   2
                l(6) =   2
     Q(r) pseudized with  8 coefficients,  rinner =    1.400   1.400   1.400
                                                       1.400   1.400

     PseudoPot. # 2 for C  read from file:
     /home/549/hxw549/Short/pseudopotentials/C.pbe-mt_gipaw.UPF
     MD5 check sum: 5ac2f21f2c440b14befe521540822c15
     Pseudo is Norm-conserving, Zval =  4.0
     Generated by new atomic code, or converted to UPF format
     Using radial grid of 1073 points,  1 beta functions with: 
                l(1) =   0

     PseudoPot. # 3 for H  read from file:
     /home/549/hxw549/Short/pseudopotentials/H.pbe-van_ak.UPF
     MD5 check sum: 077eb6d537518a38cb46c6de387227b7
     Pseudo is Ultrasoft, Zval =  1.0
     Generated by new atomic code, or converted to UPF format
     Using radial grid of  615 points,  1 beta functions with: 
                l(1) =   0
     Q(r) pseudized with  8 coefficients,  rinner =    0.800

     atomic species   valence    mass     pseudopotential
        Cu            11.00    63.54600     Cu( 1.00)
        C              4.00    12.01070     C ( 1.00)
        H              1.00     1.00783     H ( 1.00)

     No symmetry found



   Cartesian axes

     site n.     atom                  positions (alat units)
         1           Cu  tau(   1) = (  -0.0000061   0.0000859   0.9974453  )
         2           Cu  tau(   2) = (   0.2499834   0.2309435   0.9974857  )
         3           Cu  tau(   3) = (   0.4999820   0.0000292   0.9973921  )
         4           Cu  tau(   4) = (   0.7499943   0.2309608   0.9975192  )
         5           Cu  tau(   5) = (  -0.0000148   0.4618129   0.9975194  )
         6           Cu  tau(   6) = (   0.2499854   0.6927730   0.9973716  )
         7           Cu  tau(   7) = (   0.4999975   0.4618632   0.9975075  )
         8           Cu  tau(   8) = (   0.7500019   0.6927697   0.9973799  )
         9           Cu  tau(   9) = (  -0.0000106   0.9237787   0.9972545  )
        10           Cu  tau(  10) = (   0.2500158   1.1547493   0.9973328  )
        11           Cu  tau(  11) = (   0.4999952   0.9237374   0.9972820  )
        12           Cu  tau(  12) = (   0.7499663   1.1547437   0.9973571  )
        13           Cu  tau(  13) = (  -0.0000104   1.3856717   0.9974709  )
        14           Cu  tau(  14) = (   0.2499853   1.6165564   0.9975482  )
        15           Cu  tau(  15) = (   0.4999900   1.3856800   0.9975628  )
        16           Cu  tau(  16) = (   0.7499916   1.6165628   0.9975545  )
        17           Cu  tau(  17) = (  -0.0000073   1.8474464   0.9974902  )
        18           Cu  tau(  18) = (   0.2499750   2.0784722   0.9974066  )
        19           Cu  tau(  19) = (   0.4999832   1.8474812   0.9974253  )
        20           Cu  tau(  20) = (   0.7500006   2.0784589   0.9973454  )
        21           Cu  tau(  21) = (   0.0000109   0.2310340   1.2461899  )
        22           Cu  tau(  22) = (   0.2499611   0.0001434   1.2460132  )
        23           Cu  tau(  23) = (   0.4999655   0.2309886   1.2459791  )
        24           Cu  tau(  24) = (   0.7500092   0.0000164   1.2458673  )
        25           Cu  tau(  25) = (   0.0000112   0.6929613   1.2458008  )
        26           Cu  tau(  26) = (   0.2499727   0.4619415   1.2459274  )
        27           Cu  tau(  27) = (   0.5000148   0.6929143   1.2458515  )
        28           Cu  tau(  28) = (   0.7500244   0.4619772   1.2460084  )
        29           Cu  tau(  29) = (   0.0000256   1.1545435   1.2458302  )
        30           Cu  tau(  30) = (   0.2500054   0.9237705   1.2457457  )
        31           Cu  tau(  31) = (   0.4999823   1.1544964   1.2459093  )
        32           Cu  tau(  32) = (   0.7500144   0.9237499   1.2457813  )
        33           Cu  tau(  33) = (   0.0000043   1.6164167   1.2460943  )
        34           Cu  tau(  34) = (   0.2499800   1.3854236   1.2460378  )
        35           Cu  tau(  35) = (   0.4999700   1.6165683   1.2460311  )
        36           Cu  tau(  36) = (   0.7500068   1.3854772   1.2459916  )
        37           Cu  tau(  37) = (   0.0000062   2.0785055   1.2457744  )
        38           Cu  tau(  38) = (   0.2499628   1.8474789   1.2459507  )
        39           Cu  tau(  39) = (   0.4999638   2.0784842   1.2457312  )
        40           Cu  tau(  40) = (   0.7500076   1.8475446   1.2458854  )
        41           Cu  tau(  41) = (   0.0000421  -0.0000984   1.4956486  )
        42           Cu  tau(  42) = (   0.2499623   0.2315383   1.4961046  )
        43           Cu  tau(  43) = (   0.4999233  -0.0000235   1.4954027  )
        44           Cu  tau(  44) = (   0.7500237   0.2310909   1.4955939  )
        45           Cu  tau(  45) = (   0.0001374   0.4625534   1.4958692  )
        46           Cu  tau(  46) = (   0.2500592   0.6931357   1.4956891  )
        47           Cu  tau(  47) = (   0.4999375   0.4622726   1.4956622  )
        48           Cu  tau(  48) = (   0.7501621   0.6931585   1.4957151  )
        49           Cu  tau(  49) = (   0.0001828   0.9236847   1.4959747  )
        50           Cu  tau(  50) = (   0.2499626   1.1539495   1.4960842  )
        51           Cu  tau(  51) = (   0.5000381   0.9235334   1.4959102  )
        52           Cu  tau(  52) = (   0.7502011   1.1541901   1.4957430  )
        53           Cu  tau(  53) = (   0.0000953   1.3849016   1.4959015  )
        54           Cu  tau(  54) = (   0.2498984   1.6162198   1.4957240  )
        55           Cu  tau(  55) = (   0.4999417   1.3851159   1.4955146  )
        56           Cu  tau(  56) = (   0.7500739   1.6163865   1.4955053  )
        57           Cu  tau(  57) = (   0.0000045   1.8475864   1.4954591  )
        58           Cu  tau(  58) = (   0.2499675   2.0785101   1.4955159  )
        59           Cu  tau(  59) = (   0.4999572   1.8477277   1.4954640  )
        60           Cu  tau(  60) = (   0.7499945   2.0785278   1.4955203  )
        61           Cu  tau(  61) = (   0.0002526   0.2313820   1.7443139  )
        62           Cu  tau(  62) = (   0.2500737  -0.0001503   1.7450533  )
        63           Cu  tau(  63) = (   0.4998469   0.2308748   1.7445869  )
        64           Cu  tau(  64) = (   0.7499076  -0.0000485   1.7449958  )
        65           Cu  tau(  65) = (   0.0007880   0.6933814   1.7462931  )
        66           Cu  tau(  66) = (   0.2505091   0.4637436   1.7464953  )
        67           Cu  tau(  67) = (   0.5001093   0.6932142   1.7459778  )
        68           Cu  tau(  68) = (   0.7499111   0.4624311   1.7447734  )
        69           Cu  tau(  69) = (   0.0006026   1.1535406   1.7467850  )
        70           Cu  tau(  70) = (   0.2504681   0.9227611   1.7472317  )
        71           Cu  tau(  71) = (   0.5001426   1.1538995   1.7452058  )
        72           Cu  tau(  72) = (   0.7505891   0.9235710   1.7460410  )
        73           Cu  tau(  73) = (   0.0000939   1.6164061   1.7446895  )
        74           Cu  tau(  74) = (   0.2497645   1.3844234   1.7455021  )
        75           Cu  tau(  75) = (   0.4999242   1.6163742   1.7438986  )
        76           Cu  tau(  76) = (   0.7504900   1.3848341   1.7447937  )
        77           Cu  tau(  77) = (  -0.0000473   2.0782602   1.7454104  )
        78           Cu  tau(  78) = (   0.2498110   1.8476558   1.7448167  )
        79           Cu  tau(  79) = (   0.5000051   2.0786793   1.7453087  )
        80           Cu  tau(  80) = (   0.7501459   1.8475994   1.7447935  )
        81           Cu  tau(  81) = (   0.0000976   0.0007723   1.9906318  )
        82           Cu  tau(  82) = (   0.2501989   0.2313265   1.9903681  )
        83           Cu  tau(  83) = (   0.4999932   0.0000684   1.9922485  )
        84           Cu  tau(  84) = (   0.7502428   0.2309055   1.9904384  )
        85           Cu  tau(  85) = (   0.0001321   0.4622343   1.9898579  )
        86           Cu  tau(  86) = (   0.2538981   0.6929866   1.9986273  )
        87           Cu  tau(  87) = (   0.5010490   0.4602715   1.9915572  )
        88           Cu  tau(  88) = (   0.7488732   0.6926230   1.9918521  )
        89           Cu  tau(  89) = (   0.0018147   0.9218361   1.9937327  )
        90           Cu  tau(  90) = (   0.2511742   1.1538759   1.9943600  )
        91           Cu  tau(  91) = (   0.5011685   0.9247265   1.9937814  )
        92           Cu  tau(  92) = (   0.7507104   1.1545977   1.9924256  )
        93           Cu  tau(  93) = (   0.0005167   1.3857501   1.9918262  )
        94           Cu  tau(  94) = (   0.2497976   1.6164030   1.9902238  )
        95           Cu  tau(  95) = (   0.5002128   1.3859419   1.9895526  )
        96           Cu  tau(  96) = (   0.7503957   1.6162378   1.9900106  )
        97           Cu  tau(  97) = (  -0.0000512   1.8469837   1.9922161  )
        98           Cu  tau(  98) = (   0.2497710   2.0782644   1.9915109  )
        99           Cu  tau(  99) = (   0.5000489   1.8467959   1.9902846  )
       100           Cu  tau( 100) = (   0.7502177   2.0783528   1.9915112  )
       101           C   tau( 101) = (  -0.0003414   0.0959260   2.3891635  )
       102           C   tau( 102) = (  -0.0005311   0.2880372   2.3873265  )
       103           C   tau( 103) = (   0.1664900   0.0000150   2.3880789  )
       104           C   tau( 104) = (   0.1658950   0.3836141   2.3825874  )
       105           C   tau( 105) = (   0.3329823   0.0959316   2.3848192  )
       106           C   tau( 106) = (   0.3328908   0.2882354   2.3817515  )
       107           C   tau( 107) = (   0.4998429  -0.0001390   2.3848829  )
       108           C   tau( 108) = (   0.4998623   0.3845275   2.3796837  )
       109           C   tau( 109) = (   0.6666737   0.0961327   2.3861504  )
       110           C   tau( 110) = (   0.6667355   0.2883844   2.3828119  )
       111           C   tau( 111) = (   0.8331060  -0.0000590   2.3889444  )
       112           C   tau( 112) = (   0.8332675   0.3844924   2.3841002  )
       113           C   tau( 113) = (  -0.0008062   0.6731012   2.3809860  )
       114           C   tau( 114) = (  -0.0004346   0.8662185   2.3749002  )
       115           C   tau( 115) = (   0.1659344   0.5759929   2.3802930  )
       116           C   tau( 116) = (   0.1629216   0.9639019   2.3836376  )
       117           C   tau( 117) = (   0.3320481   0.6697401   2.3818828  )
       118           C   tau( 118) = (   0.3296302   0.8640589   2.3783193  )
       119           C   tau( 119) = (   0.4992644   0.5768075   2.3815121  )
       120           C   tau( 120) = (   0.5027458   0.9640845   2.3809727  )
       121           C   tau( 121) = (   0.4148802   0.9105182   2.2468143  )
       122           H   tau( 122) = (   0.5368632   0.8535928   2.2468143  )
       123           H   tau( 123) = (   0.2928971   0.8535928   2.2468143  )
       124           C   tau( 124) = (   0.6668673   0.6738861   2.3814228  )
       125           C   tau( 125) = (   0.6694731   0.8650813   2.3841404  )
       126           C   tau( 126) = (   0.8334719   0.5771319   2.3811733  )
       127           C   tau( 127) = (   0.8326020   0.9624951   2.3760151  )
       128           C   tau( 128) = (  -0.0005408   1.2515536   2.3783785  )
       129           C   tau( 129) = (  -0.0002025   1.4441657   2.3791885  )
       130           C   tau( 130) = (   0.1659611   1.1548761   2.3827122  )
       131           C   tau( 131) = (   0.1666509   1.5402873   2.3829992  )
       132           C   tau( 132) = (   0.3337850   1.2519397   2.3879034  )
       133           C   tau( 133) = (   0.3332515   1.4442312   2.3858299  )
       134           C   tau( 134) = (   0.5005739   1.1593011   2.3911037  )
       135           C   tau( 135) = (   0.4998278   1.5404340   2.3872195  )
       136           C   tau( 136) = (   0.6662401   1.2526435   2.3826683  )
       137           C   tau( 137) = (   0.6665454   1.4450373   2.3835040  )
       138           C   tau( 138) = (   0.8333031   1.1555540   2.3784932  )
       139           C   tau( 139) = (   0.8331891   1.5406696   2.3825269  )
       140           C   tau( 140) = (  -0.0000297   1.8288667   2.3851051  )
       141           C   tau( 141) = (  -0.0000613   2.0211271   2.3876375  )
       142           C   tau( 142) = (   0.1667729   1.7325293   2.3857606  )
       143           C   tau( 143) = (   0.1665083   2.1171200   2.3876392  )
       144           C   tau( 144) = (   0.3332856   1.8286704   2.3882715  )
       145           C   tau( 145) = (   0.3333299   2.0209605   2.3877559  )
       146           C   tau( 146) = (   0.4998642   1.7326998   2.3881539  )
       147           C   tau( 147) = (   0.4998585   2.1169691   2.3878980  )
       148           C   tau( 148) = (   0.6664680   1.8286764   2.3882226  )
       149           C   tau( 149) = (   0.6664575   2.0209616   2.3879923  )
       150           C   tau( 150) = (   0.8331465   1.7328249   2.3858388  )
       151           C   tau( 151) = (   0.8332060   2.1170919   2.3878550  )

     number of k points=     6  gaussian smearing, width (Ry)=  0.1000
                       cart. coord. in units 2pi/alat
        k(    1) = (   0.0000000   0.0000000   0.0000000), wk =   0.2500000
        k(    2) = (   0.0000000  -0.2165064   0.0000000), wk =   0.2500000
        k(    3) = (   0.2500000   0.0000000   0.0000000), wk =   0.5000000
        k(    4) = (   0.2500000  -0.2165064   0.0000000), wk =   0.5000000
        k(    5) = (  -0.5000000   0.0000000   0.0000000), wk =   0.2500000
        k(    6) = (  -0.5000000  -0.2165064   0.0000000), wk =   0.2500000

     Dense  grid:  2050409 G-vectors     FFT dimensions: (  80, 192, 270)

     Largest allocated arrays     est. size (Mb)     dimensions
        Kohn-Sham Wavefunctions        54.73 Mb     (    4604,  779)
        NL pseudopotentials           130.04 Mb     (    4604, 1851)
        Each V/rho on FFT grid          1.17 Mb     (   76800)
        Each G-vector array             0.28 Mb     (   36616)
        G-vector shells                 0.14 Mb     (   17932)
     Largest temporary arrays     est. size (Mb)     dimensions
        Auxiliary wavefunctions       218.90 Mb     (    4604, 3116)
        Each subspace H/S matrix        5.92 Mb     (     623,  623)
        Each <psi_i|beta_j> matrix     22.00 Mb     (    1851,  779)
        Arrays for rho mixing           9.38 Mb     (   76800,    8)

     Initial potential from superposition of free atoms
     Check: negative starting charge=   -0.001919

     starting charge 1272.31749, renormalised to 1298.00000

     negative rho (up, down):  1.957E-03 0.000E+00
     Starting wfc are 1294 randomized atomic wfcs

     total cpu time spent up to now is      108.2 secs

     Self-consistent Calculation

     iteration #  1     ecut=    80.00 Ry     beta=0.70
     Davidson diagonalization with overlap
     ethr =  1.00E-04,  avg # of iterations = 20.8

     negative rho (up, down):  2.829E+01 0.000E+00

     total cpu time spent up to now is     1891.4 secs

     total energy              =   -9414.40895486 Ry
     Harris-Foulkes estimate   =  -17197.77789685 Ry
     estimated scf accuracy    <  177947.90039245 Ry

     iteration #  2     ecut=    80.00 Ry     beta=0.70
     Davidson diagonalization with overlap
     ethr =  1.00E-02,  avg # of iterations = 12.5

     negative rho (up, down):  3.180E+01 0.000E+00

     total cpu time spent up to now is     2807.4 secs

     total energy              =  -12299.43935633 Ry
     Harris-Foulkes estimate   =  -13644.27689875 Ry
     estimated scf accuracy    <   20326.54837042 Ry

     iteration #  3     ecut=    80.00 Ry     beta=0.70
     Davidson diagonalization with overlap
     ethr =  1.00E-02,  avg # of iterations =  7.0

     negative rho (up, down):  3.303E+01 0.000E+00

     total cpu time spent up to now is     3349.8 secs

     total energy              =  -12485.08571753 Ry
     Harris-Foulkes estimate   =  -13384.30091682 Ry
     estimated scf accuracy    <    6069.38144830 Ry

     iteration #  4     ecut=    80.00 Ry     beta=0.70
     Davidson diagonalization with overlap
     ethr =  1.00E-02,  avg # of iterations =  4.8

     negative rho (up, down):  2.791E+01 0.000E+00

     total cpu time spent up to now is     3835.7 secs

     total energy              =  -12830.29721561 Ry
     Harris-Foulkes estimate   =  -13137.20790392 Ry
     estimated scf accuracy    <    4459.27274157 Ry

     iteration #  5     ecut=    80.00 Ry     beta=0.70
     Davidson diagonalization with overlap
     ethr =  1.00E-02,  avg # of iterations =  4.8

     negative rho (up, down):  1.923E+01 0.000E+00

     total cpu time spent up to now is     4170.8 secs

     total energy              =  -12874.29286266 Ry
     Harris-Foulkes estimate   =  -13035.73822532 Ry
     estimated scf accuracy    <    1058.30296633 Ry

     iteration #  6     ecut=    80.00 Ry     beta=0.70
     Davidson diagonalization with overlap
     ethr =  1.00E-02,  avg # of iterations =  2.0

     negative rho (up, down):  1.137E+01 0.000E+00

     total cpu time spent up to now is     4396.0 secs

     total energy              =  -12835.65997605 Ry
     Harris-Foulkes estimate   =  -12913.78204268 Ry
     estimated scf accuracy    <     549.14839439 Ry

     iteration #  7     ecut=    80.00 Ry     beta=0.70
     Davidson diagonalization with overlap
     ethr =  1.00E-02,  avg # of iterations =  2.0

     negative rho (up, down):  9.244E+00 0.000E+00

     total cpu time spent up to now is     4580.5 secs

     total energy              =  -12822.39010429 Ry
     Harris-Foulkes estimate   =  -12857.86365272 Ry
     estimated scf accuracy    <    1060.39454343 Ry

     iteration #  8     ecut=    80.00 Ry     beta=0.70
     Davidson diagonalization with overlap
     ethr =  1.00E-02,  avg # of iterations =  1.0

     negative rho (up, down):  8.510E+00 0.000E+00

     total cpu time spent up to now is     4747.4 secs

     total energy              =  -12821.11609192 Ry
     Harris-Foulkes estimate   =  -12835.47139046 Ry
     estimated scf accuracy    <     600.51226969 Ry

     iteration #  9     ecut=    80.00 Ry     beta=0.70
     Davidson diagonalization with overlap
     ethr =  1.00E-02,  avg # of iterations =  1.0

     negative rho (up, down):  7.926E+00 0.000E+00

     total cpu time spent up to now is     4914.1 secs

     total energy              =  -12816.56422359 Ry
     Harris-Foulkes estimate   =  -12825.10814507 Ry
     estimated scf accuracy    <     282.76922871 Ry

     iteration # 10     ecut=    80.00 Ry     beta=0.70
     Davidson diagonalization with overlap
     ethr =  1.00E-02,  avg # of iterations =  1.0

     negative rho (up, down):  2.495E+00 0.000E+00

     total cpu time spent up to now is     5080.8 secs

     total energy              =  -12760.69155421 Ry
     Harris-Foulkes estimate   =  -12819.07667981 Ry
     estimated scf accuracy    <     295.97885086 Ry

     iteration # 11     ecut=    80.00 Ry     beta=0.70
     Davidson diagonalization with overlap
     ethr =  1.00E-02,  avg # of iterations =  2.2

     negative rho (up, down):  1.888E+00 0.000E+00

     total cpu time spent up to now is     5265.1 secs

     total energy              =  -12744.86909519 Ry
     Harris-Foulkes estimate   =  -12777.42579600 Ry
     estimated scf accuracy    <     480.87338619 Ry

     iteration # 12     ecut=    80.00 Ry     beta=0.70
     Davidson diagonalization with overlap
     ethr =  1.00E-02,  avg # of iterations =  2.0

     negative rho (up, down):  1.051E+00 0.000E+00

     total cpu time spent up to now is     5445.4 secs

     total energy              =  -12736.91305452 Ry
     Harris-Foulkes estimate   =  -12762.93615942 Ry
     estimated scf accuracy    <     161.88779089 Ry

     iteration # 13     ecut=    80.00 Ry     beta=0.70
     Davidson diagonalization with overlap
     ethr =  1.00E-02,  avg # of iterations =  2.2

     negative rho (up, down):  2.633E+00 0.000E+00

     total cpu time spent up to now is     5627.0 secs

     total energy              =  -12729.65736148 Ry
     Harris-Foulkes estimate   =  -12749.78693272 Ry
     estimated scf accuracy    <     151.43435262 Ry

     iteration # 14     ecut=    80.00 Ry     beta=0.70
     Davidson diagonalization with overlap
     ethr =  1.00E-02,  avg # of iterations =  1.8

     negative rho (up, down):  6.289E+00 0.000E+00

     total cpu time spent up to now is     5804.7 secs

     total energy              =  -12726.36724132 Ry
     Harris-Foulkes estimate   =  -12736.47632605 Ry
     estimated scf accuracy    <      92.33102203 Ry

     iteration # 15     ecut=    80.00 Ry     beta=0.70
     Davidson diagonalization with overlap
     ethr =  7.11E-03,  avg # of iterations =  2.7

     negative rho (up, down):  5.519E+00 0.000E+00

     total cpu time spent up to now is     5992.0 secs

     total energy              =  -12724.64626025 Ry
     Harris-Foulkes estimate   =  -12729.65785055 Ry
     estimated scf accuracy    <      77.02545128 Ry

     iteration # 16     ecut=    80.00 Ry     beta=0.70
     Davidson diagonalization with overlap
     ethr =  5.93E-03,  avg # of iterations =  1.0

     negative rho (up, down):  5.387E+00 0.000E+00

     total cpu time spent up to now is     6158.8 secs

     total energy              =  -12721.35005026 Ry
     Harris-Foulkes estimate   =  -12725.55970738 Ry
     estimated scf accuracy    <      53.94444226 Ry

     iteration # 17     ecut=    80.00 Ry     beta=0.70
     Davidson diagonalization with overlap
     ethr =  4.16E-03,  avg # of iterations =  1.0

     negative rho (up, down):  1.495E+00 0.000E+00

     total cpu time spent up to now is     6325.7 secs

     total energy              =  -12718.94048664 Ry
     Harris-Foulkes estimate   =  -12722.53622130 Ry
     estimated scf accuracy    <      34.47764404 Ry

     iteration # 18     ecut=    80.00 Ry     beta=0.70
     Davidson diagonalization with overlap
     ethr =  2.66E-03,  avg # of iterations =  2.0

     negative rho (up, down):  2.642E+00 0.000E+00

     total cpu time spent up to now is     6505.1 secs

     total energy              =  -12718.19885044 Ry
     Harris-Foulkes estimate   =  -12721.00751626 Ry
     estimated scf accuracy    <      19.84977203 Ry

     iteration # 19     ecut=    80.00 Ry     beta=0.70
     Davidson diagonalization with overlap
     ethr =  1.53E-03,  avg # of iterations =  7.0

     negative rho (up, down):  3.251E+00 0.000E+00

     total cpu time spent up to now is     6747.4 secs

     total energy              =  -12717.56673414 Ry
     Harris-Foulkes estimate   =  -12719.21591242 Ry
     estimated scf accuracy    <      16.51376102 Ry

     iteration # 20     ecut=    80.00 Ry     beta=0.70
     Davidson diagonalization with overlap
     ethr =  1.27E-03,  avg # of iterations =  4.5

     negative rho (up, down):  3.804E+00 0.000E+00

     total cpu time spent up to now is     6956.2 secs

     total energy              =  -12716.59834380 Ry
     Harris-Foulkes estimate   =  -12718.25464231 Ry
     estimated scf accuracy    <      16.00930493 Ry

     iteration # 21     ecut=    80.00 Ry     beta=0.70
     Davidson diagonalization with overlap
     ethr =  1.23E-03,  avg # of iterations =  5.7

     negative rho (up, down):  2.208E+00 0.000E+00

     total cpu time spent up to now is     7183.0 secs

     total energy              =  -12716.29610560 Ry
     Harris-Foulkes estimate   =  -12717.52315712 Ry
     estimated scf accuracy    <       9.13953553 Ry

     iteration # 22     ecut=    80.00 Ry     beta=0.70
     Davidson diagonalization with overlap
     ethr =  7.04E-04,  avg # of iterations =  4.7

     negative rho (up, down):  2.087E+00 0.000E+00

     total cpu time spent up to now is     7392.8 secs

     total energy              =  -12715.28575507 Ry
     Harris-Foulkes estimate   =  -12716.49190748 Ry
     estimated scf accuracy    <       7.42832104 Ry

     iteration # 23     ecut=    80.00 Ry     beta=0.70
     Davidson diagonalization with overlap
     ethr =  5.72E-04,  avg # of iterations =  2.2

     negative rho (up, down):  1.541E+00 0.000E+00

     total cpu time spent up to now is     7572.2 secs

     total energy              =  -12715.07440236 Ry
     Harris-Foulkes estimate   =  -12715.55064985 Ry
     estimated scf accuracy    <      12.78164716 Ry

     iteration # 24     ecut=    80.00 Ry     beta=0.70
     Davidson diagonalization with overlap
     ethr =  5.72E-04,  avg # of iterations =  9.8

     negative rho (up, down):  6.236E-01 0.000E+00

     total cpu time spent up to now is     7841.3 secs

     total energy              =  -12713.80936605 Ry
     Harris-Foulkes estimate   =  -12715.25511516 Ry
     estimated scf accuracy    <       5.83385401 Ry

     iteration # 25     ecut=    80.00 Ry     beta=0.70
     Davidson diagonalization with overlap
     ethr =  4.49E-04,  avg # of iterations =  3.2

     negative rho (up, down):  5.214E-01 0.000E+00

     total cpu time spent up to now is     8034.1 secs

     total energy              =  -12713.01033178 Ry
     Harris-Foulkes estimate   =  -12714.26996017 Ry
     estimated scf accuracy    <      30.13815175 Ry

     iteration # 26     ecut=    80.00 Ry     beta=0.70
     Davidson diagonalization with overlap
     ethr =  4.49E-04,  avg # of iterations =  4.0

     negative rho (up, down):  1.986E-03 0.000E+00

     total cpu time spent up to now is     8237.7 secs

     total energy              =  -12712.05924096 Ry
     Harris-Foulkes estimate   =  -12713.68077640 Ry
     estimated scf accuracy    <       7.43615275 Ry

     iteration # 27     ecut=    80.00 Ry     beta=0.70
     Davidson diagonalization with overlap
     ethr =  4.49E-04,  avg # of iterations =  2.2

     negative rho (up, down):  6.056E-01 0.000E+00

     total cpu time spent up to now is     8420.2 secs

     total energy              =  -12711.89516869 Ry
     Harris-Foulkes estimate   =  -12712.44030382 Ry
     estimated scf accuracy    <       3.29557027 Ry

     iteration # 28     ecut=    80.00 Ry     beta=0.70
     Davidson diagonalization with overlap
     ethr =  2.54E-04,  avg # of iterations =  9.0

     negative rho (up, down):  7.214E-01 0.000E+00

     total cpu time spent up to now is     8688.7 secs

     total energy              =  -12711.82787126 Ry
     Harris-Foulkes estimate   =  -12712.02313365 Ry
     estimated scf accuracy    <       2.95463460 Ry

     iteration # 29     ecut=    80.00 Ry     beta=0.70
     Davidson diagonalization with overlap
     ethr =  2.28E-04,  avg # of iterations =  9.3

     negative rho (up, down):  5.235E-01 0.000E+00

     total cpu time spent up to now is     8963.1 secs

     total energy              =  -12711.66317914 Ry
     Harris-Foulkes estimate   =  -12711.89623658 Ry
     estimated scf accuracy    <       2.38415257 Ry

     iteration # 30     ecut=    80.00 Ry     beta=0.70
     Davidson diagonalization with overlap
     ethr =  1.84E-04,  avg # of iterations =  9.5

     negative rho (up, down):  4.780E-01 0.000E+00

     total cpu time spent up to now is     9241.2 secs

     total energy              =  -12711.61180212 Ry
     Harris-Foulkes estimate   =  -12711.70374878 Ry
     estimated scf accuracy    <       1.49053665 Ry

     iteration # 31     ecut=    80.00 Ry     beta=0.70
     Davidson diagonalization with overlap
     ethr =  1.15E-04,  avg # of iterations =  4.2

     negative rho (up, down):  2.955E-01 0.000E+00

     total cpu time spent up to now is     9449.3 secs

     total energy              =  -12711.53170547 Ry
     Harris-Foulkes estimate   =  -12711.62885234 Ry
     estimated scf accuracy    <       0.92690794 Ry

     iteration # 32     ecut=    80.00 Ry     beta=0.70
     Davidson diagonalization with overlap
     ethr =  7.14E-05,  avg # of iterations =  2.3

     negative rho (up, down):  2.363E-01 0.000E+00

     total cpu time spent up to now is     9636.7 secs

     total energy              =  -12711.52140844 Ry
     Harris-Foulkes estimate   =  -12711.54998536 Ry
     estimated scf accuracy    <       0.44063960 Ry

     iteration # 33     ecut=    80.00 Ry     beta=0.70
     Davidson diagonalization with overlap
     ethr =  3.39E-05,  avg # of iterations =  4.2

     negative rho (up, down):  1.313E-01 0.000E+00

     total cpu time spent up to now is     9843.0 secs

     total energy              =  -12711.48988815 Ry
     Harris-Foulkes estimate   =  -12711.52700146 Ry
     estimated scf accuracy    <       0.30954280 Ry

     iteration # 34     ecut=    80.00 Ry     beta=0.70
     Davidson diagonalization with overlap
     ethr =  2.38E-05,  avg # of iterations =  5.7

     negative rho (up, down):  7.554E-02 0.000E+00

     total cpu time spent up to now is    10072.1 secs

     total energy              =  -12711.47322597 Ry
     Harris-Foulkes estimate   =  -12711.49720171 Ry
     estimated scf accuracy    <       0.10257251 Ry

     iteration # 35     ecut=    80.00 Ry     beta=0.70
     Davidson diagonalization with overlap
     ethr =  7.90E-06,  avg # of iterations =  8.5

     negative rho (up, down):  5.298E-02 0.000E+00

     total cpu time spent up to now is    10369.0 secs

     total energy              =  -12711.47993769 Ry
     Harris-Foulkes estimate   =  -12711.48955436 Ry
     estimated scf accuracy    <       0.03765671 Ry

     iteration # 36     ecut=    80.00 Ry     beta=0.70
     Davidson diagonalization with overlap
     c_bands:  1 eigenvalues not converged
     ethr =  2.90E-06,  avg # of iterations = 10.8

     negative rho (up, down):  4.158E-02 0.000E+00

     total cpu time spent up to now is    10690.3 secs

     total energy              =  -12711.48581198 Ry
     Harris-Foulkes estimate   =  -12711.48707472 Ry
     estimated scf accuracy    <       0.01339396 Ry

     iteration # 37     ecut=    80.00 Ry     beta=0.70
     Davidson diagonalization with overlap
     ethr =  1.03E-06,  avg # of iterations =  8.2

     negative rho (up, down):  1.212E-02 0.000E+00

     total cpu time spent up to now is    10950.5 secs

     total energy              =  -12711.48446914 Ry
     Harris-Foulkes estimate   =  -12711.48603848 Ry
     estimated scf accuracy    <       0.00544800 Ry

     iteration # 38     ecut=    80.00 Ry     beta=0.70
     Davidson diagonalization with overlap
     c_bands:  1 eigenvalues not converged
     ethr =  4.20E-07,  avg # of iterations = 13.0

     negative rho (up, down):  4.009E-03 0.000E+00

     total cpu time spent up to now is    11292.4 secs

     total energy              =  -12711.48500857 Ry
     Harris-Foulkes estimate   =  -12711.48510873 Ry
     estimated scf accuracy    <       0.00096936 Ry

     iteration # 39     ecut=    80.00 Ry     beta=0.70
     Davidson diagonalization with overlap
     ethr =  7.47E-08,  avg # of iterations =  8.3

     negative rho (up, down):  3.716E-03 0.000E+00

     total cpu time spent up to now is    11564.7 secs

     total energy              =  -12711.48491406 Ry
     Harris-Foulkes estimate   =  -12711.48502996 Ry
     estimated scf accuracy    <       0.00066093 Ry

     iteration # 40     ecut=    80.00 Ry     beta=0.70
     Davidson diagonalization with overlap
     ethr =  5.09E-08,  avg # of iterations =  3.0

     negative rho (up, down):  1.887E-03 0.000E+00

     total cpu time spent up to now is    11767.6 secs

     total energy              =  -12711.48496257 Ry
     Harris-Foulkes estimate   =  -12711.48497149 Ry
     estimated scf accuracy    <       0.00007719 Ry

     iteration # 41     ecut=    80.00 Ry     beta=0.70
     Davidson diagonalization with overlap
     c_bands:  1 eigenvalues not converged
     c_bands:  1 eigenvalues not converged
     ethr =  5.95E-09,  avg # of iterations = 10.0

     negative rho (up, down):  1.494E-03 0.000E+00

     total cpu time spent up to now is    12057.9 secs

     total energy              =  -12711.48496689 Ry
     Harris-Foulkes estimate   =  -12711.48496938 Ry
     estimated scf accuracy    <       0.00001319 Ry

     iteration # 42     ecut=    80.00 Ry     beta=0.70
     Davidson diagonalization with overlap
     ethr =  1.02E-09,  avg # of iterations =  3.0

     negative rho (up, down):  1.501E-03 0.000E+00

     total cpu time spent up to now is    12268.8 secs

     total energy              =  -12711.48496733 Ry
     Harris-Foulkes estimate   =  -12711.48496855 Ry
     estimated scf accuracy    <       0.00000615 Ry

     iteration # 43     ecut=    80.00 Ry     beta=0.70
     Davidson diagonalization with overlap
     ethr =  4.73E-10,  avg # of iterations =  2.5

     negative rho (up, down):  1.755E-03 0.000E+00

     total cpu time spent up to now is    12465.7 secs

     total energy              =  -12711.48496864 Ry
     Harris-Foulkes estimate   =  -12711.48496787 Ry
     estimated scf accuracy    <       0.00000267 Ry

     iteration # 44     ecut=    80.00 Ry     beta=0.70
     Davidson diagonalization with overlap
     ethr =  2.06E-10,  avg # of iterations =  2.5

     negative rho (up, down):  1.807E-03 0.000E+00

     total cpu time spent up to now is    12661.4 secs

     total energy              =  -12711.48496874 Ry
     Harris-Foulkes estimate   =  -12711.48496888 Ry
     estimated scf accuracy    <       0.00000053 Ry

     iteration # 45     ecut=    80.00 Ry     beta=0.70
     Davidson diagonalization with overlap
     ethr =  4.10E-11,  avg # of iterations =  2.0

     negative rho (up, down):  1.899E-03 0.000E+00

     total cpu time spent up to now is    12856.3 secs

     total energy              =  -12711.48496878 Ry
     Harris-Foulkes estimate   =  -12711.48496880 Ry
     estimated scf accuracy    <       0.00000011 Ry

     iteration # 46     ecut=    80.00 Ry     beta=0.70
     Davidson diagonalization with overlap
     ethr =  8.48E-12,  avg # of iterations =  3.0

     negative rho (up, down):  1.951E-03 0.000E+00

     total cpu time spent up to now is    13089.0 secs

     total energy              =  -12711.48496877 Ry
     Harris-Foulkes estimate   =  -12711.48496880 Ry
     estimated scf accuracy    <       0.00000005 Ry

     iteration # 47     ecut=    80.00 Ry     beta=0.70
     Davidson diagonalization with overlap
     ethr =  3.49E-12,  avg # of iterations =  3.0

     negative rho (up, down):  1.947E-03 0.000E+00

     total cpu time spent up to now is    13293.1 secs

     total energy              =  -12711.48496877 Ry
     Harris-Foulkes estimate   =  -12711.48496877 Ry
     estimated scf accuracy    <       0.00000001 Ry

     iteration # 48     ecut=    80.00 Ry     beta=0.70
     Davidson diagonalization with overlap
     ethr =  8.34E-13,  avg # of iterations =  3.0

     negative rho (up, down):  1.957E-03 0.000E+00

     total cpu time spent up to now is    13490.1 secs

     End of self-consistent calculation

          k = 0.0000 0.0000 0.0000 (256287 PWs)   bands (ev):

   -21.9225 -16.3601 -15.9803 -15.7563 -15.4833 -14.7708 -14.5612 -13.9750
   -13.9691 -13.8312 -13.7848 -13.3663 -13.2588 -13.0722 -12.8308 -12.7649
   -12.7528 -11.9409 -11.7353 -11.3004 -11.1061 -10.9094 -10.5832 -10.1792
   -10.1068  -9.4338  -9.2913  -8.9837  -8.8975  -8.7793  -8.3365  -8.2732
    -7.8646  -7.8161  -7.6296  -7.3854  -7.2865  -7.2566  -7.1957  -7.1754
    -6.6110  -6.2858  -5.9818  -5.7590  -5.6349  -5.6174  -5.5809  -5.5482
    -5.5342  -5.2782  -5.0946  -5.0831  -4.6749  -4.6497  -4.4348  -4.2908
    -4.2752  -4.2375  -4.1295  -4.0269  -3.7998  -3.7568  -3.6697  -3.6365
    -3.5944  -3.5642  -3.4783  -3.2444  -3.2167  -3.1142  -3.0574  -3.0193
    -3.0139  -2.9824  -2.8707  -2.8334  -2.8017  -2.6783  -2.6206  -2.6170
    -2.6148  -2.6109  -2.5567  -2.5241  -2.4600  -2.4514  -2.4181  -2.3861
    -2.3782  -2.3533  -2.2664  -2.2196  -2.0845  -2.0393  -2.0170  -1.9694
    -1.9433  -1.9003  -1.8477  -1.8046  -1.8014  -1.7737  -1.7632  -1.7585
    -1.7580  -1.7570  -1.7390  -1.7213  -1.7006  -1.6291  -1.6288  -1.6271
    -1.6226  -1.5573  -1.5317  -1.4514  -1.4124  -1.3806  -1.3532  -1.3472
    -1.3443  -1.3298  -1.3026  -1.2824  -1.2754  -1.2629  -1.2601  -1.2471
    -1.2222  -1.2093  -1.1767  -1.1690  -1.1682  -1.1594  -1.1531  -1.1437
    -1.1353  -1.1203  -1.1187  -1.1112  -1.0672  -1.0503  -1.0384  -1.0217
    -1.0166  -0.9733  -0.9584  -0.9463  -0.9273  -0.9025  -0.8785  -0.8672
    -0.8606  -0.8536  -0.8150  -0.8136  -0.7947  -0.7943  -0.7821  -0.7701
    -0.7686  -0.7512  -0.7415  -0.6775  -0.6619  -0.6561  -0.6540  -0.6384
    -0.6342  -0.6336  -0.6299  -0.6257  -0.6243  -0.6233  -0.6198  -0.6118
    -0.6060  -0.6026  -0.5845  -0.5523  -0.5478  -0.5435  -0.5396  -0.5349
    -0.5301  -0.5251  -0.5224  -0.5171  -0.4793  -0.4697  -0.4668  -0.4642
    -0.4627  -0.4602  -0.4598  -0.4565  -0.4563  -0.4563  -0.4542  -0.4520
    -0.4513  -0.4509  -0.4453  -0.4445  -0.4389  -0.4295  -0.3975  -0.3459
    -0.2993  -0.2945  -0.2903  -0.2874  -0.2853  -0.2681  -0.2515  -0.2478
    -0.2315  -0.2285  -0.2207  -0.2185  -0.2152  -0.2086  -0.1999  -0.1729
    -0.1701  -0.1684  -0.1658  -0.1630  -0.1600  -0.1576  -0.1483  -0.1314
    -0.1028  -0.0995  -0.0527  -0.0462  -0.0435  -0.0360  -0.0353  -0.0320
    -0.0214  -0.0160  -0.0135  -0.0102  -0.0089  -0.0080  -0.0063  -0.0045
    -0.0004   0.0038   0.0096   0.0108   0.0193   0.0235   0.0415   0.0423
     0.0775   0.0944   0.0973   0.1024   0.1032   0.1126   0.1253   0.1302
     0.1321   0.1324   0.1329   0.1461   0.1483   0.1532   0.1554   0.1632
     0.1680   0.1706   0.1754   0.1768   0.1775   0.1776   0.1815   0.1838
     0.1903   0.1960   0.2010   0.2026   0.2067   0.2116   0.2437   0.2632
     0.2704   0.2713   0.2748   0.2870   0.2940   0.2994   0.3009   0.3050
     0.3261   0.3277   0.3307   0.3337   0.3347   0.3350   0.3356   0.3439
     0.3693   0.3734   0.3774   0.3877   0.3968   0.3999   0.4046   0.4116
     0.4153   0.4182   0.4193   0.4231   0.4273   0.4371   0.4399   0.4420
     0.4432   0.4441   0.4503   0.4555   0.4561   0.4587   0.4605   0.4640
     0.4782   0.4889   0.4923   0.5014   0.5097   0.5267   0.5317   0.5409
     0.5528   0.5804   0.5865   0.5986   0.6165   0.6212   0.6269   0.6324
     0.6356   0.6365   0.6414   0.6432   0.6487   0.6569   0.6647   0.6664
     0.6709   0.6739   0.6965   0.7205   0.7268   0.7336   0.7350   0.7363
     0.7416   0.7541   0.7617   0.7683   0.7742   0.7770   0.7780   0.7969
     0.8009   0.8059   0.8110   0.8139   0.8281   0.8301   0.8338   0.8465
     0.8633   0.8681   0.8787   0.8859   0.8900   0.8927   0.8960   0.8993
     0.9022   0.9045   0.9110   0.9187   0.9222   0.9241   0.9294   0.9300
     0.9321   0.9343   0.9411   0.9431   0.9468   0.9489   0.9493   0.9581
     0.9625   0.9719   0.9886   0.9934   0.9983   0.9996   1.0010   1.0226
     1.0309   1.0344   1.0389   1.0403   1.0410   1.0450   1.0469   1.0489
     1.0504   1.0616   1.0656   1.0679   1.0736   1.0774   1.0786   1.0818
     1.0830   1.0910   1.0965   1.0981   1.1054   1.1071   1.1142   1.1160
     1.1177   1.1243   1.1357   1.1391   1.1397   1.1418   1.1418   1.1452
     1.1475   1.1575   1.1605   1.1836   1.1990   1.2010   1.2081   1.2135
     1.2153   1.2175   1.2193   1.2432   1.2454   1.2477   1.2588   1.2693
     1.2719   1.2721   1.2762   1.2833   1.2861   1.2904   1.2924   1.3005
     1.3006   1.3124   1.3229   1.3273   1.3307   1.3322   1.3371   1.3394
     1.3492   1.3532   1.3583   1.3656   1.3702   1.3787   1.3803   1.3831
     1.3931   1.3940   1.3972   1.4030   1.4056   1.4073   1.4081   1.4114
     1.4121   1.4188   1.4216   1.4222   1.4329   1.4338   1.4371   1.4431
     1.4484   1.4553   1.4595   1.4636   1.4691   1.4777   1.4863   1.4889
     1.4966   1.5006   1.5027   1.5033   1.5088   1.5097   1.5103   1.5112
     1.5121   1.5210   1.5281   1.5287   1.5299   1.5483   1.5657   1.5678
     1.5766   1.5837   1.5890   1.5926   1.5955   1.5980   1.6006   1.6037
     1.6070   1.6131   1.6186   1.6217   1.6289   1.6310   1.6327   1.6343
     1.6357   1.6487   1.6495   1.6549   1.6586   1.6633   1.6650   1.6677
     1.6696   1.6715   1.6727   1.6732   1.6789   1.6898   1.6903   1.6929
     1.6969   1.7039   1.7043   1.7054   1.7061   1.7115   1.7142   1.7159
     1.7237   1.7299   1.7359   1.7393   1.7473   1.7510   1.7526   1.7570
     1.7684   1.7753   1.7793   1.7806   1.7823   1.7844   1.7957   1.8031
     1.8066   1.8118   1.8151   1.8162   1.8177   1.8189   1.8240   1.8251
     1.8261   1.8293   1.8305   1.8340   1.8348   1.8439   1.8447   1.8515
     1.8547   1.8575   1.8592   1.8596   1.8628   1.8725   1.8838   1.8902
     1.8959   1.9090   1.9167   1.9302   1.9427   1.9491   1.9530   1.9549
     1.9600   1.9665   1.9781   1.9793   2.0016   2.0038   2.0165   2.0210
     2.0237   2.0249   2.0370   2.0384   2.0412   2.0793   2.2754   2.3142
     2.3509   2.4975   2.5092   2.5401   2.5832   2.5923   2.5961   2.6023
     2.6026   2.6109   2.6129   2.6186   2.6633   2.7746   2.8111   2.8319
     2.8572   2.8577   2.8624   2.8721   2.9259   3.0149   3.0976   3.1050
     3.1087   3.2068   3.2604   3.3785   3.6044   3.7593   3.8964   3.9595
     4.1821   4.2079   4.2177   4.2359   4.2391   4.2518   4.3308   4.3373
     4.3563   4.3730   4.3749   4.3963   4.3979   4.3998   4.4015   4.5000
     4.5889   4.6275   4.6342   4.6819   4.7991   5.0539   5.1109   5.1443
     5.1910   5.3210   5.6725   5.6924   5.7508   5.8340   5.8660   6.0425
     6.0927   6.1008   6.2359   6.3212   6.3362   6.5573   6.6346   6.7401
     6.7798   6.7909   6.8129   6.8464   6.8578   6.8925   6.9329   7.0242
     7.0695   7.0961   7.1110   7.1360   7.1614   7.2228   7.2740   7.3468
     7.4318   7.4380   7.4534   7.4637   7.6185   7.6496   7.7295   7.7461
     7.8353   7.8548   7.8794   8.0033   8.0179   8.0414   8.0783   8.0797
     8.1826   8.4236   8.4309   8.5140   8.5257   8.5336   8.5476   8.5672
     8.6736   8.7115   8.7205   8.7292   8.7570   8.7838   8.8054   8.8212
     8.8463   8.9060   8.9285   8.9640   8.9883   9.0143   9.0236   9.1289
     9.1682   9.2091   9.2169   9.2512   9.3085   9.3387   9.3455   9.3714
     9.4038   9.4541   9.4600   9.4787   9.4973   9.6016   9.6659   9.6914
     9.7289   9.8987   9.9336   9.9646  10.0014  10.0254  10.0704  10.0951
    10.1060  10.2231  10.2580

          k = 0.0000-0.2165 0.0000 (256176 PWs)   bands (ev):

   -21.9225 -16.3604 -15.9694 -15.8022 -15.3520 -15.0670 -14.0933 -14.0129
   -13.9863 -13.9546 -13.6735 -13.5752 -13.4111 -13.3654 -12.6461 -12.5881
   -12.2211 -12.0140 -11.8567 -11.7787 -11.2327 -10.8023 -10.3515 -10.1452
    -9.7661  -9.6142  -9.4761  -9.0268  -8.6741  -8.6621  -8.5583  -8.2773
    -8.1881  -7.8893  -7.8456  -7.3548  -7.2780  -7.0277  -6.6942  -6.6216
    -6.5916  -6.5218  -6.5161  -6.0366  -5.8674  -5.7617  -5.4929  -5.4790
    -5.3675  -4.9533  -4.8401  -4.7188  -4.6108  -4.5496  -4.5244  -4.4784
    -4.4475  -4.4087  -4.3049  -4.2684  -4.1154  -4.0614  -3.7662  -3.6796
    -3.4982  -3.3142  -3.2558  -3.1450  -3.1199  -2.9119  -2.9117  -2.9053
    -2.8963  -2.8895  -2.8156  -2.7567  -2.7407  -2.6808  -2.6462  -2.6388
    -2.5903  -2.5574  -2.5115  -2.4993  -2.4627  -2.4411  -2.4221  -2.2697
    -2.2561  -2.2322  -2.1996  -2.1874  -2.1859  -2.1853  -2.1747  -2.1594
    -2.0980  -2.0548  -1.9610  -1.8986  -1.8895  -1.8586  -1.8257  -1.8062
    -1.7666  -1.7606  -1.7440  -1.7332  -1.7018  -1.6709  -1.5932  -1.5917
    -1.5659  -1.5637  -1.5509  -1.4909  -1.4742  -1.4579  -1.4166  -1.3741
    -1.3737  -1.3547  -1.3525  -1.3491  -1.3472  -1.3272  -1.3236  -1.2977
    -1.2512  -1.2501  -1.2433  -1.2237  -1.2041  -1.1707  -1.0841  -1.0721
    -1.0714  -1.0677  -1.0368  -1.0125  -0.9834  -0.9751  -0.9636  -0.9601
    -0.9203  -0.9199  -0.8885  -0.8841  -0.8795  -0.8782  -0.8764  -0.8758
    -0.8626  -0.8577  -0.8384  -0.8339  -0.8331  -0.8328  -0.8208  -0.8055
    -0.7836  -0.7694  -0.7644  -0.7529  -0.7202  -0.7167  -0.6934  -0.6911
    -0.6555  -0.6534  -0.6515  -0.6503  -0.6475  -0.6117  -0.5931  -0.5908
    -0.5881  -0.5871  -0.5849  -0.5824  -0.5446  -0.5318  -0.5276  -0.5253
    -0.5205  -0.5199  -0.5104  -0.5047  -0.5043  -0.5021  -0.4707  -0.4551
    -0.4405  -0.4356  -0.4325  -0.4234  -0.4223  -0.4200  -0.4128  -0.4047
    -0.4023  -0.3924  -0.3747  -0.3686  -0.3592  -0.3563  -0.3459  -0.3313
    -0.2594  -0.2589  -0.2565  -0.2549  -0.2361  -0.2348  -0.2227  -0.2136
    -0.2100  -0.2087  -0.2037  -0.2035  -0.1994  -0.1935  -0.1796  -0.1610
    -0.1537  -0.1525  -0.1491  -0.1479  -0.1465  -0.1409  -0.1397  -0.1162
    -0.1132  -0.1102  -0.0921  -0.0882  -0.0881  -0.0857  -0.0642  -0.0537
    -0.0518  -0.0504  -0.0449  -0.0433  -0.0423  -0.0341  -0.0065   0.0278
     0.0348   0.0356   0.0382   0.0403   0.0501   0.0665   0.0716   0.0837
     0.0915   0.0924   0.0975   0.0986   0.1001   0.1113   0.1144   0.1201
     0.1219   0.1222   0.1283   0.1321   0.1351   0.1433   0.1451   0.1464
     0.1495   0.1533   0.1548   0.1628   0.1866   0.1875   0.1891   0.1918
     0.1921   0.2094   0.2229   0.2263   0.2473   0.2533   0.2541   0.2554
     0.2577   0.2618   0.2688   0.2745   0.2805   0.2824   0.2857   0.3024
     0.3038   0.3084   0.3095   0.3175   0.3187   0.3211   0.3212   0.3247
     0.3541   0.3582   0.3643   0.3704   0.3785   0.3805   0.3887   0.3973
     0.4000   0.4063   0.4098   0.4135   0.4146   0.4213   0.4236   0.4253
     0.4280   0.4422   0.4488   0.4651   0.4704   0.4709   0.4712   0.4804
     0.4879   0.5000   0.5006   0.5064   0.5077   0.5180   0.5185   0.5229
     0.5242   0.5387   0.5682   0.5729   0.5737   0.5802   0.5895   0.5927
     0.5989   0.5997   0.6161   0.6198   0.6326   0.6525   0.6579   0.6608
     0.6937   0.6940   0.7020   0.7184   0.7358   0.7651   0.7693   0.7737
     0.7817   0.7839   0.7863   0.7909   0.8032   0.8049   0.8097   0.8156
     0.8245   0.8346   0.8372   0.8402   0.8424   0.8471   0.8491   0.8543
     0.8590   0.8612   0.8650   0.8700   0.8713   0.8730   0.8746   0.8817
     0.9043   0.9066   0.9101   0.9167   0.9181   0.9190   0.9275   0.9298
     0.9298   0.9330   0.9365   0.9389   0.9480   0.9490   0.9508   0.9515
     0.9520   0.9680   0.9711   0.9718   0.9760   0.9763   0.9769   0.9781
     0.9794   0.9820   0.9929   0.9976   1.0152   1.0384   1.0420   1.0488
     1.0511   1.0525   1.0533   1.0588   1.0619   1.0678   1.0696   1.0713
     1.0740   1.0758   1.0761   1.0843   1.1044   1.1121   1.1149   1.1202
     1.1202   1.1223   1.1275   1.1339   1.1373   1.1398   1.1496   1.1566
     1.1611   1.1661   1.1685   1.1704   1.1735   1.1900   1.2231   1.2252
     1.2392   1.2602   1.2697   1.2748   1.2804   1.2830   1.2918   1.2957
     1.2976   1.3000   1.3025   1.3049   1.3088   1.3103   1.3116   1.3144
     1.3209   1.3231   1.3295   1.3323   1.3338   1.3387   1.3440   1.3477
     1.3514   1.3527   1.3569   1.3599   1.3600   1.3634   1.3636   1.3658
     1.3725   1.3759   1.3806   1.3822   1.3824   1.3842   1.3860   1.3894
     1.4008   1.4028   1.4068   1.4092   1.4133   1.4159   1.4213   1.4259
     1.4290   1.4315   1.4318   1.4325   1.4351   1.4382   1.4764   1.4818
     1.4829   1.4944   1.5080   1.5232   1.5243   1.5251   1.5274   1.5330
     1.5378   1.5503   1.5565   1.5627   1.5697   1.5712   1.5752   1.5782
     1.5819   1.5844   1.5888   1.5906   1.5919   1.5930   1.5933   1.5954
     1.5964   1.5989   1.6027   1.6040   1.6065   1.6166   1.6195   1.6220
     1.6246   1.6269   1.6285   1.6477   1.6522   1.6539   1.6589   1.6620
     1.6629   1.6695   1.6714   1.6725   1.6832   1.6867   1.6884   1.6909
     1.6951   1.6983   1.7053   1.7085   1.7096   1.7100   1.7155   1.7212
     1.7248   1.7297   1.7369   1.7400   1.7439   1.7450   1.7628   1.7662
     1.7697   1.7731   1.7749   1.7785   1.7802   1.7844   1.7862   1.7893
     1.8037   1.8059   1.8150   1.8188   1.8212   1.8214   1.8350   1.8364
     1.8397   1.8428   1.8452   1.8457   1.8459   1.8474   1.8703   1.8717
     1.8789   1.8815   1.8825   1.8888   1.8949   1.8976   1.9038   1.9106
     1.9116   1.9169   1.9239   1.9284   1.9371   1.9400   1.9456   1.9740
     1.9794   1.9800   1.9972   2.0273   2.0784   2.0889   2.1011   2.1031
     2.1301   2.1540   2.1565   2.1665   2.1780   2.1834   2.1905   2.1995
     2.2051   2.2195   2.2470   2.2481   2.2513   2.3795   2.4068   2.5235
     2.7810   2.8087   2.8095   2.8339   2.8563   2.8914   2.9184   2.9410
     2.9519   2.9636   2.9697   2.9735   3.0232   3.0954   3.0973   3.1426
     3.1604   3.1697   3.3057   3.3159   3.3198   3.5556   3.5556   3.5687
     3.5828   3.7580   3.8555   3.9645   4.0651   4.0853   4.1970   4.2886
     4.4113   4.4588   4.4734   4.5497   4.6625   4.6978   4.7066   4.7492
     4.7592   4.8683   4.9074   5.0455   5.0958   5.1152   5.4115   5.4351
     5.4860   5.4973   5.6314   5.7171   5.7394   5.7460   5.7512   5.7835
     5.8544   5.9351   6.0225   6.0655   6.0876   6.2103   6.5900   6.6909
     6.7465   6.7604   6.7960   6.8036   6.8749   6.9132   6.9766   7.0481
     7.0556   7.1193   7.2286   7.3016   7.3935   7.4263   7.4312   7.4544
     7.4605   7.4639   7.4703   7.5079   7.5132   7.5176   7.5583   7.5852
     7.6883   7.7128   7.7347   7.8297   7.8981   7.9621   8.0471   8.1246
     8.1435   8.2179   8.2447   8.4513   8.4956   8.5076   8.5227   8.6062
     8.7027   8.7383   8.7558   8.7702   8.7753   8.8719   8.9169   8.9487
     8.9658   9.0581   9.0830   9.0833   9.1023   9.1152   9.1393   9.1571
     9.1852   9.1882   9.2048   9.2710   9.3537   9.3730   9.4186   9.4575
     9.5499   9.5730   9.6307   9.6937   9.7637   9.7689   9.7707   9.7810
     9.8104   9.8360   9.8955   9.9236   9.9684   9.9916  10.0364  10.1322
    10.1654  10.1768  10.2130

          k = 0.2500 0.0000 0.0000 (256240 PWs)   bands (ev):

   -21.9216 -16.4984 -15.8283 -15.6423 -15.2408 -14.8373 -14.7263 -14.5743
   -14.3523 -14.0205 -13.6601 -13.0425 -12.9822 -12.8514 -12.7066 -12.5912
   -12.1045 -11.9493 -11.7887 -11.5037 -11.0545 -10.6031 -10.4399 -10.2701
   -10.1581  -9.9645  -9.7243  -9.4452  -9.0824  -8.9324  -8.8873  -8.6666
    -8.0291  -7.8587  -7.5604  -7.3323  -7.2341  -7.1294  -6.9201  -6.7882
    -6.4151  -6.0903  -5.7882  -5.6748  -5.6051  -5.4899  -5.4395  -5.1456
    -5.0550  -4.9215  -4.9087  -4.6003  -4.5205  -4.5052  -4.2672  -4.1779
    -4.1065  -4.0906  -4.0729  -4.0455  -3.9439  -3.7855  -3.6686  -3.6207
    -3.6108  -3.5839  -3.5536  -3.4971  -3.4512  -3.4303  -3.3406  -3.2968
    -3.2536  -3.2263  -3.1899  -3.0703  -3.0498  -2.9707  -2.9235  -2.8839
    -2.8633  -2.7629  -2.7025  -2.5984  -2.5386  -2.4700  -2.4251  -2.4066
    -2.4041  -2.3595  -2.3221  -2.2341  -2.1965  -2.1781  -2.0619  -2.0043
    -1.9648  -1.9060  -1.8209  -1.7656  -1.7062  -1.7036  -1.6887  -1.6855
    -1.6557  -1.6267  -1.5807  -1.5074  -1.4966  -1.4812  -1.4419  -1.4141
    -1.4087  -1.4034  -1.3985  -1.3961  -1.3849  -1.3778  -1.3543  -1.3481
    -1.3283  -1.3227  -1.2931  -1.2576  -1.2501  -1.2076  -1.2051  -1.1925
    -1.1883  -1.1867  -1.1860  -1.1811  -1.1389  -1.1346  -1.1085  -1.1075
    -1.0996  -1.0963  -1.0502  -0.9786  -0.9709  -0.9576  -0.9395  -0.9352
    -0.9147  -0.8875  -0.8713  -0.8536  -0.8504  -0.8471  -0.8425  -0.8408
    -0.8252  -0.8133  -0.8068  -0.7897  -0.7864  -0.7853  -0.7765  -0.7687
    -0.7477  -0.7439  -0.7400  -0.7373  -0.7362  -0.7172  -0.7150  -0.7071
    -0.6945  -0.6925  -0.6740  -0.6640  -0.6591  -0.6525  -0.6478  -0.6305
    -0.6238  -0.6192  -0.6173  -0.6135  -0.6071  -0.6007  -0.5936  -0.5877
    -0.5859  -0.5855  -0.5834  -0.5810  -0.5783  -0.5692  -0.5639  -0.5620
    -0.5570  -0.5512  -0.5228  -0.5130  -0.5049  -0.4622  -0.4587  -0.4481
    -0.4215  -0.4176  -0.4021  -0.3998  -0.3924  -0.3822  -0.3744  -0.3711
    -0.3611  -0.3574  -0.3558  -0.3498  -0.3462  -0.3297  -0.2373  -0.2215
    -0.2150  -0.2099  -0.1906  -0.1785  -0.1765  -0.1759  -0.1675  -0.1635
    -0.1559  -0.1543  -0.1535  -0.1513  -0.1385  -0.1365  -0.1322  -0.1132
    -0.1059  -0.1024  -0.0939  -0.0923  -0.0879  -0.0827  -0.0655  -0.0648
    -0.0640  -0.0340  -0.0259  -0.0071  -0.0039  -0.0027   0.0030   0.0045
     0.0122   0.0142   0.0212   0.0286   0.0342   0.0355   0.0491   0.0575
     0.0626   0.0655   0.0763   0.0988   0.0994   0.1026   0.1046   0.1072
     0.1100   0.1205   0.1237   0.1333   0.1431   0.1494   0.1545   0.1603
     0.1735   0.1789   0.1890   0.1924   0.1964   0.1998   0.2032   0.2093
     0.2100   0.2131   0.2158   0.2412   0.2431   0.2547   0.2565   0.2689
     0.2697   0.2817   0.2922   0.3111   0.3192   0.3267   0.3300   0.3326
     0.3420   0.3460   0.3502   0.3574   0.3716   0.3782   0.3816   0.3848
     0.3881   0.3898   0.3921   0.3970   0.3979   0.4014   0.4030   0.4053
     0.4115   0.4225   0.4254   0.4288   0.4323   0.4331   0.4465   0.4502
     0.4625   0.4679   0.4695   0.4803   0.4949   0.4982   0.5009   0.5090
     0.5135   0.5152   0.5257   0.5280   0.5328   0.5358   0.5381   0.5414
     0.5624   0.5721   0.5936   0.6185   0.6364   0.6429   0.6482   0.6516
     0.6588   0.6611   0.6673   0.6699   0.6717   0.6750   0.6780   0.6795
     0.6798   0.6852   0.6865   0.6946   0.6999   0.7013   0.7027   0.7072
     0.7148   0.7211   0.7231   0.7289   0.7299   0.7322   0.7342   0.7504
     0.7535   0.7673   0.7847   0.7925   0.8011   0.8034   0.8110   0.8205
     0.8302   0.8313   0.8352   0.8411   0.8510   0.8606   0.8661   0.8671
     0.8719   0.8775   0.8815   0.8848   0.8890   0.8912   0.8929   0.9054
     0.9161   0.9175   0.9208   0.9255   0.9328   0.9374   0.9388   0.9419
     0.9460   0.9465   0.9621   0.9671   0.9705   0.9734   0.9773   0.9799
     0.9864   0.9939   0.9979   1.0003   1.0016   1.0076   1.0103   1.0189
     1.0272   1.0318   1.0447   1.0459   1.0562   1.0573   1.0581   1.0613
     1.0684   1.0739   1.0814   1.0995   1.1078   1.1126   1.1262   1.1321
     1.1347   1.1375   1.1393   1.1454   1.1531   1.1603   1.1648   1.1681
     1.1703   1.1714   1.1758   1.1820   1.1896   1.1939   1.2053   1.2100
     1.2176   1.2233   1.2305   1.2439   1.2459   1.2501   1.2525   1.2670
     1.2721   1.2763   1.2802   1.2815   1.2843   1.2878   1.2918   1.2987
     1.2998   1.3008   1.3116   1.3278   1.3338   1.3362   1.3419   1.3447
     1.3547   1.3573   1.3640   1.3711   1.3739   1.3768   1.3854   1.3869
     1.3888   1.3913   1.3944   1.4020   1.4054   1.4073   1.4114   1.4121
     1.4132   1.4151   1.4183   1.4192   1.4240   1.4255   1.4289   1.4326
     1.4397   1.4413   1.4501   1.4588   1.4616   1.4619   1.4651   1.4685
     1.4714   1.4806   1.4828   1.4889   1.4941   1.4976   1.5003   1.5028
     1.5133   1.5198   1.5259   1.5274   1.5322   1.5357   1.5402   1.5421
     1.5451   1.5498   1.5520   1.5586   1.5750   1.5782   1.5813   1.5848
     1.5917   1.6129   1.6193   1.6240   1.6306   1.6357   1.6378   1.6412
     1.6423   1.6462   1.6498   1.6563   1.6572   1.6608   1.6625   1.6715
     1.6747   1.6786   1.6820   1.6849   1.6868   1.6924   1.6942   1.6984
     1.7013   1.7027   1.7044   1.7071   1.7088   1.7129   1.7148   1.7193
     1.7233   1.7279   1.7347   1.7398   1.7427   1.7462   1.7472   1.7496
     1.7521   1.7659   1.7678   1.7748   1.7823   1.7844   1.7879   1.7951
     1.8060   1.8115   1.8136   1.8150   1.8166   1.8173   1.8181   1.8215
     1.8232   1.8272   1.8300   1.8347   1.8353   1.8402   1.8508   1.8537
     1.8563   1.8582   1.8610   1.8619   1.8713   1.8768   1.8780   1.8841
     1.8867   1.8924   1.9003   1.9016   1.9043   1.9105   1.9139   1.9241
     1.9368   1.9444   1.9502   1.9733   1.9834   2.0143   2.0147   2.0176
     2.0378   2.0396   2.0867   2.1139   2.1433   2.1491   2.1558   2.1672
     2.1830   2.2314   2.2466   2.3282   2.3751   2.4245   2.4436   2.4598
     2.4741   2.4862   2.5375   2.5895   2.6380   2.8285   2.9454   2.9524
     2.9550   3.0139   3.3672   3.3686   3.4157   3.5772   3.5805   3.6113
     3.6115   3.6470   3.6667   3.8359   3.8761   3.9399   3.9791   3.9960
     4.0347   4.0561   4.0774   4.0978   4.1074   4.1385   4.1865   4.2433
     4.2835   4.3376   4.3649   4.4029   4.5409   4.6608   4.6738   4.7287
     4.7712   4.8975   5.1633   5.2002   5.2348   5.2748   5.4486   5.5450
     5.6018   5.6052   5.6108   5.6966   5.7442   5.8173   5.8516   5.8889
     5.9333   5.9497   5.9645   6.0314   6.0586   6.0896   6.1381   6.1492
     6.1713   6.3096   6.3664   6.3954   6.4067   6.4331   6.5800   6.9001
     7.0083   7.0384   7.0806   7.1170   7.1359   7.1549   7.2149   7.2376
     7.3741   7.4018   7.4135   7.4202   7.4427   7.4937   7.4984   7.5456
     7.6371   7.6664   7.7472   7.8368   7.8565   7.9014   7.9327   7.9737
     8.0091   8.0467   8.0798   8.1236   8.1803   8.2755   8.3772   8.4113
     8.4310   8.4503   8.5184   8.5796   8.6251   8.6564   8.6873   8.7004
     8.7062   8.7108   8.7504   8.8185   8.8632   8.9556   8.9911   9.0196
     9.0700   9.2340   9.2725   9.3276   9.4238   9.4509   9.4670   9.4721
     9.5021   9.5220   9.5309   9.5385   9.5630   9.5707   9.5795   9.6034
     9.6193   9.6786   9.7172   9.8246   9.8577   9.8764   9.9625  10.0682
    10.0965  10.1004  10.1098

          k = 0.2500-0.2165 0.0000 (256316 PWs)   bands (ev):

   -21.9216 -16.4981 -15.8499 -15.5990 -15.2434 -14.8689 -14.8118 -14.5460
   -14.2627 -13.8691 -13.7490 -13.3361 -12.9434 -12.8856 -12.6316 -12.3873
   -12.1714 -11.9394 -11.7296 -11.3143 -11.0828 -10.8686 -10.7820 -10.3049
   -10.0278  -9.8349  -9.7420  -9.1992  -8.9628  -8.7781  -8.6479  -8.4845
    -8.4024  -8.1686  -8.1077  -7.8416  -7.1147  -6.6662  -6.4008  -6.2881
    -6.2109  -6.1265  -6.0628  -5.9022  -5.7660  -5.6367  -5.3148  -5.3036
    -5.2105  -4.9307  -4.7747  -4.6061  -4.4524  -4.3527  -4.2967  -4.2777
    -4.2574  -4.2282  -3.9886  -3.9589  -3.9562  -3.9405  -3.8887  -3.8160
    -3.7701  -3.6051  -3.4706  -3.4134  -3.3517  -3.2609  -3.2205  -3.1638
    -3.1077  -3.0813  -3.0678  -3.0062  -2.9685  -2.9214  -2.8688  -2.7992
    -2.7776  -2.7684  -2.7249  -2.6302  -2.5878  -2.5374  -2.5214  -2.5135
    -2.4852  -2.3811  -2.3435  -2.2969  -2.1917  -2.0679  -1.9936  -1.9329
    -1.9215  -1.8980  -1.7931  -1.7780  -1.7749  -1.7708  -1.7418  -1.7222
    -1.6697  -1.6395  -1.6168  -1.6121  -1.5802  -1.5703  -1.5466  -1.4538
    -1.4416  -1.4318  -1.4189  -1.4184  -1.3815  -1.3623  -1.3379  -1.3235
    -1.3145  -1.3116  -1.3058  -1.2928  -1.2863  -1.2839  -1.2827  -1.2794
    -1.2716  -1.2578  -1.1874  -1.1871  -1.1160  -1.0796  -1.0737  -1.0564
    -0.9833  -0.9673  -0.9488  -0.9344  -0.9317  -0.9013  -0.8814  -0.8809
    -0.8704  -0.8681  -0.8641  -0.8572  -0.8511  -0.8433  -0.8323  -0.8317
    -0.8268  -0.8226  -0.8173  -0.8158  -0.8119  -0.7987  -0.7927  -0.7881
    -0.7826  -0.7757  -0.7437  -0.7413  -0.7369  -0.7290  -0.7285  -0.7184
    -0.7168  -0.6997  -0.6906  -0.6821  -0.6540  -0.6461  -0.6451  -0.6411
    -0.6329  -0.6317  -0.6171  -0.6047  -0.6009  -0.5992  -0.5809  -0.5799
    -0.5686  -0.5661  -0.5656  -0.5623  -0.5596  -0.5451  -0.5367  -0.5321
    -0.5287  -0.5134  -0.5101  -0.4792  -0.4720  -0.4702  -0.4659  -0.4623
    -0.4057  -0.3941  -0.3822  -0.3800  -0.3776  -0.3771  -0.3753  -0.3446
    -0.3305  -0.3217  -0.3205  -0.3105  -0.3099  -0.3055  -0.3008  -0.2697
    -0.2625  -0.2274  -0.2251  -0.2156  -0.1977  -0.1761  -0.1743  -0.1702
    -0.1678  -0.1588  -0.1556  -0.1472  -0.1389  -0.1373  -0.1301  -0.1250
    -0.1126  -0.1066  -0.1017  -0.0926  -0.0879  -0.0751  -0.0671  -0.0525
    -0.0490  -0.0488  -0.0290  -0.0228  -0.0192  -0.0105  -0.0036   0.0049
     0.0076   0.0164   0.0242   0.0254   0.0309   0.0324   0.0332   0.0391
     0.0419   0.0552   0.0583   0.0595   0.0687   0.0751   0.0798   0.1025
     0.1093   0.1143   0.1193   0.1347   0.1383   0.1428   0.1556   0.1593
     0.1642   0.1698   0.1778   0.1818   0.1829   0.2033   0.2127   0.2219
     0.2418   0.2429   0.2643   0.2765   0.2808   0.2852   0.2862   0.2884
     0.3011   0.3041   0.3096   0.3202   0.3222   0.3272   0.3290   0.3332
     0.3419   0.3453   0.3483   0.3541   0.3601   0.3739   0.3777   0.3824
     0.3849   0.3888   0.3906   0.3928   0.3933   0.3945   0.3980   0.4015
     0.4097   0.4139   0.4214   0.4234   0.4264   0.4331   0.4450   0.4541
     0.4606   0.4631   0.4668   0.4710   0.4837   0.4892   0.4967   0.5168
     0.5195   0.5273   0.5289   0.5358   0.5396   0.5405   0.5497   0.5522
     0.5573   0.5666   0.5697   0.5746   0.5864   0.6004   0.6341   0.6448
     0.6553   0.6655   0.6708   0.6732   0.6767   0.6776   0.6802   0.6829
     0.6855   0.6872   0.6945   0.7018   0.7058   0.7112   0.7130   0.7150
     0.7165   0.7222   0.7282   0.7302   0.7434   0.7516   0.7595   0.7628
     0.7693   0.7746   0.7867   0.7900   0.7964   0.8073   0.8144   0.8269
     0.8354   0.8436   0.8478   0.8513   0.8533   0.8562   0.8598   0.8631
     0.8671   0.8684   0.8719   0.8763   0.8777   0.8914   0.8962   0.9066
     0.9083   0.9174   0.9210   0.9344   0.9495   0.9566   0.9602   0.9620
     0.9674   0.9758   0.9871   0.9932   0.9945   0.9984   1.0024   1.0059
     1.0068   1.0114   1.0135   1.0161   1.0193   1.0361   1.0403   1.0451
     1.0457   1.0519   1.0543   1.0597   1.0606   1.0617   1.0671   1.0724
     1.0754   1.0771   1.0815   1.0893   1.0917   1.0941   1.0966   1.0991
     1.1043   1.1049   1.1089   1.1108   1.1122   1.1231   1.1435   1.1502
     1.1569   1.1580   1.1602   1.1627   1.1882   1.1961   1.1994   1.2107
     1.2135   1.2179   1.2197   1.2209   1.2226   1.2372   1.2380   1.2453
     1.2468   1.2472   1.2486   1.2498   1.2564   1.2581   1.2725   1.2768
     1.2817   1.2863   1.2910   1.2988   1.3153   1.3177   1.3213   1.3296
     1.3336   1.3444   1.3495   1.3548   1.3579   1.3604   1.3618   1.3665
     1.3686   1.3741   1.3794   1.3895   1.3914   1.3950   1.4081   1.4119
     1.4135   1.4216   1.4296   1.4432   1.4500   1.4578   1.4675   1.4748
     1.4771   1.4792   1.4813   1.4824   1.4832   1.4842   1.4853   1.4877
     1.4946   1.4970   1.4999   1.5080   1.5116   1.5149   1.5206   1.5277
     1.5425   1.5480   1.5528   1.5555   1.5587   1.5648   1.5665   1.5696
     1.5707   1.5756   1.5797   1.5812   1.5839   1.5856   1.5876   1.5897
     1.5931   1.5945   1.5962   1.6010   1.6046   1.6101   1.6119   1.6149
     1.6157   1.6217   1.6258   1.6359   1.6376   1.6546   1.6580   1.6638
     1.6673   1.6727   1.6740   1.6816   1.6852   1.6877   1.6928   1.7002
     1.7026   1.7056   1.7119   1.7135   1.7163   1.7200   1.7247   1.7326
     1.7346   1.7373   1.7382   1.7421   1.7461   1.7499   1.7557   1.7596
     1.7658   1.7739   1.7747   1.7758   1.7771   1.7794   1.7842   1.7866
     1.7889   1.7903   1.7938   1.7995   1.8031   1.8046   1.8077   1.8169
     1.8258   1.8278   1.8293   1.8307   1.8322   1.8335   1.8345   1.8371
     1.8447   1.8472   1.8497   1.8576   1.8709   1.8713   1.8818   1.8832
     1.8865   1.8929   1.8975   1.9065   1.9082   1.9171   1.9208   1.9389
     1.9423   1.9445   1.9502   1.9532   1.9721   1.9756   2.0028   2.0474
     2.0638   2.0742   2.1157   2.1302   2.1486   2.1517   2.1549   2.1692
     2.1709   2.1767   2.1914   2.2232   2.2519   2.4272   2.5014   2.5181
     2.5293   2.5495   2.5991   2.6774   2.7358   2.9749   2.9757   3.1578
     3.1732   3.1774   3.1810   3.1843   3.1960   3.2097   3.2954   3.3650
     3.3719   3.4596   3.5436   3.8887   3.9235   3.9553   3.9852   4.0202
     4.0705   4.1750   4.2183   4.2308   4.2378   4.3090   4.3748   4.4194
     4.4640   4.4787   4.5528   4.5605   4.7444   4.7600   4.7671   4.8444
     4.9101   4.9541   4.9834   5.0263   5.0531   5.0601   5.2694   5.3092
     5.3443   5.3721   5.4578   5.5180   5.6317   5.6808   5.7254   5.8064
     5.8140   5.8221   5.8393   5.9664   6.0453   6.1433   6.1521   6.2396
     6.2997   6.3348   6.3434   6.3987   6.4586   6.9085   6.9574   6.9743
     6.9909   7.0799   7.1310   7.1759   7.2377   7.2673   7.3201   7.3841
     7.3979   7.4243   7.4631   7.4699   7.5460   7.5971   7.6019   7.6226
     7.6711   7.6859   7.7076   7.7122   7.7365   7.7993   7.8063   7.8693
     7.9245   8.0386   8.0465   8.1493   8.2035   8.2947   8.3012   8.3189
     8.4672   8.5535   8.5745   8.5853   8.6189   8.6682   8.6787   8.7086
     8.7815   8.8995   8.9499   8.9660   8.9855   9.0147   9.0268   9.0616
     9.0701   9.0888   9.1140   9.1855   9.2647   9.2888   9.3554   9.3626
     9.3870   9.4144   9.4697   9.4934   9.5261   9.5575   9.5898   9.5980
     9.6257   9.6326   9.6441   9.6981   9.7157   9.7281   9.7376   9.7918
     9.8883   9.9824  10.0314

          k =-0.5000 0.0000 0.0000 (256496 PWs)   bands (ev):

   -21.9208 -16.5962 -15.4582 -15.4364 -15.3309 -15.2203 -14.7847 -14.7173
   -14.3629 -14.1541 -13.8142 -13.4771 -12.6917 -12.4258 -12.3418 -12.3268
   -11.6345 -11.6126 -11.4768 -11.4663 -11.0469 -11.0065 -10.7936 -10.5669
   -10.3428 -10.2380 -10.0755  -9.4610  -9.2834  -9.1641  -8.9231  -8.6398
    -8.5938  -7.8769  -7.6528  -7.3753  -7.1425  -7.0787  -7.0200  -6.6838
    -6.3701  -5.9260  -5.6963  -4.9321  -4.9160  -4.9032  -4.7686  -4.6732
    -4.6249  -4.4866  -4.4275  -4.4145  -4.4124  -4.4052  -4.4006  -4.3882
    -4.3542  -4.3065  -4.2503  -4.2273  -4.0786  -4.0457  -3.9893  -3.9534
    -3.7317  -3.6585  -3.6546  -3.6062  -3.5360  -3.4922  -3.3754  -3.3103
    -3.2013  -3.1911  -3.1596  -3.1266  -3.1076  -3.0851  -3.0437  -3.0341
    -3.0308  -3.0278  -3.0215  -2.9055  -2.6755  -2.5648  -2.5573  -2.4925
    -2.4434  -2.4162  -2.3710  -2.2953  -2.2218  -2.2181  -2.1678  -2.0947
    -2.0835  -1.9933  -1.9156  -1.9122  -1.9113  -1.7955  -1.5567  -1.4873
    -1.4858  -1.4852  -1.4833  -1.4805  -1.4772  -1.4593  -1.4397  -1.3798
    -1.3658  -1.3639  -1.3545  -1.2604  -1.2592  -1.2561  -1.2495  -1.2164
    -1.2088  -1.2069  -1.2057  -1.2027  -1.1697  -1.1501  -1.1175  -1.1030
    -1.0953  -1.0937  -1.0383  -1.0359  -1.0326  -1.0242  -1.0158  -1.0100
    -1.0088  -0.9638  -0.9621  -0.9609  -0.9603  -0.9536  -0.9533  -0.9499
    -0.9490  -0.9442  -0.9044  -0.8985  -0.8983  -0.8974  -0.8770  -0.8759
    -0.8724  -0.8719  -0.8504  -0.8221  -0.8081  -0.8050  -0.7903  -0.7879
    -0.7864  -0.7853  -0.7775  -0.7681  -0.7639  -0.7619  -0.7591  -0.7324
    -0.7161  -0.7140  -0.7121  -0.7117  -0.7087  -0.7064  -0.6899  -0.6881
    -0.6616  -0.6586  -0.6574  -0.6313  -0.6187  -0.6075  -0.5870  -0.5847
    -0.5829  -0.5824  -0.5660  -0.5633  -0.5603  -0.5597  -0.5567  -0.5473
    -0.5369  -0.5355  -0.5341  -0.5316  -0.5242  -0.5172  -0.5095  -0.4874
    -0.4543  -0.4479  -0.4468  -0.4318  -0.4058  -0.3993  -0.3555  -0.3206
    -0.3180  -0.3159  -0.3153  -0.3054  -0.2989  -0.2870  -0.2840  -0.2824
    -0.2792  -0.2770  -0.2707  -0.2456  -0.2381  -0.2367  -0.2351  -0.2271
    -0.2202  -0.2143  -0.2067  -0.2025  -0.1861  -0.1590  -0.1529  -0.1389
    -0.1302  -0.0951  -0.0776  -0.0764  -0.0745  -0.0628  -0.0493  -0.0328
    -0.0259  -0.0209  -0.0163  -0.0140  -0.0121  -0.0107  -0.0085   0.0232
     0.0250   0.0258   0.0260   0.0359   0.0483   0.0523   0.0612   0.0620
     0.0643   0.0933   0.0965   0.0997   0.1006   0.1080   0.1115   0.1229
     0.1327   0.1405   0.1437   0.1449   0.1451   0.1467   0.1514   0.1777
     0.1803   0.1919   0.1950   0.2420   0.2500   0.2545   0.2582   0.2614
     0.2619   0.2657   0.2668   0.2896   0.2952   0.3022   0.3041   0.3091
     0.3398   0.3507   0.3556   0.3646   0.3668   0.3687   0.3704   0.3710
     0.3723   0.3732   0.3748   0.3754   0.3797   0.3897   0.4067   0.4253
     0.4278   0.4405   0.4482   0.4518   0.4551   0.4580   0.4642   0.4656
     0.4676   0.4699   0.4712   0.4741   0.4756   0.4783   0.4818   0.4885
     0.4921   0.4970   0.4972   0.5092   0.5102   0.5103   0.5105   0.5109
     0.5174   0.5198   0.5219   0.5222   0.5226   0.5303   0.5355   0.5399
     0.5453   0.5458   0.5472   0.5517   0.5571   0.5663   0.5774   0.6015
     0.6172   0.6364   0.6535   0.6661   0.6798   0.6855   0.7050   0.7080
     0.7142   0.7148   0.7169   0.7238   0.7271   0.7292   0.7314   0.7340
     0.7377   0.7404   0.7410   0.7423   0.7459   0.7464   0.7489   0.7495
     0.7532   0.7565   0.7572   0.7639   0.7640   0.7724   0.7821   0.7834
     0.7873   0.7901   0.7916   0.8010   0.8023   0.8134   0.8549   0.8568
     0.8791   0.8874   0.8896   0.8913   0.9017   0.9057   0.9118   0.9138
     0.9148   0.9192   0.9197   0.9212   0.9225   0.9239   0.9246   0.9262
     0.9271   0.9310   0.9321   0.9327   0.9353   0.9391   0.9506   0.9570
     0.9715   0.9749   0.9767   0.9819   0.9866   0.9935   0.9970   1.0051
     1.0125   1.0174   1.0183   1.0223   1.0236   1.0247   1.0271   1.0359
     1.0370   1.0408   1.0423   1.0515   1.0565   1.0567   1.0584   1.0807
     1.0918   1.1001   1.1013   1.1019   1.1033   1.1089   1.1153   1.1161
     1.1295   1.1371   1.1421   1.1444   1.1511   1.1530   1.1586   1.1590
     1.1796   1.1948   1.2126   1.2250   1.2295   1.2323   1.2331   1.2333
     1.2351   1.2366   1.2394   1.2427   1.2448   1.2461   1.2566   1.2590
     1.2691   1.2745   1.2776   1.2797   1.2807   1.2826   1.2952   1.2981
     1.2999   1.3006   1.3019   1.3118   1.3304   1.3330   1.3374   1.3395
     1.3428   1.3700   1.3929   1.4023   1.4068   1.4089   1.4115   1.4147
     1.4256   1.4330   1.4364   1.4440   1.4491   1.4559   1.4579   1.4672
     1.4689   1.4717   1.4778   1.4809   1.4925   1.4951   1.5055   1.5077
     1.5094   1.5116   1.5135   1.5151   1.5162   1.5193   1.5254   1.5260
     1.5269   1.5280   1.5284   1.5309   1.5324   1.5551   1.5599   1.5673
     1.5702   1.5707   1.5811   1.5895   1.5905   1.5960   1.5988   1.6023
     1.6048   1.6120   1.6176   1.6201   1.6292   1.6325   1.6347   1.6353
     1.6360   1.6396   1.6413   1.6427   1.6450   1.6475   1.6509   1.6614
     1.6626   1.6848   1.6888   1.6954   1.6985   1.7038   1.7070   1.7084
     1.7092   1.7110   1.7127   1.7130   1.7141   1.7162   1.7203   1.7206
     1.7223   1.7236   1.7242   1.7249   1.7260   1.7273   1.7284   1.7325
     1.7387   1.7404   1.7421   1.7550   1.7576   1.7648   1.7688   1.7711
     1.7731   1.7762   1.7809   1.7818   1.7864   1.8020   1.8083   1.8092
     1.8104   1.8120   1.8197   1.8245   1.8279   1.8287   1.8365   1.8379
     1.8399   1.8417   1.8454   1.8536   1.8575   1.8599   1.8633   1.8664
     1.8682   1.8701   1.8720   1.8726   1.8860   1.8887   1.9004   1.9061
     1.9071   1.9073   1.9075   1.9086   1.9115   1.9161   1.9512   1.9629
     1.9669   1.9742   1.9970   1.9987   2.0019   2.0028   2.0062   2.1108
     2.2237   2.4070   2.4198   2.4220   2.4935   2.6185   2.6238   2.6337
     2.6740   2.6771   2.6822   2.6835   2.7518   2.9758   2.9972   3.0025
     3.1785   3.2118   3.2197   3.2229   3.3059   3.5724   3.5752   3.5782
     3.5865   3.8485   3.8582   4.0549   4.1193   4.1337   4.1685   4.2389
     4.2971   4.3059   4.3076   4.3755   4.4432   4.4537   4.4646   4.4775
     4.5302   4.6417   4.7128   5.0246   5.0545   5.0826   5.1099   5.1418
     5.1849   5.2065   5.2232   5.2597   5.2793   5.3019   5.4050   5.4116
     5.4120   5.4224   5.4329   5.4359   5.4415   5.4538   5.4684   5.4911
     5.5325   5.6128   5.7774   5.8491   5.8783   5.9093   5.9438   6.0228
     6.1066   6.1330   6.2732   6.3350   6.3663   6.3837   6.3861   6.3957
     6.4034   6.4698   6.5382   6.6301   6.6590   6.7502   6.7844   6.8015
     6.8144   7.0687   7.3959   7.4513   7.4721   7.4828   7.4942   7.5926
     7.6209   7.8595   7.9522   7.9724   7.9735   7.9745   7.9839   7.9951
     8.0085   8.0421   8.0936   8.1810   8.2046   8.2156   8.2540   8.2624
     8.2739   8.3409   8.4213   8.4343   8.4372   8.4640   8.4739   8.4811
     8.4950   8.5364   8.5471   8.5520   8.7025   8.7070   8.9218   9.1754
     9.1840   9.1847   9.2001   9.2259   9.2304   9.2325   9.2461   9.3068
     9.4003   9.4060   9.4388   9.4673   9.5079   9.5210   9.5686   9.6036
     9.6379   9.6656   9.7183   9.7720   9.8776   9.8867   9.9035   9.9050
     9.9256   9.9497   9.9581

          k =-0.5000-0.2165 0.0000 (256328 PWs)   bands (ev):

   -21.9208 -16.5960 -15.5037 -15.4620 -15.2095 -15.1513 -14.9446 -14.7780
   -14.3149 -14.1351 -13.6065 -13.3551 -13.1684 -12.8974 -11.7621 -11.7103
   -11.6619 -11.6004 -11.4532 -11.3034 -11.2470 -11.2366 -11.0991 -11.0763
   -10.2454 -10.0658  -9.9202  -9.4161  -9.3314  -8.8917  -8.6240  -8.4924
    -8.3647  -8.2927  -8.1501  -7.6920  -7.6722  -7.0700  -6.6527  -6.1248
    -5.8845  -5.5968  -5.5470  -5.2910  -5.1714  -4.9756  -4.9290  -4.8044
    -4.7907  -4.7900  -4.7777  -4.7017  -4.6782  -4.6704  -4.2879  -4.0803
    -4.0079  -3.9706  -3.9528  -3.9197  -3.9105  -3.8315  -3.8111  -3.8072
    -3.8029  -3.7697  -3.6903  -3.6404  -3.5247  -3.5011  -3.4971  -3.4858
    -3.4193  -3.4048  -3.3689  -3.2639  -3.2480  -3.2248  -3.2030  -3.1206
    -2.9724  -2.8428  -2.7562  -2.6974  -2.6698  -2.5991  -2.3181  -2.2941
    -2.2486  -2.1881  -2.1871  -2.1846  -2.1756  -2.1386  -2.1362  -2.1348
    -2.1278  -2.0302  -1.8391  -1.7684  -1.7309  -1.7228  -1.7153  -1.6980
    -1.6893  -1.6776  -1.6609  -1.6329  -1.6263  -1.6245  -1.5564  -1.4308
    -1.4093  -1.4088  -1.4068  -1.4055  -1.3874  -1.3238  -1.1910  -1.1712
    -1.1322  -1.1142  -1.1001  -1.0994  -1.0971  -1.0966  -1.0739  -1.0639
    -1.0628  -1.0517  -1.0410  -1.0394  -1.0392  -1.0375  -0.9956  -0.9939
    -0.9902  -0.9874  -0.9870  -0.9867  -0.9838  -0.9817  -0.9640  -0.9632
    -0.9625  -0.9621  -0.9241  -0.9139  -0.9131  -0.9125  -0.8995  -0.8560
    -0.8496  -0.8435  -0.8415  -0.7983  -0.7948  -0.7946  -0.7942  -0.7895
    -0.7804  -0.7796  -0.7767  -0.7571  -0.7433  -0.7316  -0.7289  -0.7274
    -0.7262  -0.7228  -0.7212  -0.7208  -0.7177  -0.7096  -0.7057  -0.6952
    -0.6906  -0.6756  -0.6646  -0.6622  -0.6606  -0.6580  -0.6484  -0.6459
    -0.6444  -0.6440  -0.6426  -0.6416  -0.6407  -0.6398  -0.5251  -0.4967
    -0.4954  -0.4881  -0.4679  -0.4584  -0.4572  -0.4568  -0.4461  -0.4047
    -0.3921  -0.3808  -0.3798  -0.3767  -0.3758  -0.3745  -0.3738  -0.3685
    -0.3665  -0.3637  -0.3374  -0.3160  -0.3070  -0.3056  -0.3028  -0.3021
    -0.2995  -0.2949  -0.2856  -0.2781  -0.2736  -0.2717  -0.2685  -0.2288
    -0.1850  -0.1800  -0.1785  -0.1771  -0.1752  -0.1608  -0.1523  -0.1117
    -0.1060  -0.1048  -0.1035  -0.0673  -0.0599  -0.0567  -0.0530  -0.0518
    -0.0354  -0.0344  -0.0335  -0.0305  -0.0234  -0.0088  -0.0058  -0.0004
     0.0019   0.0040   0.0069   0.0204   0.0251   0.0430   0.0549   0.1156
     0.1212   0.1220   0.1225   0.1329   0.1361   0.1367   0.1377   0.1488
     0.1505   0.1542   0.1549   0.2028   0.2202   0.2265   0.2304   0.2336
     0.2369   0.2380   0.2401   0.2416   0.2430   0.2452   0.2489   0.2777
     0.2813   0.2824   0.2828   0.2829   0.2914   0.2937   0.2943   0.2949
     0.2955   0.2962   0.2987   0.2995   0.3405   0.3521   0.3576   0.3690
     0.3767   0.3845   0.3912   0.3928   0.3987   0.4044   0.4255   0.4335
     0.4437   0.4500   0.4509   0.4562   0.4661   0.4678   0.4709   0.4733
     0.4754   0.4768   0.4771   0.4810   0.4827   0.4867   0.4872   0.4913
     0.4930   0.4948   0.4999   0.5004   0.5005   0.5014   0.5046   0.5142
     0.5150   0.5178   0.5212   0.5360   0.5413   0.5430   0.5443   0.5452
     0.5507   0.5523   0.5552   0.5590   0.5799   0.6043   0.6055   0.6059
     0.6074   0.6286   0.6365   0.6398   0.6409   0.6539   0.6759   0.6898
     0.6902   0.7032   0.7055   0.7135   0.7199   0.7216   0.7267   0.7311
     0.7357   0.7363   0.7422   0.7434   0.7472   0.7496   0.7560   0.7562
     0.7581   0.7597   0.7603   0.7612   0.7637   0.7667   0.7673   0.7707
     0.7752   0.7980   0.8159   0.8183   0.8248   0.8390   0.8454   0.8495
     0.8553   0.8561   0.8573   0.8585   0.8592   0.8838   0.8912   0.8925
     0.8975   0.8997   0.9020   0.9028   0.9041   0.9111   0.9198   0.9321
     0.9359   0.9417   0.9470   0.9479   0.9503   0.9532   0.9591   0.9617
     0.9632   0.9649   0.9660   0.9689   0.9705   0.9743   0.9773   0.9793
     0.9807   0.9861   0.9906   0.9934   0.9954   1.0318   1.0385   1.0465
     1.0552   1.0685   1.0703   1.0726   1.0758   1.0762   1.0781   1.0783
     1.0789   1.0821   1.0832   1.0865   1.0963   1.1096   1.1141   1.1185
     1.1203   1.1213   1.1221   1.1226   1.1235   1.1388   1.1641   1.1687
     1.1764   1.1795   1.1875   1.1989   1.2001   1.2055   1.2070   1.2083
     1.2146   1.2262   1.2380   1.2405   1.2408   1.2577   1.2631   1.2671
     1.2737   1.3070   1.3117   1.3164   1.3198   1.3215   1.3346   1.3392
     1.3440   1.3483   1.3651   1.3834   1.3905   1.4001   1.4027   1.4058
[...]
     atom   15 type  1   force =     0.00000704   -0.00005571    0.00008302
     atom   16 type  1   force =    -0.00000731    0.00000455    0.00001626
     atom   17 type  1   force =     0.00000387   -0.00007136    0.00019974
     atom   18 type  1   force =    -0.00001738   -0.00003787    0.00016033
     atom   19 type  1   force =    -0.00001340    0.00004113    0.00006932
     atom   20 type  1   force =     0.00000909   -0.00002729    0.00013347
     atom   21 type  1   force =    -0.00003580   -0.00018939   -0.00017341
     atom   22 type  1   force =    -0.00003477   -0.00014698   -0.00010026
     atom   23 type  1   force =     0.00003322   -0.00077376   -0.00082999
     atom   24 type  1   force =     0.00002972   -0.00009100   -0.00003927
     atom   25 type  1   force =     0.00005321   -0.00044594   -0.00077906
     atom   26 type  1   force =    -0.00016904   -0.00053882   -0.00074289
     atom   27 type  1   force =     0.00007866   -0.00017356   -0.00041506
     atom   28 type  1   force =     0.00021541   -0.00057843   -0.00082746
     atom   29 type  1   force =     0.00008758    0.00051121   -0.00099472
     atom   30 type  1   force =     0.00013364   -0.00000537   -0.00059679
     atom   31 type  1   force =     0.00006952    0.00010479   -0.00035788
     atom   32 type  1   force =    -0.00010723   -0.00003004   -0.00031840
     atom   33 type  1   force =     0.00001359   -0.00006975    0.00015591
     atom   34 type  1   force =    -0.00029651    0.00051145   -0.00080207
     atom   35 type  1   force =    -0.00001221    0.00103158   -0.00109228
     atom   36 type  1   force =     0.00035068    0.00053810   -0.00082789
     atom   37 type  1   force =     0.00000259   -0.00005892    0.00008751
     atom   38 type  1   force =    -0.00006390   -0.00010055    0.00017260
     atom   39 type  1   force =    -0.00000941   -0.00007141    0.00000378
     atom   40 type  1   force =     0.00005477   -0.00003559    0.00007581
     atom   41 type  1   force =    -0.00001918   -0.00024005   -0.00013163
     atom   42 type  1   force =    -0.00025443   -0.00174199   -0.00160190
     atom   43 type  1   force =     0.00005120   -0.00034548   -0.00026272
     atom   44 type  1   force =     0.00034008   -0.00101365   -0.00075623
     atom   45 type  1   force =    -0.00015054   -0.00135604   -0.00137753
     atom   46 type  1   force =    -0.00046543   -0.00093855   -0.00208716
     atom   47 type  1   force =     0.00030677   -0.00426842   -0.00497781
     atom   48 type  1   force =     0.00039784   -0.00320012   -0.00395225
     atom   49 type  1   force =     0.00336222    0.00052695   -0.00548606
     atom   50 type  1   force =    -0.00147986    0.00157919   -0.00279566
     atom   51 type  1   force =     0.00010890   -0.00006964    0.00059273
     atom   52 type  1   force =     0.00145048    0.00332487   -0.00419479
     atom   53 type  1   force =     0.00020809    0.00046274    0.00006800
     atom   54 type  1   force =    -0.00053448    0.00009029    0.00029776
     atom   55 type  1   force =     0.00003269    0.00731442   -0.00799746
     atom   56 type  1   force =     0.00061958    0.00048137   -0.00009906
     atom   57 type  1   force =     0.00005007   -0.00009637    0.00007996
     atom   58 type  1   force =    -0.00000790   -0.00002563    0.00002520
     atom   59 type  1   force =    -0.00003309    0.00006585   -0.00016932
     atom   60 type  1   force =     0.00002014   -0.00005763    0.00000011
     atom   61 type  1   force =    -0.00027169   -0.00153680   -0.00057287
     atom   62 type  1   force =     0.00003355   -0.00020612   -0.00005559
     atom   63 type  1   force =     0.00050597   -0.00116152   -0.00044139
     atom   64 type  1   force =     0.00010634   -0.00028926   -0.00009462
     atom   65 type  1   force =     0.00138143   -0.00382542   -0.00301399
     atom   66 type  1   force =    -0.00120669   -0.00608894   -0.00526495
     atom   67 type  1   force =     0.00106244    0.00378171    0.00085518
     atom   68 type  1   force =     0.00104357   -0.00311227   -0.00219103
     atom   69 type  1   force =     0.00317977    0.00281905    0.00107943
     atom   70 type  1   force =     0.00381890    0.00119279    0.00046898
     atom   71 type  1   force =     0.00102099   -0.00130943   -0.00350952
     atom   72 type  1   force =     0.00031266    0.00100617   -0.00400980
     atom   73 type  1   force =     0.00035871    0.00019069    0.00018574
     atom   74 type  1   force =    -0.00247857    0.00135692    0.00194388
     atom   75 type  1   force =     0.00002437    0.00030689   -0.00052712
     atom   76 type  1   force =     0.00297584    0.00195860   -0.00020223
     atom   77 type  1   force =     0.00006665   -0.00001486   -0.00009350
     atom   78 type  1   force =     0.00001011    0.00004479   -0.00007166
     atom   79 type  1   force =     0.00001928   -0.00006202   -0.00004683
     atom   80 type  1   force =     0.00013075   -0.00007155   -0.00003320
     atom   81 type  1   force =     0.00010153   -0.00028771    0.00006638
     atom   82 type  1   force =     0.00046162   -0.00063030    0.00050324
     atom   83 type  1   force =     0.00008161   -0.00013990   -0.00006951
     atom   84 type  1   force =    -0.00038590   -0.00097500    0.00029878
     atom   85 type  1   force =    -0.00097390   -0.00486257    0.00072618
     atom   86 type  1   force =    -0.00311533   -0.00172764   -0.00287494
     atom   87 type  1   force =     0.00014517   -0.00077804   -0.00002799
     atom   88 type  1   force =     0.00126916   -0.00074439   -0.00399855
     atom   89 type  1   force =    -0.00152174    0.00073500   -0.00158936
     atom   90 type  1   force =     0.00658751   -0.00283390   -0.00061267
     atom   91 type  1   force =     0.01166653    0.01489317   -0.01378587
     atom   92 type  1   force =     0.00294934    0.00343049    0.00055000
     atom   93 type  1   force =     0.00450564   -0.00024893    0.00212397
     atom   94 type  1   force =     0.00025854    0.00073555    0.00032695
     atom   95 type  1   force =     0.00053031    0.00032837    0.00058087
     atom   96 type  1   force =     0.00130232    0.00001198    0.00039917
     atom   97 type  1   force =     0.00017195    0.00033141   -0.00025874
     atom   98 type  1   force =     0.00022011   -0.00009850   -0.00011291
     atom   99 type  1   force =     0.00031360   -0.00011078   -0.00017960
     atom  100 type  1   force =    -0.00002646   -0.00006424   -0.00012606
     atom  101 type  2   force =    -0.00024206    0.01094106   -0.00367565
     atom  102 type  2   force =    -0.00428012   -0.00533092   -0.00167798
     atom  103 type  2   force =    -0.00148417    0.00682500   -0.00104943
     atom  104 type  2   force =    -0.00537276    0.00329792    0.00677083
     atom  105 type  2   force =     0.00073650    0.01008061   -0.00383851
     atom  106 type  2   force =    -0.00370472   -0.00279327    0.00221784
     atom  107 type  2   force =     0.00136774    0.00805018   -0.00057714
     atom  108 type  2   force =     0.00527255    0.00526259    0.01446087
     atom  109 type  2   force =     0.00012651    0.01207819   -0.00353076
     atom  110 type  2   force =     0.00224953   -0.00274792   -0.00152125
     atom  111 type  2   force =    -0.00025449    0.00930340   -0.00221389
     atom  112 type  2   force =     0.00385881    0.00696150   -0.00179023
     atom  113 type  2   force =    -0.00306524    0.00035100    0.02172970
     atom  114 type  2   force =    -0.00413003   -0.00290948    0.01441538
     atom  115 type  2   force =    -0.00893829   -0.00523837    0.00071331
     atom  116 type  2   force =    -0.00252514    0.00125786    0.00394720
     atom  117 type  2   force =    -0.00220903   -0.00187872    0.00383878
     atom  118 type  2   force =     0.01883358    0.01035107   -0.01093647
     atom  119 type  2   force =    -0.00330640   -0.00656301    0.00538463
     atom  120 type  2   force =    -0.01903300   -0.01690067   -0.02891812
     atom  121 type  2   force =    -0.01742677    0.02595125    0.01149340
     atom  122 type  3   force =     0.01430623   -0.03287542    0.00603995
     atom  123 type  3   force =     0.00402321    0.01560994    0.02533779
     atom  124 type  2   force =     0.00220044    0.00278016   -0.00134027
     atom  125 type  2   force =    -0.00125630   -0.00430579   -0.01825073
     atom  126 type  2   force =    -0.00154502   -0.00764670    0.01361947
     atom  127 type  2   force =    -0.00079776    0.00078959    0.00254528
     atom  128 type  2   force =     0.00174387   -0.00184442    0.01389400
     atom  129 type  2   force =    -0.00452454   -0.00210972   -0.00330334
     atom  130 type  2   force =    -0.00718556    0.00157169    0.00035626
     atom  131 type  2   force =     0.00046908    0.00048751   -0.00197299
     atom  132 type  2   force =     0.00216368   -0.00635910    0.00635114
     atom  133 type  2   force =    -0.00448332   -0.00485100    0.01168650
     atom  134 type  2   force =    -0.00165011    0.00486579   -0.01663399
     atom  135 type  2   force =    -0.00157420   -0.00094847    0.00111961
     atom  136 type  2   force =    -0.00042857   -0.00705657   -0.00285119
     atom  137 type  2   force =     0.00379505   -0.00154402    0.00678349
     atom  138 type  2   force =     0.00238219    0.00165734    0.01315004
     atom  139 type  2   force =    -0.00074132    0.00133459   -0.00155258
     atom  140 type  2   force =     0.00008551    0.00285255   -0.00118133
     atom  141 type  2   force =     0.00060040    0.00230341    0.00035614
     atom  142 type  2   force =     0.00158046   -0.01596720   -0.00220340
     atom  143 type  2   force =    -0.00193135    0.00118332    0.00096104
     atom  144 type  2   force =    -0.00485461    0.00254640   -0.00000514
     atom  145 type  2   force =    -0.00088216    0.00027901    0.00089460
     atom  146 type  2   force =     0.00018133   -0.01158168   -0.00299322
     atom  147 type  2   force =     0.00117090    0.00170049    0.00094756
     atom  148 type  2   force =     0.00190441    0.00576549   -0.00031937
     atom  149 type  2   force =     0.00045521   -0.00028554    0.00089964
     atom  150 type  2   force =    -0.00231649   -0.01717319   -0.00246437
     atom  151 type  2   force =    -0.00042099    0.00119231    0.00054530

     Total force =     0.106422     Total SCF correction =     0.000281

     number of scf cycles    =   8
     number of bfgs steps    =   7

     energy   old            =  -12712.3411426924 Ry
     energy   new            =  -12712.3559954539 Ry

     CASE: energy  _new < energy  _old

     new trust radius        =       0.1062599484 bohr
     new conv_thr            =       0.0000000100 Ry


ATOMIC_POSITIONS (angstrom)
Cu      -0.000026137   0.001120548   7.361139949
Cu       1.844472513   1.703780812   7.360299224
Cu       3.688897042   0.000602059   7.360618235
Cu       5.533460247   1.704125142   7.360896208
Cu      -0.000063748   3.407248109   7.360103182
Cu       1.844833053   5.111780291   7.360073954
Cu       3.689039001   3.407889111   7.360781105
Cu       5.533370997   5.111502533   7.359818515
Cu       0.000151726   6.815556448   7.358795228
Cu       1.845098991   8.519117715   7.359889974
Cu       3.688812694   6.815320083   7.359989307
Cu       5.533067158   8.519303755   7.359769098
Cu      -0.000029738  10.223218373   7.360068101
Cu       1.844491801  11.926646918   7.361144778
Cu       3.688984599  10.222953099   7.361682096
Cu       5.533427225  11.926760498   7.361261251
Cu       0.000029964  13.630009581   7.361523360
Cu       1.844217312  15.335235334   7.360952894
Cu       3.688825967  13.630592797   7.360707301
Cu       5.533665634  15.334985213   7.360078207
Cu       0.000070505   1.705058145   9.195565600
Cu       1.844204350   0.001450643   9.194171117
Cu       3.688871936   1.703779352   9.192931807
Cu       5.533708238   0.000405059   9.192954969
Cu       0.000283931   5.111649848   9.189728376
Cu       1.843869624   3.406424344   9.190589054
Cu       3.689869304   5.111471332   9.192766664
Cu       5.534534745   3.407299212   9.191742634
Cu       0.000497420   8.519109215   9.189195612
Cu       1.843918062   6.815325641   9.193184975
Cu       3.689776984   8.518305620   9.193450215
Cu       5.534057393   6.815255838   9.192032703
Cu       0.000154156  11.924690858   9.195831330
Cu       1.843753882  10.222990644   9.192016376
Cu       3.688770332  11.928095624   9.192653649
Cu       5.534572279  10.222901146   9.192084578
Cu       0.000155315  15.335332036   9.192638390
Cu       1.844160712  13.629766241   9.194320678
Cu       3.688676051  15.335202934   9.191785381
Cu       5.533718301  13.630644354   9.193387095
Cu       0.000499492  -0.000922185  11.035185926
Cu       1.843979816   1.704432421  11.034836364
Cu       3.688517610  -0.001211765  11.032440909
Cu       5.534585661   1.702905787  11.032910600
Cu       0.000760749   3.409462345  11.034811150
Cu       1.841667737   5.105918141  11.019295949
Cu       3.690743956   3.395997508  11.018334407
Cu       5.539448840   5.103713110  11.020853648
Cu       0.004842645   6.817226621  11.021027422
Cu       1.837743734   8.522540648  11.021834571
Cu       3.690071432   6.813122077  11.027181869
Cu       5.544823014   8.525615910  11.020925484
Cu       0.001336480  10.217230598  11.040437306
Cu       1.842949582  11.922114654  11.038814885
Cu       3.689472014  10.242572714  11.009467544
Cu       5.535272685  11.925338312  11.034830968
Cu       0.000158672  13.631065732  11.033986712
Cu       1.844325153  15.335279851  11.034430402
Cu       3.688710760  13.632777171  11.032995201
Cu       5.533561689  15.335452463  11.034130688
Cu       0.001999695   1.702840930  12.867970193
Cu       1.845549944  -0.001665907  12.875162466
Cu       3.690261049   1.696508429  12.866984833
Cu       5.533506464  -0.001374512  12.873996337
Cu       0.007590912   5.106200578  12.859904871
Cu       1.848308625   3.388153692  12.853176035
Cu       3.688928446   5.051549013  12.805621888
Cu       5.537197921   3.396171844  12.861339649
Cu       0.023469821   8.515401035  12.900389314
Cu       1.824457455   6.816826752  12.836283290
Cu       3.686209895   8.618679305  12.752511335
Cu       5.626929967   6.815671624  12.776098685
Cu       0.002420158  11.925148897  12.872682548
Cu       1.837559555  10.209315213  12.892851985
Cu       3.688980271  11.928899438  12.861898760
Cu       5.547754751  10.221573423  12.874377733
Cu       0.000019921  15.333398695  12.877118199
Cu       1.843485103  13.631804118  12.873221967
Cu       3.689293366  15.336129708  12.876895709
Cu       5.535135611  13.631661060  12.872896373
Cu       0.001841950   0.003577911  14.686251823
Cu       1.847293218   1.703131048  14.685197330
Cu       3.689982293   0.000579008  14.698152569
Cu       5.537642822   1.700771361  14.682890291
Cu       0.000028245   3.386445496  14.683800016
Cu       1.802716810   5.026057440  14.607300335
Cu       3.699515586   3.381288775  14.693121585
Cu       5.577354382   5.060332318  14.651417871
Cu      -0.032387991   6.795876857  14.700184265
Cu       1.911980139   8.484045929  14.770488403
Cu       3.860204889   6.927250777  14.337123670
Cu       5.581821099   8.559741306  14.713660266
Cu       0.025867601  10.219870816  14.700415034
Cu       1.844063167  11.927861249  14.683116977
Cu       3.698371753  10.247424719  14.676918153
Cu       5.543960069  11.923972453  14.681104487
Cu       0.000499577  13.628825514  14.697096330
Cu       1.844663685  15.332981771  14.693105517
Cu       3.691173605  13.624258977  14.684005658
Cu       5.534720409  15.334186651  14.692734346
C       -0.001547809   0.713867660  17.607233942
C       -0.003278173   2.134414028  17.578252899
C        1.228134514   0.002849540  17.618935015
C        1.225873980   2.844326511  17.600356235
C        2.456495202   0.711324781  17.588803774
C        2.454896178   2.131777925  17.569280943
C        3.685490105  -0.001260830  17.594925579
C        3.683603937   2.857725552  17.581527058
C        4.915557671   0.713838087  17.591089722
C        4.915194336   2.135900115  17.557590635
C        6.145770213   0.004980116  17.620775900
C        6.146425952   2.847794417  17.565296364
C       -0.005972069   4.981818666  17.635994599
C       -0.017534169   6.393720866  17.725255072
C        1.219979830   4.260316326  17.713213136
C        1.193403412   7.104884100  17.892203466
C        2.430533474   4.959066708  17.925031920
C        2.385708100   6.364246396  18.103925611
C        3.679746616   4.265207289  17.782683727
C        3.622091143   7.090198957  17.622751004
C        3.191995932   6.813114722  16.063325310
H        3.847980604   5.910671781  15.827200923
H        2.157946362   6.392871735  15.913359889
C        4.920196090   4.975752802  17.767020703
C        4.921339422   6.385252643  17.788619393
C        6.145108091   4.268064507  17.590557557
C        6.121075943   7.105101870  17.694279654
C       -0.010415904   9.228472715  17.545855458
C       -0.004583980  10.656764202  17.521960264
C        1.216892695   8.525153067  17.731745967
C        1.224778773  11.377010629  17.568534669
C        2.450459088   9.252386436  17.757850041
C        2.452406129  10.669379074  17.623248619
C        3.672086942   8.555742495  17.805913413
C        3.683997524  11.380912828  17.612872609
C        4.894746388   9.242598082  17.676549442
C        4.908543355  10.667172191  17.607341752
C        6.129498345   8.525600673  17.582640927
C        6.142341166  11.370342121  17.552727383
C       -0.003212016  13.504015706  17.590849734
C       -0.002766217  14.917281849  17.620180223
C        1.227635147  12.793932215  17.593639299
C        1.227209214  15.622851962  17.620825600
C        2.457719507  13.503729752  17.621467476
C        2.458525563  14.916016600  17.620411383
C        3.686521756  12.796699535  17.616568988
C        3.687066104  15.620175919  17.621509346
C        4.916432500  13.501156591  17.620290152
C        4.916644016  14.914773158  17.622828448
C        6.144540756  12.789540983  17.587536898
C        6.146811997  15.624737152  17.623459314



     Writing output data file gc.save
     Check: negative starting charge=   -0.001858
     NEW-OLD atomic charge density approx. for the potential
     Check: negative starting charge=   -0.001855

     negative rho (up, down):  1.895E-03 0.000E+00

     total cpu time spent up to now is    41028.2 secs

     Self-consistent Calculation

     iteration #  1     ecut=    80.00 Ry     beta=0.70
     Davidson diagonalization with overlap
     ethr =  1.00E-06,  avg # of iterations = 10.7

     negative rho (up, down):  2.704E-03 0.000E+00

     total cpu time spent up to now is    41659.8 secs

     total energy              =  -12712.36840513 Ry
     Harris-Foulkes estimate   =  -12712.37635503 Ry
     estimated scf accuracy    <       0.05412577 Ry

     iteration #  2     ecut=    80.00 Ry     beta=0.70
     Davidson diagonalization with overlap
     ethr =  4.17E-06,  avg # of iterations =  2.5

     negative rho (up, down):  3.415E-03 0.000E+00

     total cpu time spent up to now is    41855.0 secs

     total energy              =  -12712.36828015 Ry
     Harris-Foulkes estimate   =  -12712.37084998 Ry
     estimated scf accuracy    <       0.01275399 Ry

     iteration #  3     ecut=    80.00 Ry     beta=0.70
     Davidson diagonalization with overlap
     ethr =  9.83E-07,  avg # of iterations =  4.0

     negative rho (up, down):  4.501E-03 0.000E+00

     total cpu time spent up to now is    42073.0 secs

     total energy              =  -12712.36826781 Ry
     Harris-Foulkes estimate   =  -12712.36978279 Ry
     estimated scf accuracy    <       0.01444597 Ry

     iteration #  4     ecut=    80.00 Ry     beta=0.70
     Davidson diagonalization with overlap
