
     Program PWSCF v.5.4.0 starts on 21Mar2017 at  8: 1:41 

     This program is part of the open-source Quantum ESPRESSO suite
     for quantum simulation of materials; please cite
         "P. Giannozzi et al., J. Phys.:Condens. Matter 21 395502 (2009);
          URL http://www.quantum-espresso.org", 
     in publications or presentations arising from this work. More details at
     http://www.quantum-espresso.org/quote

     Parallel version (MPI & OpenMP), running on      56 processor cores
     Number of MPI processes:                56
     Threads/MPI process:                     1
     R & G space division:  proc/nbgrp/npool/nimage =      56
     Waiting for input...
     Reading input from standard input

     Current dimensions of program PWSCF are:
     Max number of different atomic species (ntypx) = 10
     Max number of k-points (npk) =  40000
     Max angular momentum in pseudopotentials (lmaxx) =  3

     -------------------------------------
     Parameters for Dispersion Correction:
     -------------------------------------
       atom      VdW radius       C_6     

        Cu         2.952        374.666
        C          2.744         60.710
        H          1.892          4.857

     Subspace diagonalization in iterative solution of the eigenvalue problem:
     one sub-group per band group will be used
     scalapack distributed-memory algorithm (size of sub-group:  5*  5 procs)

 
     Parallelization info
     --------------------
     sticks:   dense  smooth     PW     G-vecs:    dense   smooth      PW
     Min         204     204     54                36612    36612    4962
     Max         205     205     55                36617    36617    4968
     Sum       11433   11433   3039              2050409  2050409  278033
 


     bravais-lattice index     =            0
     lattice parameter (alat)  =      13.9425  a.u.
     unit-cell volume          =   21209.0878 (a.u.)^3
     number of atoms/cell      =          151
     number of atomic types    =            3
     number of electrons       =      1298.00
     number of Kohn-Sham states=          779
     kinetic-energy cutoff     =      80.0000  Ry
     charge density cutoff     =     320.0000  Ry
     convergence threshold     =      1.0E-08
     mixing beta               =       0.7000
     number of iterations used =            8  local-TF  mixing
     Exchange-correlation      =  SLA  PW   PBE  PBE ( 1  4  3  4 0 0)
     nstep                     =           50


     celldm(1)=  13.942539  celldm(2)=   0.000000  celldm(3)=   0.000000
     celldm(4)=   0.000000  celldm(5)=   0.000000  celldm(6)=   0.000000

     crystal axes: (cart. coord. in units of alat)
               a(1) = (   1.000000   0.000000   0.000000 )  
               a(2) = (   0.000000   2.309401   0.000000 )  
               a(3) = (   0.000000   0.000000   3.388418 )  

     reciprocal axes: (cart. coord. in units 2 pi/alat)
               b(1) = (  1.000000  0.000000  0.000000 )  
               b(2) = (  0.000000  0.433013  0.000000 )  
               b(3) = (  0.000000  0.000000  0.295123 )  


     PseudoPot. # 1 for Cu read from file:
     /home/549/hxw549/Short/pseudopotentials/Cu.pbe-n-van_ak.UPF
     MD5 check sum: 601f7c30f7467666bec936e0661ce3e1
     Pseudo is Ultrasoft + core correction, Zval = 11.0
     Generated by new atomic code, or converted to UPF format
     Using radial grid of  867 points,  6 beta functions with: 
                l(1) =   0
                l(2) =   0
                l(3) =   1
                l(4) =   1
                l(5) =   2
                l(6) =   2
     Q(r) pseudized with  8 coefficients,  rinner =    1.400   1.400   1.400
                                                       1.400   1.400

     PseudoPot. # 2 for C  read from file:
     /home/549/hxw549/Short/pseudopotentials/C.pbe-mt_gipaw.UPF
     MD5 check sum: 5ac2f21f2c440b14befe521540822c15
     Pseudo is Norm-conserving, Zval =  4.0
     Generated by new atomic code, or converted to UPF format
     Using radial grid of 1073 points,  1 beta functions with: 
                l(1) =   0

     PseudoPot. # 3 for H  read from file:
     /home/549/hxw549/Short/pseudopotentials/H.pbe-van_ak.UPF
     MD5 check sum: 077eb6d537518a38cb46c6de387227b7
     Pseudo is Ultrasoft, Zval =  1.0
     Generated by new atomic code, or converted to UPF format
     Using radial grid of  615 points,  1 beta functions with: 
                l(1) =   0
     Q(r) pseudized with  8 coefficients,  rinner =    0.800

     atomic species   valence    mass     pseudopotential
        Cu            11.00    63.54600     Cu( 1.00)
        C              4.00    12.01070     C ( 1.00)
        H              1.00     1.00783     H ( 1.00)

     No symmetry found



   Cartesian axes

     site n.     atom                  positions (alat units)
         1           Cu  tau(   1) = (  -0.0000276   0.0000005   0.9978340  )
         2           Cu  tau(   2) = (   0.2499474   0.2305446   0.9972006  )
         3           Cu  tau(   3) = (   0.4999662  -0.0004442   0.9973664  )
         4           Cu  tau(   4) = (   0.7499984   0.2304698   0.9971454  )
         5           Cu  tau(   5) = (   0.0000273   0.4614167   0.9968672  )
         6           Cu  tau(   6) = (   0.2502089   0.6927586   0.9973429  )
         7           Cu  tau(   7) = (   0.4999705   0.4618272   0.9975057  )
         8           Cu  tau(   8) = (   0.7498803   0.6928402   0.9974347  )
         9           Cu  tau(   9) = (  -0.0000177   0.9236043   0.9972006  )
        10           Cu  tau(  10) = (   0.2503044   1.1545082   0.9972811  )
        11           Cu  tau(  11) = (   0.5000523   0.9236562   0.9977383  )
        12           Cu  tau(  12) = (   0.7497840   1.1543958   0.9974596  )
        13           Cu  tau(  13) = (   0.0000188   1.3859143   0.9966961  )
        14           Cu  tau(  14) = (   0.2498517   1.6167893   0.9971825  )
        15           Cu  tau(  15) = (   0.4999750   1.3853918   0.9977198  )
        16           Cu  tau(  16) = (   0.7500914   1.6169694   0.9970340  )
        17           Cu  tau(  17) = (   0.0000136   1.8472972   0.9980354  )
        18           Cu  tau(  18) = (   0.2498436   2.0783845   0.9978651  )
        19           Cu  tau(  19) = (   0.4999207   1.8482306   0.9969386  )
        20           Cu  tau(  20) = (   0.7500916   2.0783725   0.9977171  )
        21           Cu  tau(  21) = (  -0.0000223   0.2302149   1.2454888  )
        22           Cu  tau(  22) = (   0.2497816  -0.0006541   1.2455475  )
        23           Cu  tau(  23) = (   0.5000122   0.2288680   1.2437259  )
        24           Cu  tau(  24) = (   0.7501594  -0.0004891   1.2457204  )
        25           Cu  tau(  25) = (   0.0003557   0.6914466   1.2433032  )
        26           Cu  tau(  26) = (   0.2497470   0.4604671   1.2440119  )
        27           Cu  tau(  27) = (   0.5001192   0.6924081   1.2451845  )
        28           Cu  tau(  28) = (   0.7504262   0.4597309   1.2430981  )
        29           Cu  tau(  29) = (   0.0003563   1.1559831   1.2424745  )
        30           Cu  tau(  30) = (   0.2509994   0.9235092   1.2443399  )
        31           Cu  tau(  31) = (   0.5001222   1.1544855   1.2457365  )
        32           Cu  tau(  32) = (   0.7500025   0.9234874   1.2454905  )
        33           Cu  tau(  33) = (   0.0001274   1.6166615   1.2461628  )
        34           Cu  tau(  34) = (   0.2490186   1.3870951   1.2432967  )
        35           Cu  tau(  35) = (   0.4998717   1.6213063   1.2407502  )
        36           Cu  tau(  36) = (   0.7511376   1.3878361   1.2424326  )
        37           Cu  tau(  37) = (  -0.0000054   2.0783342   1.2460867  )
        38           Cu  tau(  38) = (   0.2495395   1.8476202   1.2462854  )
        39           Cu  tau(  39) = (   0.4999352   2.0782450   1.2457547  )
        40           Cu  tau(  40) = (   0.7503907   1.8477915   1.2460090  )
        41           Cu  tau(  41) = (  -0.0000715  -0.0011115   1.4952802  )
        42           Cu  tau(  42) = (   0.2495042   0.2270888   1.4921450  )
        43           Cu  tau(  43) = (   0.5001098  -0.0011544   1.4946640  )
        44           Cu  tau(  44) = (   0.7507497   0.2286030   1.4937999  )
        45           Cu  tau(  45) = (   0.0003053   0.4589593   1.4927604  )
        46           Cu  tau(  46) = (   0.2509700   0.6900075   1.4915263  )
        47           Cu  tau(  47) = (   0.5004390   0.4572266   1.4898905  )
        48           Cu  tau(  48) = (   0.7512623   0.6873609   1.4887223  )
        49           Cu  tau(  49) = (   0.0056374   0.9241892   1.4875190  )
        50           Cu  tau(  50) = (   0.2479511   1.1583764   1.4898669  )
        51           Cu  tau(  51) = (   0.5009038   0.9227146   1.4938350  )
        52           Cu  tau(  52) = (   0.7542037   1.1607919   1.4873102  )
        53           Cu  tau(  53) = (   0.0010333   1.3868398   1.4956979  )
        54           Cu  tau(  54) = (   0.2480305   1.6175417   1.4961435  )
        55           Cu  tau(  55) = (   0.4999652   1.3986428   1.4802724  )
        56           Cu  tau(  56) = (   0.7522021   1.6182769   1.4951089  )
        57           Cu  tau(  57) = (   0.0000718   1.8478987   1.4956503  )
        58           Cu  tau(  58) = (   0.2499631   2.0783661   1.4956728  )
        59           Cu  tau(  59) = (   0.4999346   1.8478781   1.4951441  )
        60           Cu  tau(  60) = (   0.7500080   2.0782647   1.4955578  )
        61           Cu  tau(  61) = (  -0.0003468   0.2278712   1.7429937  )
        62           Cu  tau(  62) = (   0.2502629  -0.0006716   1.7450204  )
        63           Cu  tau(  63) = (   0.5011225   0.2278112   1.7427689  )
        64           Cu  tau(  64) = (   0.7500683  -0.0011766   1.7445737  )
        65           Cu  tau(  65) = (   0.0039464   0.6876205   1.7382431  )
        66           Cu  tau(  66) = (   0.2516918   0.4540171   1.7367777  )
        67           Cu  tau(  67) = (   0.5015196   0.6892285   1.7398217  )
        68           Cu  tau(  68) = (   0.7502766   0.4571245   1.7398209  )
        69           Cu  tau(  69) = (   0.0085196   1.1566804   1.7482381  )
        70           Cu  tau(  70) = (   0.2530655   0.9244368   1.7397525  )
        71           Cu  tau(  71) = (   0.5007714   1.1734612   1.7161267  )
        72           Cu  tau(  72) = (   0.7653952   0.9257184   1.7227444  )
        73           Cu  tau(  73) = (   0.0008876   1.6179836   1.7456267  )
        74           Cu  tau(  74) = (   0.2484964   1.3871651   1.7484287  )
        75           Cu  tau(  75) = (   0.5005956   1.6165680   1.7425495  )
        76           Cu  tau(  76) = (   0.7560142   1.3881123   1.7436245  )
        77           Cu  tau(  77) = (   0.0001476   2.0781288   1.7452353  )
        78           Cu  tau(  78) = (   0.2501055   1.8477741   1.7447915  )
        79           Cu  tau(  79) = (   0.5000616   2.0784113   1.7453022  )
        80           Cu  tau(  80) = (   0.7503589   1.8475299   1.7449449  )
        81           Cu  tau(  81) = (   0.0005867   0.0000697   1.9903791  )
        82           Cu  tau(  82) = (   0.2517247   0.2299516   1.9912453  )
        83           Cu  tau(  83) = (   0.4999084  -0.0003514   1.9924202  )
        84           Cu  tau(  84) = (   0.7485215   0.2277668   1.9904683  )
        85           Cu  tau(  85) = (  -0.0023414   0.4499994   1.9937506  )
        86           Cu  tau(  86) = (   0.2392039   0.6812693   1.9783792  )
        87           Cu  tau(  87) = (   0.5015845   0.4576774   1.9891284  )
        88           Cu  tau(  88) = (   0.7575365   0.6866038   1.9788732  )
        89           Cu  tau(  89) = (  -0.0069500   0.9224505   1.9883154  )
        90           Cu  tau(  90) = (   0.2657112   1.1466446   1.9969372  )
        91           Cu  tau(  91) = (   0.5367369   0.9527398   1.9413753  )
        92           Cu  tau(  92) = (   0.7680571   1.1721269   1.9971600  )
        93           Cu  tau(  93) = (   0.0143800   1.3890662   1.9978581  )
        94           Cu  tau(  94) = (   0.2521431   1.6195140   1.9917945  )
        95           Cu  tau(  95) = (   0.5032318   1.3891858   1.9885122  )
        96           Cu  tau(  96) = (   0.7539913   1.6160561   1.9911576  )
        97           Cu  tau(  97) = (   0.0004950   1.8479377   1.9922926  )
        98           Cu  tau(  98) = (   0.2505763   2.0779025   1.9911680  )
        99           Cu  tau(  99) = (   0.5012856   1.8462330   1.9902015  )
       100           Cu  tau( 100) = (   0.7500680   2.0782655   1.9909726  )
       101           C   tau( 101) = (  -0.0022030   0.0983931   2.3806926  )
       102           C   tau( 102) = (  -0.0026100   0.2906037   2.3878317  )
       103           C   tau( 103) = (   0.1642829   0.0016933   2.3836119  )
       104           C   tau( 104) = (   0.1636222   0.3864673   2.4011845  )
       105           C   tau( 105) = (   0.3308099   0.0982805   2.3837038  )
       106           C   tau( 106) = (   0.3302659   0.2902601   2.3919290  )
       107           C   tau( 107) = (   0.4976675   0.0014570   2.3817346  )
       108           C   tau( 108) = (   0.4970120   0.3871406   2.3967490  )
       109           C   tau( 109) = (   0.6645265   0.0984821   2.3808147  )
       110           C   tau( 110) = (   0.6640310   0.2906651   2.3855399  )
       111           C   tau( 111) = (   0.8310188   0.0017953   2.3811560  )
       112           C   tau( 112) = (   0.8309276   0.3866113   2.3922068  )
       113           C   tau( 113) = (  -0.0033631   0.6739818   2.4248162  )
       114           C   tau( 114) = (  -0.0043662   0.8661467   2.4342974  )
       115           C   tau( 115) = (   0.1630426   0.5771441   2.4251687  )
       116           C   tau( 116) = (   0.1618445   0.9629520   2.4456048  )
       117           C   tau( 117) = (   0.3289573   0.6726552   2.4426562  )
       118           C   tau( 118) = (   0.3262953   0.8645867   2.4503414  )
       119           C   tau( 119) = (   0.4965592   0.5777687   2.4183379  )
       120           C   tau( 120) = (   0.4910699   0.9595294   2.3756117  )
       121           C   tau( 121) = (   0.4351105   0.9129365   2.1759430  )
       122           H   tau( 122) = (   0.4826105   0.7730988   2.1500730  )
       123           H   tau( 123) = (   0.2845169   0.8986673   2.1698139  )
       124           C   tau( 124) = (   0.6643737   0.6742233   2.4137002  )
       125           C   tau( 125) = (   0.6663456   0.8650313   2.4097188  )
       126           C   tau( 126) = (   0.8309980   0.5779230   2.4089028  )
       127           C   tau( 127) = (   0.8294436   0.9618759   2.4141712  )
       128           C   tau( 128) = (  -0.0036575   1.2503761   2.3987569  )
       129           C   tau( 129) = (  -0.0030822   1.4429753   2.3840838  )
       130           C   tau( 130) = (   0.1627459   1.1548948   2.4165849  )
       131           C   tau( 131) = (   0.1634029   1.5401022   2.3870553  )
       132           C   tau( 132) = (   0.3297304   1.2528284   2.4064194  )
       133           C   tau( 133) = (   0.3299658   1.4450446   2.3966429  )
       134           C   tau( 134) = (   0.4956459   1.1591748   2.4010299  )
       135           C   tau( 135) = (   0.4969379   1.5404214   2.3917809  )
       136           C   tau( 136) = (   0.6620342   1.2521683   2.3944439  )
       137           C   tau( 137) = (   0.6633663   1.4445645   2.3911654  )
       138           C   tau( 138) = (   0.8296345   1.1548550   2.3993511  )
       139           C   tau( 139) = (   0.8303184   1.5397524   2.3825035  )
       140           C   tau( 140) = (  -0.0023512   1.8287453   2.3799502  )
       141           C   tau( 141) = (  -0.0023131   2.0220037   2.3841188  )
       142           C   tau( 142) = (   0.1641808   1.7328417   2.3833959  )
       143           C   tau( 143) = (   0.1644695   2.1183720   2.3848166  )
       144           C   tau( 144) = (   0.3309915   1.8286898   2.3877324  )
       145           C   tau( 145) = (   0.3312435   2.0220054   2.3866108  )
       146           C   tau( 146) = (   0.4975344   1.7332034   2.3886484  )
       147           C   tau( 147) = (   0.4979030   2.1181715   2.3860443  )
       148           C   tau( 148) = (   0.6643037   1.8285519   2.3864164  )
       149           C   tau( 149) = (   0.6645182   2.0219597   2.3860533  )
       150           C   tau( 150) = (   0.8306773   1.7326749   2.3808836  )
       151           C   tau( 151) = (   0.8314110   2.1184943   2.3837855  )

     number of k points=     6  gaussian smearing, width (Ry)=  0.1000
                       cart. coord. in units 2pi/alat
        k(    1) = (   0.0000000   0.0000000   0.0000000), wk =   0.2500000
        k(    2) = (   0.0000000  -0.2165064   0.0000000), wk =   0.2500000
        k(    3) = (   0.2500000   0.0000000   0.0000000), wk =   0.5000000
        k(    4) = (   0.2500000  -0.2165064   0.0000000), wk =   0.5000000
        k(    5) = (  -0.5000000   0.0000000   0.0000000), wk =   0.2500000
        k(    6) = (  -0.5000000  -0.2165064   0.0000000), wk =   0.2500000

     Dense  grid:  2050409 G-vectors     FFT dimensions: (  80, 192, 270)

     Largest allocated arrays     est. size (Mb)     dimensions
        Kohn-Sham Wavefunctions        54.73 Mb     (    4604,  779)
        NL pseudopotentials           130.04 Mb     (    4604, 1851)
        Each V/rho on FFT grid          1.17 Mb     (   76800)
        Each G-vector array             0.28 Mb     (   36616)
        G-vector shells                 0.14 Mb     (   17932)
     Largest temporary arrays     est. size (Mb)     dimensions
        Auxiliary wavefunctions       218.90 Mb     (    4604, 3116)
        Each subspace H/S matrix        5.92 Mb     (     623,  623)
        Each <psi_i|beta_j> matrix     22.00 Mb     (    1851,  779)
        Arrays for rho mixing           9.38 Mb     (   76800,    8)

     Initial potential from superposition of free atoms
     Check: negative starting charge=   -0.001830

     starting charge 1272.31749, renormalised to 1298.00000

     negative rho (up, down):  1.867E-03 0.000E+00
     Starting wfc are 1294 randomized atomic wfcs

     total cpu time spent up to now is      106.6 secs

     Self-consistent Calculation

     iteration #  1     ecut=    80.00 Ry     beta=0.70
     Davidson diagonalization with overlap
     c_bands:  4 eigenvalues not converged
     c_bands:  5 eigenvalues not converged
     c_bands:  1 eigenvalues not converged
     c_bands:  5 eigenvalues not converged
     ethr =  1.00E-04,  avg # of iterations = 27.0

     negative rho (up, down):  2.895E+01 0.000E+00

     total cpu time spent up to now is     1947.6 secs

     total energy              =   -9268.16746733 Ry
     Harris-Foulkes estimate   =  -17299.17472892 Ry
     estimated scf accuracy    <  184354.04565905 Ry

     iteration #  2     ecut=    80.00 Ry     beta=0.70
     Davidson diagonalization with overlap
     ethr =  1.00E-02,  avg # of iterations = 13.0

     negative rho (up, down):  3.205E+01 0.000E+00

     total cpu time spent up to now is     2878.0 secs

     total energy              =  -12212.28553301 Ry
     Harris-Foulkes estimate   =  -13692.00020216 Ry
     estimated scf accuracy    <   22199.84808484 Ry

     iteration #  3     ecut=    80.00 Ry     beta=0.70
     Davidson diagonalization with overlap
     ethr =  1.00E-02,  avg # of iterations =  7.0

     negative rho (up, down):  3.338E+01 0.000E+00

     total cpu time spent up to now is     3407.3 secs

     total energy              =  -12470.70673955 Ry
     Harris-Foulkes estimate   =  -13420.90145225 Ry
     estimated scf accuracy    <    6330.89108043 Ry

     iteration #  4     ecut=    80.00 Ry     beta=0.70
     Davidson diagonalization with overlap
     ethr =  1.00E-02,  avg # of iterations =  5.5

     negative rho (up, down):  2.738E+01 0.000E+00

     total cpu time spent up to now is     3877.7 secs

     total energy              =  -12837.82447803 Ry
     Harris-Foulkes estimate   =  -13143.62726872 Ry
     estimated scf accuracy    <    3809.49402048 Ry

     iteration #  5     ecut=    80.00 Ry     beta=0.70
     Davidson diagonalization with overlap
     ethr =  1.00E-02,  avg # of iterations =  5.0

     negative rho (up, down):  1.843E+01 0.000E+00

     total cpu time spent up to now is     4212.4 secs

     total energy              =  -12879.22364125 Ry
     Harris-Foulkes estimate   =  -13031.20910302 Ry
     estimated scf accuracy    <    1061.91905765 Ry

     iteration #  6     ecut=    80.00 Ry     beta=0.70
     Davidson diagonalization with overlap
     ethr =  1.00E-02,  avg # of iterations =  2.0

     negative rho (up, down):  1.083E+01 0.000E+00

     total cpu time spent up to now is     4430.2 secs

     total energy              =  -12832.70164413 Ry
     Harris-Foulkes estimate   =  -12909.01640165 Ry
     estimated scf accuracy    <     519.64097435 Ry

     iteration #  7     ecut=    80.00 Ry     beta=0.70
     Davidson diagonalization with overlap
     ethr =  1.00E-02,  avg # of iterations =  2.0

     negative rho (up, down):  8.677E+00 0.000E+00

     total cpu time spent up to now is     4613.8 secs

     total energy              =  -12817.91682179 Ry
     Harris-Foulkes estimate   =  -12856.28979205 Ry
     estimated scf accuracy    <    1007.01028214 Ry

     iteration #  8     ecut=    80.00 Ry     beta=0.70
     Davidson diagonalization with overlap
     ethr =  1.00E-02,  avg # of iterations =  1.2

     negative rho (up, down):  8.298E+00 0.000E+00

     total cpu time spent up to now is     4780.5 secs

     total energy              =  -12822.43039376 Ry
     Harris-Foulkes estimate   =  -12830.46405102 Ry
     estimated scf accuracy    <     394.13876870 Ry

     iteration #  9     ecut=    80.00 Ry     beta=0.70
     Davidson diagonalization with overlap
     ethr =  1.00E-02,  avg # of iterations =  1.0

     negative rho (up, down):  7.529E+00 0.000E+00

     total cpu time spent up to now is     4945.5 secs

     total energy              =  -12814.69642222 Ry
     Harris-Foulkes estimate   =  -12824.61165870 Ry
     estimated scf accuracy    <     247.69583138 Ry

     iteration # 10     ecut=    80.00 Ry     beta=0.70
     Davidson diagonalization with overlap
     ethr =  1.00E-02,  avg # of iterations =  1.0

     negative rho (up, down):  2.805E+00 0.000E+00

     total cpu time spent up to now is     5110.2 secs

     total energy              =  -12764.44424818 Ry
     Harris-Foulkes estimate   =  -12817.00584300 Ry
     estimated scf accuracy    <     296.70198832 Ry

     iteration # 11     ecut=    80.00 Ry     beta=0.70
     Davidson diagonalization with overlap
     ethr =  1.00E-02,  avg # of iterations =  1.5

     negative rho (up, down):  1.828E+00 0.000E+00

     total cpu time spent up to now is     5281.1 secs

     total energy              =  -12747.15351008 Ry
     Harris-Foulkes estimate   =  -12779.61836128 Ry
     estimated scf accuracy    <     409.31126660 Ry

     iteration # 12     ecut=    80.00 Ry     beta=0.70
     Davidson diagonalization with overlap
     ethr =  1.00E-02,  avg # of iterations =  2.0

     negative rho (up, down):  2.455E+00 0.000E+00

     total cpu time spent up to now is     5459.3 secs

     total energy              =  -12733.37862236 Ry
     Harris-Foulkes estimate   =  -12761.75391013 Ry
     estimated scf accuracy    <     112.21914144 Ry

     iteration # 13     ecut=    80.00 Ry     beta=0.70
     Davidson diagonalization with overlap
     ethr =  8.65E-03,  avg # of iterations =  3.0

     negative rho (up, down):  5.864E+00 0.000E+00

     total cpu time spent up to now is     5648.9 secs

     total energy              =  -12726.57890916 Ry
     Harris-Foulkes estimate   =  -12737.53569178 Ry
     estimated scf accuracy    <      72.94697787 Ry

     iteration # 14     ecut=    80.00 Ry     beta=0.70
     Davidson diagonalization with overlap
     ethr =  5.62E-03,  avg # of iterations =  3.0

     negative rho (up, down):  7.602E+00 0.000E+00

     total cpu time spent up to now is     5838.0 secs

     total energy              =  -12725.70309305 Ry
     Harris-Foulkes estimate   =  -12730.76956834 Ry
     estimated scf accuracy    <      59.08010720 Ry

     iteration # 15     ecut=    80.00 Ry     beta=0.70
     Davidson diagonalization with overlap
     ethr =  4.55E-03,  avg # of iterations =  1.7

     negative rho (up, down):  4.998E+00 0.000E+00

     total cpu time spent up to now is     6010.3 secs

     total energy              =  -12722.58157697 Ry
     Harris-Foulkes estimate   =  -12726.56196278 Ry
     estimated scf accuracy    <      42.71245680 Ry

     iteration # 16     ecut=    80.00 Ry     beta=0.70
     Davidson diagonalization with overlap
     ethr =  3.29E-03,  avg # of iterations =  1.7

     negative rho (up, down):  4.334E+00 0.000E+00

     total cpu time spent up to now is     6182.7 secs

     total energy              =  -12720.60410538 Ry
     Harris-Foulkes estimate   =  -12723.51429262 Ry
     estimated scf accuracy    <      26.63587577 Ry

     iteration # 17     ecut=    80.00 Ry     beta=0.70
     Davidson diagonalization with overlap
     ethr =  2.05E-03,  avg # of iterations =  4.8

     negative rho (up, down):  4.707E+00 0.000E+00

     total cpu time spent up to now is     6393.5 secs

     total energy              =  -12720.46414488 Ry
     Harris-Foulkes estimate   =  -12721.25452062 Ry
     estimated scf accuracy    <      21.91716051 Ry

     iteration # 18     ecut=    80.00 Ry     beta=0.70
     Davidson diagonalization with overlap
     ethr =  1.69E-03,  avg # of iterations =  2.2

     negative rho (up, down):  3.023E+00 0.000E+00

     total cpu time spent up to now is     6572.0 secs

     total energy              =  -12718.02537616 Ry
     Harris-Foulkes estimate   =  -12720.66764325 Ry
     estimated scf accuracy    <      14.76717422 Ry

     iteration # 19     ecut=    80.00 Ry     beta=0.70
     Davidson diagonalization with overlap
     ethr =  1.14E-03,  avg # of iterations =  4.0

     negative rho (up, down):  1.830E+00 0.000E+00

     total cpu time spent up to now is     6776.2 secs

     total energy              =  -12716.48590330 Ry
     Harris-Foulkes estimate   =  -12718.46522546 Ry
     estimated scf accuracy    <      15.41210957 Ry

     iteration # 20     ecut=    80.00 Ry     beta=0.70
     Davidson diagonalization with overlap
     ethr =  1.14E-03,  avg # of iterations =  3.0

     negative rho (up, down):  2.208E+00 0.000E+00

     total cpu time spent up to now is     6965.0 secs

     total energy              =  -12716.54947261 Ry
     Harris-Foulkes estimate   =  -12716.92006263 Ry
     estimated scf accuracy    <      10.86515937 Ry

     iteration # 21     ecut=    80.00 Ry     beta=0.70
     Davidson diagonalization with overlap
     ethr =  8.37E-04,  avg # of iterations =  3.3

     negative rho (up, down):  1.773E+00 0.000E+00

     total cpu time spent up to now is     7156.7 secs

     total energy              =  -12715.79073501 Ry
     Harris-Foulkes estimate   =  -12716.77180336 Ry
     estimated scf accuracy    <       8.20884166 Ry

     iteration # 22     ecut=    80.00 Ry     beta=0.70
     Davidson diagonalization with overlap
     ethr =  6.32E-04,  avg # of iterations =  3.8

     negative rho (up, down):  1.404E+00 0.000E+00

     total cpu time spent up to now is     7355.2 secs

     total energy              =  -12714.58736715 Ry
     Harris-Foulkes estimate   =  -12715.99738198 Ry
     estimated scf accuracy    <       9.45951012 Ry

     iteration # 23     ecut=    80.00 Ry     beta=0.70
     Davidson diagonalization with overlap
     ethr =  6.32E-04,  avg # of iterations =  3.2

     negative rho (up, down):  1.578E+00 0.000E+00

     total cpu time spent up to now is     7546.5 secs

     total energy              =  -12715.03850607 Ry
     Harris-Foulkes estimate   =  -12715.25446477 Ry
     estimated scf accuracy    <      25.33873143 Ry

     iteration # 24     ecut=    80.00 Ry     beta=0.70
     Davidson diagonalization with overlap
     ethr =  6.32E-04,  avg # of iterations =  1.0

     negative rho (up, down):  1.050E+00 0.000E+00

     total cpu time spent up to now is     7712.2 secs

     total energy              =  -12713.97145959 Ry
     Harris-Foulkes estimate   =  -12715.23433712 Ry
     estimated scf accuracy    <       8.59169646 Ry

     iteration # 25     ecut=    80.00 Ry     beta=0.70
     Davidson diagonalization with overlap
     ethr =  6.32E-04,  avg # of iterations =  3.0

     negative rho (up, down):  9.478E-01 0.000E+00

     total cpu time spent up to now is     7902.2 secs

     total energy              =  -12713.96245582 Ry
     Harris-Foulkes estimate   =  -12715.04177600 Ry
     estimated scf accuracy    <      87.37304245 Ry

     iteration # 26     ecut=    80.00 Ry     beta=0.70
     Davidson diagonalization with overlap
     ethr =  6.32E-04,  avg # of iterations =  1.8

     negative rho (up, down):  1.149E+00 0.000E+00

     total cpu time spent up to now is     8077.5 secs

     total energy              =  -12712.29332876 Ry
     Harris-Foulkes estimate   =  -12714.44619368 Ry
     estimated scf accuracy    <      73.83228085 Ry

     iteration # 27     ecut=    80.00 Ry     beta=0.70
     Davidson diagonalization with overlap
     ethr =  6.32E-04,  avg # of iterations =  1.5

     negative rho (up, down):  9.805E-01 0.000E+00

     total cpu time spent up to now is     8249.5 secs

     total energy              =  -12712.57257502 Ry
     Harris-Foulkes estimate   =  -12713.24066823 Ry
     estimated scf accuracy    <       8.14847363 Ry

     iteration # 28     ecut=    80.00 Ry     beta=0.70
     Davidson diagonalization with overlap
     ethr =  6.28E-04,  avg # of iterations =  1.0

     negative rho (up, down):  3.197E-01 0.000E+00

     total cpu time spent up to now is     8417.1 secs

     total energy              =  -12712.54499604 Ry
     Harris-Foulkes estimate   =  -12712.82507225 Ry
     estimated scf accuracy    <       3.31612946 Ry

     iteration # 29     ecut=    80.00 Ry     beta=0.70
     Davidson diagonalization with overlap
     ethr =  2.55E-04,  avg # of iterations =  3.0

     negative rho (up, down):  3.254E-01 0.000E+00

     total cpu time spent up to now is     8607.4 secs

     total energy              =  -12712.42483553 Ry
     Harris-Foulkes estimate   =  -12712.71390397 Ry
     estimated scf accuracy    <       3.88932829 Ry

     iteration # 30     ecut=    80.00 Ry     beta=0.70
     Davidson diagonalization with overlap
     ethr =  2.55E-04,  avg # of iterations =  5.7

     negative rho (up, down):  2.697E-01 0.000E+00

     total cpu time spent up to now is     8834.5 secs

     total energy              =  -12712.43913910 Ry
     Harris-Foulkes estimate   =  -12712.56784339 Ry
     estimated scf accuracy    <       1.34104713 Ry

     iteration # 31     ecut=    80.00 Ry     beta=0.70
     Davidson diagonalization with overlap
     ethr =  1.03E-04,  avg # of iterations =  8.0

     negative rho (up, down):  2.138E-01 0.000E+00

     total cpu time spent up to now is     9094.5 secs

     total energy              =  -12712.42296549 Ry
     Harris-Foulkes estimate   =  -12712.47995752 Ry
     estimated scf accuracy    <       0.52467288 Ry

     iteration # 32     ecut=    80.00 Ry     beta=0.70
     Davidson diagonalization with overlap
     ethr =  4.04E-05,  avg # of iterations =  7.0

     negative rho (up, down):  2.533E-01 0.000E+00

     total cpu time spent up to now is     9338.6 secs

     total energy              =  -12712.40765241 Ry
     Harris-Foulkes estimate   =  -12712.44517960 Ry
     estimated scf accuracy    <       0.30906000 Ry

     iteration # 33     ecut=    80.00 Ry     beta=0.70
     Davidson diagonalization with overlap
     ethr =  2.38E-05,  avg # of iterations = 10.5

     negative rho (up, down):  2.952E-01 0.000E+00

     total cpu time spent up to now is     9643.5 secs

     total energy              =  -12712.41862372 Ry
     Harris-Foulkes estimate   =  -12712.42692936 Ry
     estimated scf accuracy    <       0.14179985 Ry

     iteration # 34     ecut=    80.00 Ry     beta=0.70
     Davidson diagonalization with overlap
     ethr =  1.09E-05,  avg # of iterations =  7.3

     negative rho (up, down):  2.447E-01 0.000E+00

     total cpu time spent up to now is     9891.9 secs

     total energy              =  -12712.42030511 Ry
     Harris-Foulkes estimate   =  -12712.42570304 Ry
     estimated scf accuracy    <       0.10266600 Ry

     iteration # 35     ecut=    80.00 Ry     beta=0.70
     Davidson diagonalization with overlap
     ethr =  7.91E-06,  avg # of iterations =  7.0

     negative rho (up, down):  3.929E-02 0.000E+00

     total cpu time spent up to now is    10145.8 secs

     total energy              =  -12712.41358595 Ry
     Harris-Foulkes estimate   =  -12712.42565413 Ry
     estimated scf accuracy    <       0.09424154 Ry

     iteration # 36     ecut=    80.00 Ry     beta=0.70
     Davidson diagonalization with overlap
     c_bands:  2 eigenvalues not converged
     ethr =  7.26E-06,  avg # of iterations = 15.3

     negative rho (up, down):  2.960E-02 0.000E+00

     total cpu time spent up to now is    10521.1 secs

     total energy              =  -12712.41381813 Ry
     Harris-Foulkes estimate   =  -12712.41590945 Ry
     estimated scf accuracy    <       0.03100901 Ry

     iteration # 37     ecut=    80.00 Ry     beta=0.70
     Davidson diagonalization with overlap
     c_bands:  1 eigenvalues not converged
     ethr =  2.39E-06,  avg # of iterations =  7.3

     total cpu time spent up to now is    10765.2 secs

     total energy              =  -12712.41127145 Ry
     Harris-Foulkes estimate   =  -12712.41450018 Ry
     estimated scf accuracy    <       0.01768677 Ry

     iteration # 38     ecut=    80.00 Ry     beta=0.70
     Davidson diagonalization with overlap
     c_bands:  1 eigenvalues not converged
     ethr =  1.36E-06,  avg # of iterations = 10.0

     negative rho (up, down):  1.098E-02 0.000E+00

     total cpu time spent up to now is    11131.0 secs

     total energy              =  -12712.41246117 Ry
     Harris-Foulkes estimate   =  -12712.41348118 Ry
     estimated scf accuracy    <       0.00496530 Ry

     iteration # 39     ecut=    80.00 Ry     beta=0.70
     Davidson diagonalization with overlap
     ethr =  3.83E-07,  avg # of iterations =  5.0

     negative rho (up, down):  8.773E-03 0.000E+00

     total cpu time spent up to now is    11355.0 secs

     total energy              =  -12712.41305656 Ry
     Harris-Foulkes estimate   =  -12712.41300490 Ry
     estimated scf accuracy    <       0.00171434 Ry

     iteration # 40     ecut=    80.00 Ry     beta=0.70
     Davidson diagonalization with overlap
     ethr =  1.32E-07,  avg # of iterations =  4.8

     negative rho (up, down):  6.067E-03 0.000E+00

     total cpu time spent up to now is    11571.4 secs

     total energy              =  -12712.41313356 Ry
     Harris-Foulkes estimate   =  -12712.41313463 Ry
     estimated scf accuracy    <       0.00039434 Ry

     iteration # 41     ecut=    80.00 Ry     beta=0.70
     Davidson diagonalization with overlap
     ethr =  3.04E-08,  avg # of iterations =  3.8

     negative rho (up, down):  2.988E-03 0.000E+00

     total cpu time spent up to now is    11786.0 secs

     total energy              =  -12712.41327845 Ry
     Harris-Foulkes estimate   =  -12712.41318811 Ry
     estimated scf accuracy    <       0.00029529 Ry

     iteration # 42     ecut=    80.00 Ry     beta=0.70
     Davidson diagonalization with overlap
     ethr =  2.27E-08,  avg # of iterations =  9.8

     negative rho (up, down):  1.478E-03 0.000E+00

     total cpu time spent up to now is    12074.4 secs

     total energy              =  -12712.41331723 Ry
     Harris-Foulkes estimate   =  -12712.41330088 Ry
     estimated scf accuracy    <       0.00006363 Ry

     iteration # 43     ecut=    80.00 Ry     beta=0.70
     Davidson diagonalization with overlap
     c_bands:  2 eigenvalues not converged
     ethr =  4.90E-09,  avg # of iterations =  8.2

     negative rho (up, down):  1.719E-03 0.000E+00

     total cpu time spent up to now is    12348.2 secs

     total energy              =  -12712.41333811 Ry
     Harris-Foulkes estimate   =  -12712.41332576 Ry
     estimated scf accuracy    <       0.00002094 Ry

     iteration # 44     ecut=    80.00 Ry     beta=0.70
     Davidson diagonalization with overlap
     ethr =  1.61E-09,  avg # of iterations =  4.5

     negative rho (up, down):  1.765E-03 0.000E+00

     total cpu time spent up to now is    12565.3 secs

     total energy              =  -12712.41334532 Ry
     Harris-Foulkes estimate   =  -12712.41334021 Ry
     estimated scf accuracy    <       0.00000075 Ry

     iteration # 45     ecut=    80.00 Ry     beta=0.70
     Davidson diagonalization with overlap
     ethr =  5.80E-11,  avg # of iterations =  4.0

     negative rho (up, down):  1.772E-03 0.000E+00

     total cpu time spent up to now is    12846.5 secs

     total energy              =  -12712.41334604 Ry
     Harris-Foulkes estimate   =  -12712.41334550 Ry
     estimated scf accuracy    <       0.00000035 Ry

     iteration # 46     ecut=    80.00 Ry     beta=0.70
     Davidson diagonalization with overlap
     ethr =  2.71E-11,  avg # of iterations =  3.0

     negative rho (up, down):  1.775E-03 0.000E+00

     total cpu time spent up to now is    13043.1 secs

     total energy              =  -12712.41334606 Ry
     Harris-Foulkes estimate   =  -12712.41334607 Ry
     estimated scf accuracy    <       0.00000011 Ry

     iteration # 47     ecut=    80.00 Ry     beta=0.70
     Davidson diagonalization with overlap
     ethr =  8.55E-12,  avg # of iterations =  3.0

     negative rho (up, down):  1.831E-03 0.000E+00

     total cpu time spent up to now is    13262.3 secs

     total energy              =  -12712.41334602 Ry
     Harris-Foulkes estimate   =  -12712.41334608 Ry
     estimated scf accuracy    <       0.00000011 Ry

     iteration # 48     ecut=    80.00 Ry     beta=0.70
     Davidson diagonalization with overlap
     ethr =  8.37E-12,  avg # of iterations =  3.0

     negative rho (up, down):  1.854E-03 0.000E+00

     total cpu time spent up to now is    13461.5 secs

     total energy              =  -12712.41334601 Ry
     Harris-Foulkes estimate   =  -12712.41334602 Ry
     estimated scf accuracy    <       0.00000001 Ry

     iteration # 49     ecut=    80.00 Ry     beta=0.70
     Davidson diagonalization with overlap
     ethr =  7.77E-13,  avg # of iterations =  3.0

     negative rho (up, down):  1.851E-03 0.000E+00

     total cpu time spent up to now is    13662.5 secs

     End of self-consistent calculation

          k = 0.0000 0.0000 0.0000 (256287 PWs)   bands (ev):

   -16.0260 -15.6780 -15.6333 -14.6004 -14.5095 -14.0901 -14.0356 -13.7767
   -13.6853 -13.6797 -13.6512 -12.8444 -12.7075 -12.6668 -12.6235 -12.5988
   -12.5800 -11.1274 -10.9322 -10.9076 -10.8888 -10.7554  -9.7738  -9.6652
    -9.0495  -9.0311  -9.0123  -8.8339  -8.1561  -8.1452  -8.1381  -8.0634
    -7.1796  -7.1597  -7.1076  -7.0903  -7.0669  -7.0626  -7.0539  -6.9911
    -5.7068  -5.6112  -5.5537  -5.5219  -5.5047  -5.3947  -5.3774  -5.3597
    -5.3261  -5.1859  -5.1512  -4.6917  -4.3906  -4.3171  -4.2903  -4.2364
    -4.0376  -3.9866  -3.9097  -3.8287  -3.7808  -3.7261  -3.6539  -3.6436
    -3.2501  -3.1632  -3.0933  -3.0898  -3.0857  -3.0493  -3.0458  -2.9482
    -2.9251  -2.8667  -2.8279  -2.7651  -2.7309  -2.7116  -2.7035  -2.6761
    -2.6703  -2.5698  -2.5366  -2.4858  -2.4442  -2.3951  -2.3196  -2.2778
    -2.2722  -2.2638  -2.2425  -2.2140  -2.1203  -2.0433  -2.0378  -1.9964
    -1.9870  -1.9239  -1.8844  -1.8789  -1.8718  -1.8451  -1.8421  -1.8397
    -1.8347  -1.7423  -1.7072  -1.7055  -1.7016  -1.6993  -1.6886  -1.6286
    -1.6110  -1.5565  -1.5193  -1.4665  -1.4427  -1.4292  -1.4229  -1.4135
    -1.4037  -1.3748  -1.3642  -1.3559  -1.3474  -1.3391  -1.3017  -1.2861
    -1.2629  -1.2525  -1.2479  -1.2269  -1.2216  -1.2131  -1.2082  -1.2014
    -1.1953  -1.1847  -1.1610  -1.1388  -1.1140  -1.0866  -1.0331  -1.0272
    -1.0180  -1.0040  -0.9780  -0.9673  -0.9417  -0.9396  -0.9325  -0.9172
    -0.9040  -0.8845  -0.8793  -0.8739  -0.8665  -0.8522  -0.8389  -0.8020
    -0.7669  -0.7570  -0.7549  -0.7416  -0.7365  -0.7338  -0.7260  -0.7218
    -0.7114  -0.7073  -0.6988  -0.6948  -0.6913  -0.6761  -0.6709  -0.6653
    -0.6618  -0.6459  -0.6245  -0.6185  -0.6124  -0.5987  -0.5979  -0.5926
    -0.5869  -0.5675  -0.5598  -0.5514  -0.5475  -0.5423  -0.5365  -0.5346
    -0.5320  -0.5303  -0.5266  -0.5246  -0.5197  -0.5176  -0.5156  -0.5094
    -0.5084  -0.5011  -0.4852  -0.4670  -0.4593  -0.4408  -0.3804  -0.3701
    -0.3676  -0.3631  -0.3577  -0.3436  -0.3311  -0.3247  -0.3126  -0.3051
    -0.2995  -0.2844  -0.2787  -0.2706  -0.2691  -0.2501  -0.2488  -0.2425
    -0.2403  -0.2386  -0.2358  -0.2321  -0.2172  -0.2076  -0.2024  -0.1894
    -0.1714  -0.1583  -0.1376  -0.1323  -0.1245  -0.1200  -0.1090  -0.1017
    -0.0964  -0.0879  -0.0848  -0.0830  -0.0814  -0.0738  -0.0708  -0.0705
    -0.0641  -0.0628  -0.0576  -0.0500  -0.0409  -0.0350  -0.0255  -0.0212
    -0.0090   0.0147   0.0193   0.0270   0.0315   0.0344   0.0485   0.0590
     0.0624   0.0646   0.0696   0.0767   0.0774   0.0853   0.0929   0.0940
     0.1008   0.1043   0.1108   0.1114   0.1128   0.1140   0.1219   0.1296
     0.1336   0.1400   0.1414   0.1443   0.1540   0.1592   0.1683   0.1874
     0.2051   0.2157   0.2173   0.2255   0.2331   0.2464   0.2503   0.2582
     0.2598   0.2645   0.2663   0.2687   0.2730   0.2832   0.2875   0.2936
     0.3085   0.3190   0.3272   0.3350   0.3424   0.3465   0.3494   0.3508
     0.3535   0.3592   0.3636   0.3671   0.3712   0.3754   0.3790   0.3827
     0.3861   0.3900   0.3906   0.3957   0.4031   0.4167   0.4192   0.4219
     0.4343   0.4413   0.4472   0.4567   0.4694   0.4738   0.4831   0.4866
     0.5061   0.5127   0.5201   0.5334   0.5394   0.5519   0.5555   0.5622
     0.5793   0.5815   0.5841   0.5891   0.5901   0.6006   0.6116   0.6200
     0.6260   0.6324   0.6564   0.6591   0.6653   0.6731   0.6789   0.6821
     0.6853   0.7008   0.7052   0.7092   0.7177   0.7278   0.7327   0.7411
     0.7438   0.7520   0.7613   0.7669   0.7743   0.7791   0.7873   0.7899
     0.7953   0.8068   0.8129   0.8163   0.8275   0.8322   0.8352   0.8405
     0.8435   0.8464   0.8557   0.8600   0.8653   0.8698   0.8760   0.8785
     0.8803   0.8845   0.8905   0.8927   0.8949   0.9011   0.9024   0.9065
     0.9144   0.9198   0.9265   0.9357   0.9443   0.9449   0.9530   0.9684
     0.9716   0.9778   0.9855   0.9857   0.9909   0.9948   1.0005   1.0018
     1.0089   1.0117   1.0132   1.0231   1.0247   1.0283   1.0316   1.0351
     1.0398   1.0467   1.0501   1.0531   1.0597   1.0650   1.0744   1.0783
     1.0827   1.0847   1.0851   1.0859   1.0920   1.0938   1.0947   1.1035
     1.1078   1.1125   1.1343   1.1378   1.1444   1.1502   1.1556   1.1588
     1.1629   1.1645   1.1759   1.1817   1.1889   1.1937   1.2026   1.2118
     1.2173   1.2181   1.2206   1.2298   1.2361   1.2372   1.2429   1.2465
     1.2473   1.2547   1.2668   1.2705   1.2754   1.2804   1.2834   1.2903
     1.2953   1.3005   1.3087   1.3129   1.3203   1.3211   1.3251   1.3293
     1.3324   1.3376   1.3412   1.3462   1.3487   1.3514   1.3545   1.3592
     1.3668   1.3694   1.3736   1.3773   1.3787   1.3846   1.3898   1.3982
     1.4010   1.4016   1.4100   1.4131   1.4146   1.4207   1.4305   1.4399
     1.4451   1.4470   1.4495   1.4523   1.4561   1.4573   1.4582   1.4608
     1.4627   1.4674   1.4696   1.4738   1.4864   1.4944   1.5068   1.5134
     1.5190   1.5221   1.5304   1.5334   1.5371   1.5434   1.5466   1.5495
     1.5514   1.5572   1.5596   1.5646   1.5701   1.5741   1.5768   1.5805
     1.5862   1.5892   1.5930   1.5954   1.5970   1.6018   1.6033   1.6065
     1.6115   1.6180   1.6214   1.6237   1.6296   1.6351   1.6361   1.6408
     1.6435   1.6455   1.6481   1.6518   1.6554   1.6578   1.6617   1.6669
     1.6713   1.6827   1.6866   1.6895   1.6927   1.6950   1.6969   1.7025
     1.7057   1.7113   1.7183   1.7224   1.7306   1.7371   1.7404   1.7430
     1.7535   1.7549   1.7562   1.7618   1.7654   1.7664   1.7676   1.7710
     1.7731   1.7751   1.7767   1.7800   1.7806   1.7873   1.7895   1.7977
     1.7984   1.8064   1.8074   1.8097   1.8147   1.8202   1.8267   1.8311
     1.8397   1.8601   1.8612   1.8661   1.8745   1.8868   1.9012   1.9023
     1.9102   1.9167   1.9289   1.9332   1.9432   1.9516   1.9552   1.9650
     1.9700   1.9763   1.9859   1.9917   1.9968   2.0076   2.2180   2.2738
     2.2946   2.4357   2.4623   2.4670   2.5098   2.5267   2.5350   2.5406
     2.5410   2.5568   2.5633   2.5707   2.5955   2.7026   2.7440   2.7679
     2.7826   2.7866   2.8017   2.8568   2.8582   3.0090   3.0358   3.0883
     3.1139   3.3023   3.4274   3.4677   3.5176   3.5506   3.8575   3.9310
     4.1125   4.1345   4.1697   4.1809   4.1901   4.1982   4.2375   4.2834
     4.3050   4.3195   4.3262   4.3323   4.3409   4.3826   4.4061   4.4198
     4.4728   4.5456   4.5845   4.6543   4.7776   5.0510   5.1344   5.1751
     5.3004   5.3349   5.3639   5.6351   5.6739   5.7326   5.7866   6.0146
     6.0207   6.0990   6.1100   6.2317   6.2615   6.2880   6.6374   6.6678
     6.7011   6.7380   6.7579   6.7880   6.8329   6.8589   6.8785   7.0103
     7.0500   7.0953   7.1104   7.1288   7.1479   7.1920   7.2241   7.2741
     7.3699   7.3753   7.4120   7.4254   7.4934   7.6713   7.6864   7.7575
     7.8447   7.9099   7.9204   7.9593   7.9781   7.9882   8.0062   8.0320
     8.2176   8.2858   8.4440   8.4598   8.5276   8.5342   8.5506   8.5736
     8.6109   8.6194   8.6421   8.6608   8.6770   8.7213   8.8112   8.8519
     8.8534   8.8990   8.9151   8.9528   8.9730   9.0328   9.0377   9.0740
     9.1337   9.1751   9.2245   9.3278   9.3373   9.3530   9.3621   9.3662
     9.3962   9.4220   9.4294   9.4575   9.5440   9.5443   9.6072   9.6681
     9.7471   9.8560   9.8970  10.0694  10.0830  10.0911  10.0945  10.1636
    10.2092  10.2953  10.3420

          k = 0.0000-0.2165 0.0000 (256176 PWs)   bands (ev):

   -15.9341 -15.9329 -15.2357 -15.1511 -14.0622 -13.9727 -13.9708 -13.9123
   -13.7558 -13.6882 -13.3269 -13.2454 -13.2197 -13.1946 -11.9984 -11.8479
   -11.8160 -11.8004 -11.6418 -11.6149 -10.2532  -9.9459  -9.9198  -9.9151
    -9.4204  -8.6680  -8.6545  -8.5290  -8.5092  -8.5019  -8.3901  -7.7032
    -7.6754  -7.6686  -7.6328  -6.5313  -6.5221  -6.4859  -6.4437  -6.4092
    -6.3775  -6.3363  -6.2992  -5.5914  -5.5782  -5.5459  -5.5217  -4.8093
    -4.7561  -4.7355  -4.7022  -4.6485  -4.5533  -4.5317  -4.4306  -4.2510
    -4.1853  -4.1625  -4.1382  -4.1258  -4.0686  -3.8006  -3.5963  -3.5089
    -3.4184  -3.2384  -3.0051  -2.9980  -2.9813  -2.9634  -2.9072  -2.8573
    -2.8006  -2.7595  -2.7411  -2.7149  -2.6873  -2.5999  -2.5841  -2.5628
    -2.5301  -2.4609  -2.4210  -2.4056  -2.3546  -2.3322  -2.2817  -2.2791
    -2.2761  -2.2694  -2.2614  -2.2502  -2.2365  -2.1448  -2.1217  -2.1073
    -2.0500  -1.9467  -1.9407  -1.9244  -1.9222  -1.9122  -1.8860  -1.8379
    -1.8284  -1.8144  -1.7917  -1.7498  -1.6935  -1.6728  -1.6663  -1.6473
    -1.6460  -1.6131  -1.5615  -1.5298  -1.5009  -1.4572  -1.4570  -1.4499
    -1.4266  -1.4258  -1.4205  -1.4064  -1.4023  -1.3977  -1.3809  -1.3497
    -1.3311  -1.3178  -1.3050  -1.2624  -1.1776  -1.1625  -1.1507  -1.1493
    -1.1210  -1.0919  -1.0619  -1.0506  -1.0403  -1.0343  -1.0017  -0.9938
    -0.9765  -0.9621  -0.9581  -0.9529  -0.9499  -0.9480  -0.9397  -0.9244
    -0.9182  -0.9128  -0.9028  -0.8997  -0.8980  -0.8703  -0.8671  -0.8566
    -0.8474  -0.8341  -0.8210  -0.8086  -0.7772  -0.7674  -0.7657  -0.7587
    -0.7373  -0.7326  -0.7252  -0.7225  -0.6931  -0.6797  -0.6763  -0.6692
    -0.6587  -0.6530  -0.6504  -0.6361  -0.6334  -0.6069  -0.6038  -0.6019
    -0.5931  -0.5860  -0.5815  -0.5775  -0.5634  -0.5617  -0.5390  -0.5308
    -0.5126  -0.5043  -0.4968  -0.4941  -0.4897  -0.4850  -0.4751  -0.4673
    -0.4591  -0.4489  -0.4321  -0.4296  -0.4260  -0.4162  -0.4011  -0.3545
    -0.3447  -0.3302  -0.3283  -0.3179  -0.3143  -0.3007  -0.2919  -0.2875
    -0.2846  -0.2841  -0.2746  -0.2724  -0.2528  -0.2472  -0.2339  -0.2242
    -0.2209  -0.2138  -0.2105  -0.2029  -0.1920  -0.1874  -0.1757  -0.1695
    -0.1665  -0.1619  -0.1535  -0.1397  -0.1327  -0.1256  -0.1218  -0.1174
    -0.1124  -0.1077  -0.1006  -0.0839  -0.0667  -0.0616  -0.0497  -0.0385
    -0.0286  -0.0202  -0.0105  -0.0027   0.0138   0.0188   0.0219   0.0265
     0.0273   0.0325   0.0357   0.0463   0.0475   0.0624   0.0635   0.0678
     0.0746   0.0792   0.0819   0.0852   0.0885   0.0928   0.0956   0.0973
     0.1056   0.1120   0.1154   0.1182   0.1219   0.1273   0.1334   0.1427
     0.1516   0.1665   0.1693   0.1813   0.1886   0.1946   0.1979   0.2063
     0.2189   0.2238   0.2332   0.2376   0.2404   0.2425   0.2450   0.2482
     0.2546   0.2562   0.2595   0.2629   0.2638   0.2736   0.2803   0.2930
     0.3034   0.3051   0.3096   0.3122   0.3247   0.3336   0.3385   0.3394
     0.3453   0.3513   0.3526   0.3543   0.3577   0.3603   0.3626   0.3773
     0.3824   0.3868   0.3919   0.3979   0.4032   0.4075   0.4178   0.4248
     0.4258   0.4297   0.4389   0.4442   0.4583   0.4619   0.4637   0.4742
     0.4776   0.4791   0.4805   0.4969   0.5033   0.5155   0.5222   0.5250
     0.5344   0.5508   0.5544   0.5566   0.5734   0.5879   0.5902   0.6025
     0.6157   0.6211   0.6259   0.6441   0.6512   0.6749   0.6970   0.7101
     0.7151   0.7265   0.7407   0.7413   0.7447   0.7490   0.7585   0.7667
     0.7704   0.7770   0.7801   0.7869   0.7934   0.7969   0.7998   0.8037
     0.8078   0.8094   0.8140   0.8152   0.8242   0.8312   0.8328   0.8402
     0.8479   0.8495   0.8577   0.8591   0.8626   0.8690   0.8716   0.8736
     0.8746   0.8767   0.8820   0.8845   0.8906   0.8939   0.8976   0.9040
     0.9052   0.9089   0.9105   0.9167   0.9186   0.9216   0.9261   0.9285
     0.9354   0.9429   0.9452   0.9472   0.9657   0.9735   0.9768   0.9903
     0.9955   1.0008   1.0012   1.0044   1.0073   1.0092   1.0139   1.0171
     1.0200   1.0226   1.0263   1.0322   1.0403   1.0524   1.0543   1.0591
     1.0638   1.0713   1.0783   1.0845   1.0869   1.0932   1.0966   1.1000
     1.1078   1.1126   1.1148   1.1184   1.1293   1.1385   1.1480   1.1616
     1.1915   1.1933   1.2083   1.2164   1.2186   1.2242   1.2292   1.2374
     1.2397   1.2424   1.2436   1.2500   1.2525   1.2551   1.2584   1.2613
     1.2667   1.2702   1.2765   1.2805   1.2861   1.2908   1.2921   1.2947
     1.2955   1.3014   1.3024   1.3042   1.3080   1.3100   1.3125   1.3170
     1.3191   1.3240   1.3250   1.3256   1.3277   1.3294   1.3324   1.3342
     1.3440   1.3484   1.3530   1.3587   1.3610   1.3670   1.3684   1.3725
     1.3732   1.3763   1.3777   1.3856   1.3949   1.4053   1.4091   1.4233
     1.4288   1.4422   1.4429   1.4570   1.4627   1.4706   1.4778   1.4848
     1.4938   1.4955   1.5007   1.5065   1.5075   1.5120   1.5132   1.5178
     1.5235   1.5275   1.5288   1.5337   1.5364   1.5373   1.5416   1.5440
     1.5461   1.5499   1.5550   1.5587   1.5607   1.5650   1.5677   1.5688
     1.5718   1.5749   1.5813   1.5921   1.5956   1.5981   1.6017   1.6060
     1.6098   1.6157   1.6192   1.6239   1.6259   1.6311   1.6328   1.6377
     1.6385   1.6489   1.6495   1.6507   1.6552   1.6575   1.6586   1.6617
     1.6724   1.6747   1.6786   1.6846   1.6914   1.7052   1.7098   1.7107
     1.7189   1.7215   1.7226   1.7255   1.7289   1.7327   1.7418   1.7478
     1.7532   1.7552   1.7570   1.7628   1.7663   1.7692   1.7742   1.7798
     1.7810   1.7855   1.7898   1.7904   1.7958   1.8006   1.8046   1.8125
     1.8247   1.8251   1.8256   1.8310   1.8380   1.8461   1.8477   1.8529
     1.8606   1.8656   1.8698   1.8731   1.8758   1.8785   1.8891   1.9155
     1.9232   1.9253   1.9295   2.0133   2.0265   2.0429   2.0460   2.0673
     2.0749   2.0898   2.0996   2.1038   2.1089   2.1316   2.1419   2.1486
     2.1528   2.1762   2.1904   2.1940   2.2185   2.4142   2.4911   2.5054
     2.5602   2.7455   2.7500   2.7669   2.8089   2.8242   2.8447   2.8788
     2.9011   2.9128   2.9301   2.9406   3.0209   3.0412   3.0514   3.0918
     3.0992   3.1549   3.2472   3.2549   3.3734   3.4933   3.4949   3.5437
     3.5608   3.6599   3.7249   3.8656   4.0202   4.0904   4.3114   4.3557
     4.3656   4.4357   4.4537   4.5047   4.5504   4.6210   4.6584   4.7068
     4.7998   4.8496   4.9308   4.9792   5.0411   5.0816   5.2180   5.3078
     5.3953   5.4113   5.5628   5.6326   5.6691   5.6865   5.7007   5.7160
     5.8520   5.8904   6.0181   6.0405   6.1621   6.2068   6.2332   6.6338
     6.6694   6.7180   6.7416   6.7643   6.8182   6.8668   6.9449   6.9847
     6.9858   7.0779   7.1382   7.1547   7.2866   7.3530   7.3589   7.3888
     7.4200   7.4391   7.4456   7.4627   7.4782   7.5291   7.5548   7.5960
     7.6421   7.6657   7.7058   7.7797   7.7976   8.0431   8.0692   8.1007
     8.1290   8.1444   8.4709   8.4932   8.5192   8.5345   8.5483   8.6155
     8.6617   8.6828   8.7096   8.7227   8.7622   8.8464   8.9071   8.9498
     8.9770   8.9925   9.0188   9.0614   9.0672   9.0979   9.1393   9.1713
     9.1868   9.1924   9.2004   9.3014   9.3538   9.3977   9.4140   9.4627
     9.5271   9.5417   9.6411   9.6502   9.6556   9.7203   9.7555   9.7666
     9.7851   9.8036   9.8635   9.9582   9.9590  10.0200  10.0663  10.1032
    10.2084  10.2228  10.2336

          k = 0.2500 0.0000 0.0000 (256240 PWs)   bands (ev):

   -15.9026 -15.5575 -15.5097 -14.9147 -14.5944 -14.5274 -14.4361 -14.3861
   -13.5061 -13.4242 -12.9876 -12.7301 -12.6118 -12.6018 -12.5898 -11.8002
   -11.6734 -11.6175 -11.5677 -10.7247 -10.4177 -10.3003 -10.2758  -9.9091
    -9.6040  -9.5202  -9.2885  -9.0998  -8.8852  -8.6348  -8.5611  -8.0691
    -7.1101  -7.0989  -7.0741  -7.0578  -6.9781  -6.9468  -6.4858  -6.2241
    -5.7012  -5.5305  -5.5041  -5.4759  -5.4509  -5.4284  -5.0145  -4.9852
    -4.7618  -4.7227  -4.5376  -4.3131  -4.2143  -4.1740  -4.1292  -4.0905
    -4.0066  -3.9264  -3.9062  -3.8693  -3.7554  -3.7011  -3.6888  -3.6439
    -3.6363  -3.5374  -3.4959  -3.4062  -3.2599  -3.2240  -3.1663  -3.1537
    -3.0909  -3.0864  -3.0716  -3.0203  -2.9858  -2.8992  -2.8826  -2.8427
    -2.7579  -2.6963  -2.6557  -2.6064  -2.5541  -2.5148  -2.4916  -2.4787
    -2.3858  -2.3398  -2.3020  -2.2309  -2.0882  -2.0620  -2.0228  -2.0005
    -1.9733  -1.9121  -1.7950  -1.7884  -1.7823  -1.7604  -1.7239  -1.6554
    -1.6386  -1.5896  -1.5651  -1.5307  -1.5207  -1.4965  -1.4889  -1.4839
    -1.4785  -1.4771  -1.4717  -1.4554  -1.4295  -1.4170  -1.3886  -1.3826
    -1.3563  -1.3340  -1.3129  -1.2961  -1.2792  -1.2704  -1.2634  -1.2601
    -1.2580  -1.2426  -1.2280  -1.2013  -1.1967  -1.1897  -1.1827  -1.1774
    -1.1717  -1.1556  -1.0717  -1.0462  -1.0201  -1.0096  -0.9894  -0.9704
    -0.9560  -0.9372  -0.9260  -0.9185  -0.9119  -0.9071  -0.8968  -0.8896
    -0.8757  -0.8736  -0.8676  -0.8607  -0.8533  -0.8443  -0.8310  -0.8191
    -0.8117  -0.8040  -0.7969  -0.7889  -0.7846  -0.7734  -0.7579  -0.7487
    -0.7422  -0.7372  -0.7311  -0.7218  -0.7053  -0.7024  -0.6989  -0.6916
    -0.6877  -0.6808  -0.6717  -0.6682  -0.6624  -0.6595  -0.6589  -0.6560
    -0.6475  -0.6440  -0.6374  -0.6287  -0.6085  -0.6050  -0.5880  -0.5784
    -0.5740  -0.5642  -0.5566  -0.5408  -0.5290  -0.5190  -0.5046  -0.4970
    -0.4909  -0.4818  -0.4716  -0.4612  -0.4569  -0.4473  -0.4449  -0.4336
    -0.4300  -0.4225  -0.4147  -0.4088  -0.4023  -0.3934  -0.3557  -0.2886
    -0.2826  -0.2780  -0.2629  -0.2547  -0.2482  -0.2435  -0.2326  -0.2273
    -0.2226  -0.2158  -0.2102  -0.2021  -0.1998  -0.1938  -0.1786  -0.1712
    -0.1674  -0.1621  -0.1570  -0.1517  -0.1431  -0.1382  -0.1343  -0.1292
    -0.1197  -0.0905  -0.0839  -0.0757  -0.0701  -0.0685  -0.0669  -0.0648
    -0.0592  -0.0516  -0.0435  -0.0285  -0.0172  -0.0096  -0.0068   0.0025
     0.0136   0.0167   0.0216   0.0245   0.0335   0.0348   0.0406   0.0514
     0.0574   0.0677   0.0719   0.0811   0.0858   0.0923   0.0954   0.1025
     0.1158   0.1169   0.1255   0.1302   0.1360   0.1388   0.1464   0.1522
     0.1570   0.1748   0.1819   0.1845   0.1888   0.2008   0.2046   0.2101
     0.2190   0.2275   0.2319   0.2402   0.2530   0.2631   0.2672   0.2775
     0.2841   0.2892   0.2995   0.3036   0.3068   0.3119   0.3199   0.3226
     0.3246   0.3286   0.3335   0.3382   0.3402   0.3472   0.3519   0.3538
     0.3605   0.3653   0.3680   0.3725   0.3769   0.3809   0.3877   0.3928
     0.3944   0.3982   0.4096   0.4188   0.4270   0.4317   0.4395   0.4469
     0.4509   0.4589   0.4709   0.4766   0.4790   0.4836   0.4907   0.4964
     0.5074   0.5140   0.5294   0.5400   0.5654   0.5759   0.5863   0.5887
     0.5990   0.6016   0.6040   0.6091   0.6138   0.6150   0.6183   0.6203
     0.6236   0.6276   0.6321   0.6399   0.6423   0.6461   0.6503   0.6578
     0.6612   0.6649   0.6663   0.6700   0.6730   0.6754   0.6825   0.7010
     0.7126   0.7217   0.7279   0.7313   0.7384   0.7501   0.7514   0.7657
     0.7755   0.7780   0.7841   0.7913   0.7935   0.8048   0.8090   0.8146
     0.8167   0.8209   0.8247   0.8261   0.8301   0.8368   0.8434   0.8490
     0.8539   0.8600   0.8656   0.8735   0.8785   0.8816   0.8877   0.8927
     0.9006   0.9016   0.9042   0.9137   0.9179   0.9227   0.9244   0.9325
     0.9347   0.9391   0.9450   0.9515   0.9533   0.9573   0.9653   0.9685
     0.9822   0.9876   0.9910   0.9967   0.9977   1.0004   1.0029   1.0081
     1.0205   1.0285   1.0305   1.0451   1.0495   1.0572   1.0648   1.0710
     1.0783   1.0827   1.0862   1.0910   1.1004   1.1071   1.1084   1.1106
     1.1189   1.1249   1.1307   1.1368   1.1414   1.1476   1.1544   1.1589
     1.1630   1.1691   1.1761   1.1857   1.1927   1.1956   1.2018   1.2106
     1.2129   1.2181   1.2227   1.2276   1.2308   1.2352   1.2370   1.2443
     1.2465   1.2586   1.2659   1.2695   1.2733   1.2787   1.2861   1.2887
     1.2941   1.3009   1.3067   1.3126   1.3163   1.3196   1.3224   1.3315
     1.3339   1.3377   1.3425   1.3487   1.3507   1.3545   1.3569   1.3591
     1.3622   1.3662   1.3689   1.3701   1.3729   1.3765   1.3817   1.3863
     1.3909   1.3984   1.4021   1.4049   1.4056   1.4075   1.4109   1.4161
     1.4192   1.4263   1.4298   1.4343   1.4412   1.4449   1.4487   1.4547
     1.4603   1.4649   1.4692   1.4729   1.4738   1.4817   1.4837   1.4896
     1.4936   1.5021   1.5052   1.5089   1.5191   1.5222   1.5254   1.5284
     1.5398   1.5437   1.5624   1.5676   1.5708   1.5768   1.5795   1.5819
     1.5856   1.5934   1.5959   1.5987   1.5993   1.6081   1.6103   1.6136
     1.6174   1.6191   1.6225   1.6279   1.6332   1.6358   1.6387   1.6423
     1.6446   1.6456   1.6490   1.6528   1.6551   1.6588   1.6658   1.6683
     1.6708   1.6724   1.6797   1.6842   1.6881   1.6928   1.6975   1.7002
     1.7057   1.7107   1.7156   1.7187   1.7242   1.7296   1.7328   1.7374
     1.7401   1.7479   1.7530   1.7584   1.7605   1.7615   1.7658   1.7691
     1.7722   1.7755   1.7789   1.7805   1.7843   1.7870   1.7913   1.7974
     1.8007   1.8029   1.8060   1.8087   1.8160   1.8220   1.8252   1.8286
     1.8338   1.8380   1.8449   1.8471   1.8501   1.8558   1.8590   1.8731
     1.8845   1.8893   1.8982   1.9157   1.9240   1.9569   1.9624   1.9648
     1.9728   1.9924   2.0037   2.0605   2.0806   2.1014   2.1098   2.1184
     2.1268   2.1650   2.1759   2.2960   2.3349   2.3612   2.3943   2.4130
     2.4421   2.4811   2.5239   2.5624   2.6126   2.8124   2.8843   2.8912
     2.9324   3.0653   3.2996   3.3073   3.3863   3.5090   3.5213   3.5474
     3.5485   3.5677   3.6031   3.7110   3.7760   3.8261   3.8906   3.9474
     3.9741   3.9879   4.0235   4.0414   4.0588   4.1023   4.1249   4.2089
     4.2675   4.3008   4.4053   4.4622   4.4834   4.6172   4.6369   4.7124
     4.8328   4.8677   5.0498   5.0935   5.1534   5.1774   5.3497   5.4887
     5.5310   5.5492   5.6054   5.6505   5.7150   5.7634   5.8090   5.8578
     5.8706   5.8817   5.9445   5.9616   6.0098   6.0474   6.0906   6.1079
     6.1890   6.2232   6.2998   6.3267   6.3710   6.3962   6.5153   6.6815
     6.9479   7.0196   7.0461   7.0739   7.0957   7.1387   7.1636   7.1712
     7.2586   7.3054   7.3336   7.3759   7.3885   7.4105   7.4873   7.5775
     7.5944   7.6191   7.7483   7.7848   7.7959   7.8375   7.8703   7.9407
     8.0462   8.0742   8.0839   8.1117   8.1791   8.2214   8.2870   8.3129
     8.3772   8.3836   8.4852   8.5014   8.5963   8.6195   8.6504   8.6854
     8.7038   8.7070   8.7335   8.7877   8.9217   8.9811   8.9973   9.0167
     9.1850   9.2167   9.2975   9.3775   9.4223   9.4475   9.4631   9.4744
     9.4930   9.5015   9.5144   9.5322   9.5456   9.5705   9.5777   9.5808
     9.6332   9.6679   9.7059   9.7414   9.8044   9.8191   9.9853  10.0395
    10.0950  10.1004  10.1638

          k = 0.2500-0.2165 0.0000 (256316 PWs)   bands (ev):

   -15.8117 -15.8091 -15.1225 -15.0288 -14.8231 -14.8084 -14.1373 -14.0529
   -13.6507 -13.5693 -12.9113 -12.8959 -12.7014 -12.6203 -12.2407 -12.1573
   -11.5711 -11.5052 -10.9842 -10.8731 -10.6943 -10.6267 -10.2976 -10.2470
    -9.6223  -9.1667  -9.0624  -8.6707  -8.6157  -8.5606  -8.4953  -8.0185
    -8.0038  -7.9164  -7.8855  -6.2522  -6.2291  -6.1883  -6.1465  -6.0811
    -6.0164  -5.8509  -5.7994  -5.5401  -5.4854  -5.4009  -5.3747  -4.7980
    -4.7067  -4.4955  -4.4373  -4.4074  -4.3840  -4.3607  -4.3101  -4.1076
    -4.0432  -4.0124  -3.9857  -3.9385  -3.7855  -3.7318  -3.7066  -3.6600
    -3.5483  -3.4458  -3.3735  -3.3002  -3.2456  -3.2089  -3.1626  -3.1476
    -3.1388  -3.0891  -3.0476  -2.9572  -2.8510  -2.8102  -2.7642  -2.7214
    -2.6441  -2.6249  -2.6153  -2.6064  -2.5892  -2.5520  -2.5155  -2.4553
    -2.4047  -2.3331  -2.2955  -2.1937  -2.1130  -2.0516  -2.0088  -1.9989
    -1.9282  -1.8917  -1.8733  -1.8606  -1.8565  -1.8202  -1.7278  -1.6963
    -1.6886  -1.6632  -1.6538  -1.6049  -1.5163  -1.5076  -1.5046  -1.4986
    -1.4900  -1.4488  -1.4233  -1.4123  -1.4099  -1.3965  -1.3925  -1.3844
    -1.3790  -1.3736  -1.3655  -1.3605  -1.3551  -1.3529  -1.3411  -1.3175
    -1.3015  -1.2808  -1.2649  -1.2583  -1.2179  -1.1547  -1.1446  -1.0748
    -1.0429  -1.0174  -1.0107  -1.0025  -0.9761  -0.9655  -0.9630  -0.9561
    -0.9469  -0.9444  -0.9370  -0.9295  -0.9239  -0.9167  -0.9103  -0.9050
    -0.8998  -0.8957  -0.8896  -0.8779  -0.8726  -0.8699  -0.8587  -0.8523
    -0.8332  -0.8200  -0.8134  -0.8055  -0.7973  -0.7958  -0.7899  -0.7869
    -0.7813  -0.7636  -0.7514  -0.7302  -0.7185  -0.7103  -0.7064  -0.7036
    -0.6954  -0.6880  -0.6760  -0.6740  -0.6607  -0.6503  -0.6426  -0.6409
    -0.6331  -0.6291  -0.6246  -0.6100  -0.5960  -0.5938  -0.5845  -0.5679
    -0.5575  -0.5535  -0.5410  -0.5384  -0.5369  -0.5240  -0.4686  -0.4611
    -0.4524  -0.4506  -0.4427  -0.4414  -0.4229  -0.4038  -0.3972  -0.3881
    -0.3844  -0.3776  -0.3688  -0.3661  -0.3601  -0.3420  -0.3310  -0.3222
    -0.3078  -0.2973  -0.2863  -0.2750  -0.2603  -0.2495  -0.2415  -0.2406
    -0.2362  -0.2240  -0.2112  -0.2049  -0.1980  -0.1907  -0.1848  -0.1816
    -0.1717  -0.1650  -0.1601  -0.1432  -0.1390  -0.1335  -0.1231  -0.1171
    -0.0982  -0.0944  -0.0849  -0.0760  -0.0714  -0.0669  -0.0564  -0.0536
    -0.0449  -0.0420  -0.0409  -0.0361  -0.0329  -0.0293  -0.0262  -0.0155
    -0.0093  -0.0055   0.0001   0.0113   0.0165   0.0294   0.0333   0.0463
     0.0501   0.0585   0.0675   0.0755   0.0812   0.0856   0.0871   0.0931
     0.1056   0.1104   0.1141   0.1163   0.1354   0.1469   0.1579   0.1681
     0.1751   0.1871   0.2037   0.2101   0.2131   0.2282   0.2301   0.2334
     0.2379   0.2414   0.2523   0.2596   0.2618   0.2661   0.2728   0.2748
     0.2788   0.2860   0.2870   0.2933   0.2988   0.3031   0.3103   0.3154
     0.3186   0.3238   0.3252   0.3275   0.3320   0.3355   0.3391   0.3422
     0.3477   0.3529   0.3595   0.3643   0.3727   0.3798   0.3850   0.3886
     0.4017   0.4064   0.4109   0.4196   0.4308   0.4355   0.4507   0.4537
     0.4634   0.4687   0.4738   0.4797   0.4831   0.4857   0.4907   0.4958
     0.4973   0.4996   0.5087   0.5153   0.5203   0.5339   0.5470   0.5597
     0.5756   0.5923   0.5993   0.6062   0.6145   0.6202   0.6213   0.6259
     0.6291   0.6308   0.6376   0.6412   0.6483   0.6556   0.6570   0.6625
     0.6633   0.6657   0.6703   0.6746   0.6855   0.6890   0.7016   0.7068
     0.7209   0.7256   0.7303   0.7383   0.7417   0.7478   0.7536   0.7620
     0.7746   0.7865   0.7896   0.7931   0.7991   0.8045   0.8081   0.8105
     0.8177   0.8202   0.8259   0.8298   0.8318   0.8404   0.8512   0.8555
     0.8630   0.8707   0.8784   0.8826   0.8924   0.8970   0.9021   0.9087
     0.9171   0.9239   0.9353   0.9395   0.9437   0.9482   0.9498   0.9556
     0.9572   0.9618   0.9656   0.9694   0.9749   0.9829   0.9879   0.9899
     0.9952   0.9981   1.0004   1.0039   1.0060   1.0092   1.0120   1.0164
     1.0204   1.0240   1.0299   1.0344   1.0388   1.0411   1.0468   1.0474
     1.0529   1.0552   1.0579   1.0628   1.0737   1.0825   1.0889   1.0935
     1.1007   1.1033   1.1071   1.1224   1.1359   1.1413   1.1470   1.1570
     1.1596   1.1645   1.1670   1.1751   1.1766   1.1853   1.1877   1.1909
     1.1922   1.1941   1.1983   1.2022   1.2067   1.2112   1.2211   1.2251
     1.2317   1.2387   1.2443   1.2499   1.2584   1.2649   1.2690   1.2743
     1.2802   1.2858   1.2888   1.2967   1.3025   1.3049   1.3114   1.3124
     1.3172   1.3248   1.3287   1.3374   1.3408   1.3502   1.3568   1.3645
     1.3657   1.3746   1.3854   1.3906   1.3990   1.4026   1.4086   1.4151
     1.4179   1.4209   1.4239   1.4269   1.4284   1.4291   1.4316   1.4355
     1.4366   1.4415   1.4463   1.4518   1.4579   1.4615   1.4681   1.4743
     1.4837   1.4944   1.4970   1.4997   1.5045   1.5062   1.5111   1.5132
     1.5155   1.5191   1.5235   1.5282   1.5302   1.5306   1.5352   1.5367
     1.5388   1.5409   1.5433   1.5472   1.5511   1.5540   1.5574   1.5604
     1.5630   1.5687   1.5775   1.5823   1.5847   1.5913   1.6035   1.6048
     1.6091   1.6117   1.6192   1.6204   1.6253   1.6337   1.6394   1.6436
     1.6471   1.6512   1.6566   1.6619   1.6639   1.6661   1.6722   1.6761
     1.6800   1.6834   1.6853   1.6878   1.6940   1.6989   1.7038   1.7071
     1.7080   1.7147   1.7184   1.7209   1.7235   1.7259   1.7296   1.7335
     1.7368   1.7401   1.7413   1.7460   1.7475   1.7525   1.7596   1.7608
     1.7662   1.7719   1.7737   1.7755   1.7767   1.7788   1.7807   1.7829
     1.7872   1.7933   1.7958   1.7989   1.8188   1.8193   1.8229   1.8320
     1.8343   1.8403   1.8417   1.8527   1.8626   1.8680   1.8707   1.8878
     1.8921   1.8952   1.9038   1.9152   1.9200   1.9324   1.9719   1.9803
     2.0091   2.0173   2.0471   2.0796   2.0893   2.0957   2.1041   2.1112
     2.1208   2.1234   2.1467   2.1650   2.1920   2.2723   2.4558   2.4585
     2.4862   2.5092   2.5814   2.6206   2.7720   2.9085   2.9170   3.0987
     3.1047   3.1165   3.1187   3.1330   3.1432   3.2017   3.2699   3.3263
     3.3395   3.4074   3.5360   3.6698   3.8578   3.8853   3.9256   3.9680
     3.9865   4.1113   4.1446   4.1690   4.2121   4.3084   4.3375   4.3757
     4.3884   4.4710   4.4906   4.5607   4.6826   4.7003   4.7318   4.8393
     4.8821   4.9660   4.9810   5.0189   5.0763   5.1108   5.1679   5.2346
     5.2848   5.3138   5.3600   5.4761   5.5617   5.6419   5.6847   5.7191
     5.7560   5.7721   5.7930   5.8667   6.0078   6.0602   6.0947   6.1350
     6.2161   6.2370   6.3179   6.3662   6.4207   6.8220   6.8711   6.8991
     6.9327   6.9851   7.0526   7.1052   7.1601   7.2172   7.2816   7.3205
     7.3438   7.3964   7.4166   7.4600   7.5304   7.5403   7.5705   7.5972
     7.6275   7.6674   7.6929   7.6994   7.7246   7.7363   7.7489   7.7605
     7.9334   7.9549   8.0325   8.1102   8.1992   8.2203   8.3040   8.3151
     8.4240   8.4460   8.4996   8.5298   8.5484   8.7067   8.7089   8.7313
     8.7857   8.8753   8.9258   8.9569   9.0208   9.0281   9.0361   9.0667
     9.0912   9.1143   9.1446   9.1721   9.2207   9.2499   9.2978   9.3592
     9.3617   9.3893   9.4174   9.4608   9.4923   9.5235   9.5468   9.6002
     9.6162   9.6474   9.6582   9.6672   9.6993   9.7095   9.7525   9.7909
    10.0498  10.0877  10.1164

          k =-0.5000 0.0000 0.0000 (256496 PWs)   bands (ev):

   -15.5627 -15.5079 -15.2362 -15.1473 -15.1350 -15.1161 -14.1503 -14.0487
   -14.0260 -14.0183 -12.4285 -12.2724 -12.2542 -12.2310 -11.7604 -11.6834
   -11.4861 -11.3661 -11.3572 -11.3343 -10.7953 -10.7165 -10.4325 -10.3035
    -9.8487  -9.6872  -9.3261  -9.2985  -9.2202  -8.4798  -8.4558  -8.4405
    -8.3396  -6.9999  -6.9642  -6.9244  -6.9130  -6.8992  -6.8448  -5.4591
    -5.4353  -5.0138  -4.9918  -4.8127  -4.7321  -4.5629  -4.5207  -4.5059
    -4.5031  -4.4587  -4.3998  -4.3240  -4.3046  -4.2699  -4.2458  -4.2314
    -4.2221  -4.1003  -4.0158  -4.0110  -3.9649  -3.9512  -3.9144  -3.7433
    -3.7100  -3.6539  -3.6497  -3.6347  -3.4332  -3.3600  -3.3275  -3.2247
    -3.2137  -3.1325  -3.1269  -3.1076  -3.0703  -3.0227  -2.9517  -2.9430
    -2.9243  -2.9053  -2.8794  -2.7323  -2.7075  -2.4737  -2.4021  -2.3460
    -2.3438  -2.3261  -2.3075  -2.2928  -2.2443  -2.2131  -2.1922  -2.0614
    -2.0459  -2.0055  -2.0023  -1.9951  -1.8934  -1.8434  -1.6003  -1.5747
    -1.5714  -1.5656  -1.5618  -1.5521  -1.4863  -1.4535  -1.4417  -1.4311
    -1.4235  -1.3394  -1.3304  -1.3264  -1.3089  -1.3001  -1.2895  -1.2832
    -1.2677  -1.2307  -1.1996  -1.1936  -1.1729  -1.1695  -1.1524  -1.1160
    -1.1064  -1.1039  -1.0964  -1.0907  -1.0887  -1.0792  -1.0527  -1.0471
    -1.0422  -1.0412  -1.0347  -1.0326  -1.0279  -1.0139  -1.0112  -1.0081
    -0.9960  -0.9847  -0.9779  -0.9748  -0.9718  -0.9664  -0.9568  -0.9505
    -0.9439  -0.9314  -0.9002  -0.8897  -0.8840  -0.8794  -0.8669  -0.8637
    -0.8560  -0.8390  -0.8352  -0.8341  -0.8273  -0.8239  -0.8173  -0.7992
    -0.7945  -0.7907  -0.7784  -0.7702  -0.7664  -0.7623  -0.7476  -0.7388
    -0.7258  -0.7080  -0.6813  -0.6770  -0.6643  -0.6609  -0.6560  -0.6535
    -0.6402  -0.6379  -0.6282  -0.6230  -0.6168  -0.6115  -0.6077  -0.6038
    -0.6015  -0.5966  -0.5889  -0.5826  -0.5668  -0.5592  -0.5461  -0.5204
    -0.5184  -0.5083  -0.5048  -0.4691  -0.4566  -0.4221  -0.3988  -0.3960
    -0.3951  -0.3765  -0.3632  -0.3540  -0.3430  -0.3393  -0.3349  -0.3320
    -0.3194  -0.3138  -0.3100  -0.3031  -0.2947  -0.2915  -0.2876  -0.2831
    -0.2722  -0.2698  -0.2638  -0.2497  -0.2445  -0.2190  -0.1948  -0.1691
    -0.1551  -0.1459  -0.1401  -0.1355  -0.1264  -0.1235  -0.1124  -0.0975
    -0.0844  -0.0825  -0.0786  -0.0715  -0.0661  -0.0553  -0.0469  -0.0433
    -0.0413  -0.0387  -0.0375  -0.0175  -0.0150  -0.0088  -0.0066   0.0068
     0.0104   0.0156   0.0266   0.0311   0.0334   0.0415   0.0506   0.0635
     0.0685   0.0764   0.0770   0.0799   0.0884   0.0981   0.1088   0.1119
     0.1226   0.1353   0.1434   0.1675   0.1696   0.1897   0.1916   0.1993
     0.2040   0.2076   0.2087   0.2229   0.2315   0.2374   0.2423   0.2571
     0.2668   0.2838   0.2933   0.2969   0.3024   0.3042   0.3106   0.3116
     0.3135   0.3158   0.3206   0.3232   0.3280   0.3372   0.3495   0.3639
     0.3733   0.3761   0.3779   0.3835   0.3886   0.3919   0.3991   0.4010
     0.4058   0.4104   0.4116   0.4150   0.4178   0.4263   0.4294   0.4321
     0.4374   0.4407   0.4436   0.4456   0.4526   0.4533   0.4549   0.4563
     0.4574   0.4584   0.4638   0.4677   0.4713   0.4755   0.4776   0.4836
     0.4872   0.4897   0.4922   0.4987   0.5026   0.5123   0.5229   0.5351
     0.5615   0.5936   0.6120   0.6214   0.6278   0.6306   0.6379   0.6434
     0.6443   0.6497   0.6553   0.6591   0.6618   0.6640   0.6674   0.6718
     0.6763   0.6805   0.6815   0.6848   0.6870   0.6912   0.6914   0.6998
     0.7007   0.7041   0.7047   0.7078   0.7101   0.7150   0.7188   0.7268
     0.7304   0.7376   0.7430   0.7566   0.7670   0.7807   0.7861   0.7989
     0.8185   0.8202   0.8258   0.8356   0.8396   0.8456   0.8488   0.8568
     0.8578   0.8622   0.8665   0.8697   0.8705   0.8712   0.8753   0.8773
     0.8803   0.8813   0.8823   0.8852   0.8898   0.8960   0.9016   0.9108
     0.9168   0.9216   0.9274   0.9294   0.9405   0.9511   0.9533   0.9535
     0.9582   0.9600   0.9675   0.9707   0.9731   0.9778   0.9786   0.9855
     0.9905   0.9912   0.9920   0.9960   0.9975   1.0017   1.0099   1.0216
     1.0318   1.0359   1.0418   1.0479   1.0524   1.0558   1.0585   1.0626
     1.0687   1.0960   1.0977   1.1016   1.1083   1.1098   1.1143   1.1285
     1.1440   1.1518   1.1635   1.1690   1.1729   1.1739   1.1758   1.1767
     1.1786   1.1799   1.1841   1.1865   1.1967   1.2004   1.2032   1.2076
     1.2109   1.2188   1.2229   1.2290   1.2309   1.2341   1.2396   1.2457
     1.2490   1.2527   1.2554   1.2582   1.2656   1.2800   1.2805   1.2959
     1.3010   1.3265   1.3389   1.3440   1.3488   1.3528   1.3539   1.3614
     1.3750   1.3799   1.3895   1.3914   1.3964   1.3976   1.4048   1.4058
     1.4141   1.4200   1.4227   1.4268   1.4370   1.4405   1.4456   1.4480
     1.4526   1.4579   1.4590   1.4602   1.4625   1.4629   1.4665   1.4717
     1.4740   1.4765   1.4795   1.4829   1.4851   1.4922   1.4969   1.5076
     1.5108   1.5135   1.5180   1.5269   1.5335   1.5355   1.5404   1.5477
     1.5518   1.5544   1.5628   1.5655   1.5718   1.5770   1.5779   1.5794
     1.5808   1.5812   1.5861   1.5881   1.5888   1.5909   1.6016   1.6066
     1.6142   1.6199   1.6236   1.6286   1.6387   1.6399   1.6426   1.6513
     1.6532   1.6551   1.6559   1.6582   1.6603   1.6605   1.6615   1.6636
     1.6654   1.6675   1.6696   1.6706   1.6753   1.6766   1.6807   1.6818
     1.6849   1.6854   1.6875   1.6911   1.6949   1.7027   1.7081   1.7147
     1.7165   1.7192   1.7236   1.7331   1.7400   1.7455   1.7465   1.7520
     1.7550   1.7572   1.7670   1.7685   1.7709   1.7759   1.7803   1.7822
     1.7856   1.7890   1.7909   1.7985   1.8016   1.8067   1.8072   1.8098
     1.8124   1.8172   1.8197   1.8216   1.8300   1.8362   1.8388   1.8491
     1.8509   1.8532   1.8551   1.8559   1.8652   1.8735   1.8842   1.8917
     1.9132   1.9215   1.9364   1.9441   1.9478   1.9517   1.9678   1.9784
     2.2471   2.3530   2.3813   2.3937   2.5014   2.5518   2.5655   2.5825
     2.6129   2.6170   2.6348   2.6429   2.7450   2.9216   2.9487   2.9772
     3.1332   3.1598   3.1766   3.1948   3.3101   3.4855   3.4915   3.5150
     3.5249   3.6557   3.8056   3.8698   4.0394   4.0867   4.1079   4.1854
     4.2301   4.2399   4.2578   4.3306   4.3790   4.3946   4.4300   4.4370
     4.5106   4.7354   4.8066   4.8947   4.9654   5.0329   5.0503   5.0793
     5.0937   5.1282   5.1592   5.1913   5.2236   5.2460   5.3132   5.3291
     5.3535   5.3580   5.3653   5.3826   5.4110   5.4186   5.4822   5.5173
     5.5469   5.6368   5.6895   5.8281   5.8338   5.8633   5.9105   5.9925
     6.0267   6.0405   6.2232   6.2714   6.2972   6.3088   6.3394   6.3552
     6.3795   6.4220   6.5256   6.6140   6.6805   6.7332   6.7603   6.8325
     6.8494   6.8804   6.9503   7.3557   7.3906   7.4287   7.4697   7.5091
     7.5759   7.7791   7.8653   7.8985   7.9023   7.9109   7.9257   7.9401
     8.0715   8.0831   8.0966   8.1171   8.1428   8.1689   8.1865   8.2243
     8.2758   8.3042   8.3389   8.3424   8.3899   8.4084   8.4228   8.4741
     8.5046   8.5820   8.5879   8.5944   8.6984   8.7033   8.7924   9.1200
     9.1493   9.1668   9.1758   9.2092   9.2220   9.2297   9.2303   9.2906
     9.3600   9.3845   9.4637   9.4955   9.5063   9.5267   9.5691   9.6121
     9.7187   9.7339   9.7816   9.7974   9.8456   9.8509   9.8827   9.9161
     9.9717   9.9823   9.9896

          k =-0.5000-0.2165 0.0000 (256328 PWs)   bands (ev):

   -15.5010 -15.4425 -15.4334 -15.3809 -14.7891 -14.6861 -14.6610 -14.6563
   -13.3559 -13.2440 -13.2162 -13.2034 -11.7847 -11.6255 -11.6238 -11.5736
   -11.3324 -11.1866 -11.1627 -11.1530 -11.0441 -10.9917 -10.9782 -10.9621
    -9.7524  -9.3118  -9.2772  -9.2258  -8.9754  -8.3348  -8.3099  -8.2896
    -8.2597  -7.5818  -7.5684  -7.5319  -7.4822  -5.5443  -5.5092  -5.4812
    -5.4486  -4.9233  -4.9093  -4.8809  -4.8770  -4.8700  -4.8513  -4.8369
    -4.8278  -4.7189  -4.6468  -4.6449  -4.5841  -4.2085  -4.0374  -4.0136
    -3.9824  -3.9129  -3.8979  -3.8855  -3.8756  -3.8011  -3.7647  -3.7415
    -3.7178  -3.6459  -3.5507  -3.5407  -3.5329  -3.4255  -3.3376  -3.2738
    -3.2445  -3.2333  -3.2195  -3.2050  -3.1852  -3.0777  -3.0629  -3.0207
    -2.9046  -2.8640  -2.8043  -2.6910  -2.6749  -2.5391  -2.2965  -2.2732
    -2.2676  -2.2627  -2.2200  -2.2133  -2.1974  -2.1455  -2.0576  -1.9513
    -1.8932  -1.8848  -1.8405  -1.7782  -1.7715  -1.7581  -1.7398  -1.7102
    -1.7062  -1.7017  -1.6635  -1.6246  -1.6031  -1.5276  -1.5115  -1.4942
    -1.4924  -1.4768  -1.4521  -1.3477  -1.3319  -1.3088  -1.2598  -1.2339
    -1.1955  -1.1830  -1.1808  -1.1672  -1.1561  -1.1430  -1.1380  -1.1296
    -1.1235  -1.1190  -1.1175  -1.1146  -1.1116  -1.0921  -1.0742  -1.0703
    -1.0678  -1.0658  -1.0633  -1.0584  -1.0512  -1.0476  -1.0454  -1.0428
    -1.0414  -1.0275  -0.9923  -0.9904  -0.9722  -0.9699  -0.9402  -0.9241
    -0.9172  -0.8834  -0.8761  -0.8741  -0.8723  -0.8670  -0.8609  -0.8536
    -0.8293  -0.8246  -0.8179  -0.8117  -0.8047  -0.8030  -0.8004  -0.7979
    -0.7951  -0.7914  -0.7738  -0.7712  -0.7602  -0.7482  -0.7392  -0.7343
    -0.7316  -0.7254  -0.7232  -0.7208  -0.7179  -0.7149  -0.7131  -0.7120
    -0.7052  -0.6776  -0.6683  -0.6188  -0.6053  -0.5687  -0.5593  -0.5585
    -0.5534  -0.5444  -0.5392  -0.5368  -0.5350  -0.5240  -0.5098  -0.4788
    -0.4727  -0.4491  -0.4441  -0.4419  -0.4402  -0.4387  -0.4315  -0.4253
    -0.4188  -0.4144  -0.3993  -0.3949  -0.3829  -0.3811  -0.3757  -0.3647
    -0.3575  -0.3551  -0.3456  -0.3420  -0.3376  -0.3315  -0.3219  -0.2706
    -0.2619  -0.2496  -0.2434  -0.2354  -0.2280  -0.2207  -0.2084  -0.1898
    -0.1799  -0.1668  -0.1593  -0.1512  -0.1359  -0.1227  -0.1190  -0.1063
    -0.1036  -0.0987  -0.0978  -0.0931  -0.0870  -0.0762  -0.0740  -0.0690
    -0.0631  -0.0563  -0.0485  -0.0454  -0.0352  -0.0194   0.0058   0.0300
     0.0386   0.0484   0.0496   0.0597   0.0652   0.0704   0.0736   0.0757
     0.0835   0.0846   0.0982   0.1090   0.1345   0.1406   0.1536   0.1588
     0.1681   0.1734   0.1747   0.1750   0.1833   0.1886   0.1921   0.1965
     0.2092   0.2154   0.2184   0.2241   0.2271   0.2293   0.2341   0.2369
     0.2389   0.2457   0.2521   0.2596   0.2695   0.2845   0.2939   0.3038
     0.3072   0.3215   0.3345   0.3414   0.3425   0.3629   0.3757   0.3796
     0.3914   0.3956   0.3964   0.4042   0.4057   0.4087   0.4124   0.4143
     0.4179   0.4201   0.4230   0.4258   0.4310   0.4325   0.4362   0.4394
     0.4413   0.4439   0.4452   0.4459   0.4506   0.4542   0.4576   0.4614
     0.4656   0.4708   0.4768   0.4848   0.4859   0.4890   0.4907   0.4938
     0.4973   0.5044   0.5191   0.5227   0.5288   0.5366   0.5462   0.5492
     0.5553   0.5669   0.5789   0.5827   0.6011   0.6273   0.6324   0.6400
     0.6441   0.6503   0.6554   0.6680   0.6692   0.6757   0.6768   0.6825
     0.6866   0.6915   0.6919   0.6950   0.6972   0.6998   0.7009   0.7038
     0.7091   0.7116   0.7133   0.7217   0.7242   0.7314   0.7358   0.7425
     0.7515   0.7575   0.7668   0.7750   0.7879   0.7928   0.7979   0.8013
     0.8029   0.8037   0.8063   0.8107   0.8166   0.8180   0.8300   0.8368
     0.8399   0.8416   0.8463   0.8530   0.8545   0.8616   0.8632   0.8731
     0.8836   0.8869   0.8885   0.8965   0.8988   0.9014   0.9055   0.9099
     0.9109   0.9121   0.9159   0.9201   0.9213   0.9265   0.9309   0.9388
     0.9414   0.9448   0.9472   0.9600   0.9648   0.9687   0.9884   0.9987
[...]
     atom   37 type  1   force =     0.00028777   -0.00025295   -0.00048064
     atom   38 type  1   force =    -0.00055369    0.00072015   -0.00033871
     atom   39 type  1   force =     0.00028815    0.00122095   -0.00020603
     atom   40 type  1   force =     0.00137074    0.00134185    0.00018746
     atom   41 type  1   force =     0.00029667   -0.00143333   -0.00057248
     atom   42 type  1   force =     0.00056137    0.00027390   -0.00054949
     atom   43 type  1   force =     0.00059076    0.00004062    0.00053371
     atom   44 type  1   force =    -0.00057013    0.00009486   -0.00013086
     atom   45 type  1   force =     0.00033831    0.00008766   -0.00025582
     atom   46 type  1   force =     0.00128831    0.00065320    0.00031508
     atom   47 type  1   force =    -0.00077341    0.00011950   -0.00012838
     atom   48 type  1   force =    -0.00001333    0.00229229    0.00054274
     atom   49 type  1   force =    -0.00166012   -0.00189681    0.00143790
     atom   50 type  1   force =     0.00085251    0.00037373    0.00000401
     atom   51 type  1   force =    -0.00015221   -0.00053219    0.00111722
     atom   52 type  1   force =    -0.00013943   -0.00113278    0.00083497
     atom   53 type  1   force =    -0.00004225   -0.00036708   -0.00031774
     atom   54 type  1   force =     0.00039095    0.00091682   -0.00085401
     atom   55 type  1   force =    -0.00004936   -0.00063900   -0.00092183
     atom   56 type  1   force =     0.00003765    0.00061391   -0.00032796
     atom   57 type  1   force =     0.00060081    0.00158313   -0.00232178
     atom   58 type  1   force =    -0.00013350   -0.00015513   -0.00042564
     atom   59 type  1   force =     0.00067328    0.00053418    0.00031714
     atom   60 type  1   force =     0.00137211    0.00045434   -0.00087516
     atom   61 type  1   force =     0.00045152    0.00087745   -0.00046554
     atom   62 type  1   force =     0.00151552    0.00033037    0.00018540
     atom   63 type  1   force =    -0.00015737    0.00152915   -0.00031383
     atom   64 type  1   force =    -0.00031957   -0.00079850   -0.00057365
     atom   65 type  1   force =    -0.00063802    0.00023463    0.00144317
     atom   66 type  1   force =     0.00216835    0.00106459    0.00112014
     atom   67 type  1   force =     0.00003901   -0.00360189   -0.00266110
     atom   68 type  1   force =    -0.00006671    0.00156790    0.00060424
     atom   69 type  1   force =    -0.00043769   -0.00160813    0.00091999
     atom   70 type  1   force =    -0.00234322   -0.00000067   -0.00361172
     atom   71 type  1   force =    -0.00032227    0.00439966   -0.00445261
     atom   72 type  1   force =     0.00381003   -0.00079879   -0.00345556
     atom   73 type  1   force =    -0.00090664    0.00041791   -0.00219684
     atom   74 type  1   force =     0.00137518   -0.00109582   -0.00013667
     atom   75 type  1   force =     0.00007499   -0.00069135   -0.00070114
     atom   76 type  1   force =    -0.00058988   -0.00147034    0.00008130
     atom   77 type  1   force =     0.00082022   -0.00014018   -0.00113664
     atom   78 type  1   force =     0.00082065    0.00074600   -0.00013979
     atom   79 type  1   force =     0.00066177    0.00004232    0.00054355
     atom   80 type  1   force =    -0.00083879    0.00106388   -0.00029531
     atom   81 type  1   force =     0.00142754   -0.00078110    0.00046367
     atom   82 type  1   force =     0.00179856    0.00100835   -0.00034924
     atom   83 type  1   force =    -0.00010367    0.00073946   -0.00028858
     atom   84 type  1   force =    -0.00050858   -0.00035794    0.00066894
     atom   85 type  1   force =     0.00286133    0.00123622    0.00122072
     atom   86 type  1   force =    -0.00230336   -0.00393921   -0.00487394
     atom   87 type  1   force =    -0.00052112   -0.00033053    0.00099700
     atom   88 type  1   force =     0.00279915   -0.00242715   -0.00013557
     atom   89 type  1   force =    -0.00131584   -0.00015639    0.00067027
     atom   90 type  1   force =     0.00244000    0.00065097    0.00221100
     atom   91 type  1   force =     0.00800842    0.00716432   -0.01195744
     atom   92 type  1   force =    -0.00048532    0.00038291   -0.00105427
     atom   93 type  1   force =    -0.00154384   -0.00136982    0.00079161
     atom   94 type  1   force =     0.00174147    0.00097150   -0.00007270
     atom   95 type  1   force =     0.00079672   -0.00010420   -0.00045903
     atom   96 type  1   force =    -0.00057772    0.00104600   -0.00019241
     atom   97 type  1   force =     0.00062676   -0.00030994   -0.00088028
     atom   98 type  1   force =     0.00046643   -0.00006249   -0.00094705
     atom   99 type  1   force =    -0.00076741   -0.00011891   -0.00038004
     atom  100 type  1   force =     0.00056800   -0.00003620   -0.00105326
     atom  101 type  2   force =    -0.00005980    0.00290650   -0.00027683
     atom  102 type  2   force =    -0.00017330   -0.00008621   -0.00231756
     atom  103 type  2   force =    -0.00252067    0.00243021    0.00041777
     atom  104 type  2   force =    -0.00113067    0.00017290    0.00277106
     atom  105 type  2   force =    -0.00085088    0.00178526    0.00121902
     atom  106 type  2   force =    -0.00099093   -0.00047098    0.00037470
     atom  107 type  2   force =    -0.00072729    0.00265258    0.00044506
     atom  108 type  2   force =    -0.00091201    0.00105609    0.00123742
     atom  109 type  2   force =     0.00035676    0.00153512   -0.00045027
     atom  110 type  2   force =     0.00258382   -0.00103720    0.00347980
     atom  111 type  2   force =    -0.00090361    0.00230250    0.00111463
     atom  112 type  2   force =    -0.00165322    0.00053175   -0.00365869
     atom  113 type  2   force =    -0.00238244   -0.00069125    0.00101914
     atom  114 type  2   force =     0.00129445   -0.00138551   -0.00120742
     atom  115 type  2   force =    -0.00077317   -0.00454776   -0.00151802
     atom  116 type  2   force =    -0.00373721    0.00083581    0.00590363
     atom  117 type  2   force =    -0.00076335   -0.00203155    0.00858910
     atom  118 type  2   force =    -0.00449787   -0.00329859    0.00124824
     atom  119 type  2   force =    -0.00216928   -0.00593330   -0.00187235
     atom  120 type  2   force =     0.00137522   -0.00126852   -0.00492166
     atom  121 type  2   force =    -0.00092509   -0.00443439    0.00350399
     atom  122 type  3   force =    -0.00380710    0.00484285    0.00245569
     atom  123 type  3   force =    -0.00094678    0.00546668    0.00495876
     atom  124 type  2   force =     0.00291972   -0.00004249    0.00049346
     atom  125 type  2   force =     0.00139638   -0.00275396    0.00657310
     atom  126 type  2   force =     0.00122693   -0.00444664    0.00292449
     atom  127 type  2   force =    -0.00079891    0.00095040   -0.00013278
     atom  128 type  2   force =    -0.00015548   -0.00022710    0.00025085
     atom  129 type  2   force =     0.00020708    0.00217964    0.00063862
     atom  130 type  2   force =    -0.00381456    0.00157345   -0.00013859
     atom  131 type  2   force =    -0.00301516   -0.00080193   -0.00116155
     atom  132 type  2   force =     0.00028217    0.00374314    0.00286927
     atom  133 type  2   force =    -0.00106920   -0.00041954    0.00150213
     atom  134 type  2   force =    -0.00014257    0.00201380    0.00213255
     atom  135 type  2   force =     0.00006778   -0.00204085   -0.00060959
     atom  136 type  2   force =    -0.00028490   -0.00148803   -0.00113700
     atom  137 type  2   force =     0.00239333    0.00159794    0.00136514
     atom  138 type  2   force =     0.00184114    0.00342203    0.00115370
     atom  139 type  2   force =    -0.00159194   -0.00207596   -0.00302967
     atom  140 type  2   force =    -0.00185891   -0.00072646    0.00061519
     atom  141 type  2   force =    -0.00173079   -0.00364248    0.00050956
     atom  142 type  2   force =    -0.00106222   -0.00323474   -0.00268146
     atom  143 type  2   force =    -0.00089790    0.00242841   -0.00101396
     atom  144 type  2   force =     0.00037394   -0.00039251   -0.00092670
     atom  145 type  2   force =    -0.00172281   -0.00160295    0.00066531
     atom  146 type  2   force =    -0.00108087   -0.00372197    0.00136633
     atom  147 type  2   force =     0.00087514    0.00262769    0.00154663
     atom  148 type  2   force =    -0.00047305    0.00039525   -0.00011461
     atom  149 type  2   force =    -0.00187986   -0.00185530   -0.00088292
     atom  150 type  2   force =    -0.00031180   -0.00355396   -0.00133605
     atom  151 type  2   force =     0.00119622    0.00177495    0.00101428

     Total force =     0.037846     Total SCF correction =     0.000441

     number of scf cycles    =  12
     number of bfgs steps    =  11

     energy   old            =  -12712.4312605042 Ry
     energy   new            =  -12712.4334821591 Ry

     CASE: energy  _new < energy  _old

     new trust radius        =       0.1181756054 bohr
     new conv_thr            =       0.0000000100 Ry


ATOMIC_POSITIONS (angstrom)
Cu       0.003681523  -0.017714390   7.307052214
Cu       1.852346906   1.675983394   7.318555955
Cu       3.687116577  -0.029697457   7.315843529
Cu       5.529985616   1.673766050   7.319090792
Cu       0.002121422   3.383644019   7.330705660
Cu       1.851810326   5.097961862   7.341408596
Cu       3.696763404   3.383615929   7.325364183
Cu       5.542982110   5.098165254   7.341976066
Cu       0.010673008   6.812326216   7.347192473
Cu       1.849868736   8.530093060   7.335591789
Cu       3.696414983   6.811766423   7.350284635
Cu       5.546508400   8.528883921   7.339903167
Cu       0.004501416  10.257151580   7.313596873
Cu       1.857572412  11.965317771   7.299861751
Cu       3.695929522  10.250960531   7.312027105
Cu       5.526032119  11.966409107   7.294607578
Cu       0.001596285  13.645750971   7.305944303
Cu       1.834836616  15.331686555   7.304651492
Cu       3.690057546  13.657454025   7.291297091
Cu       5.544448040  15.332851185   7.303354472
Cu       0.006118057   1.674016005   9.154047001
Cu       1.851586999  -0.018002944   9.162399172
Cu       3.694956560   1.679689421   9.158119072
Cu       5.532683874  -0.021663078   9.159666108
Cu       0.016618293   5.091941092   9.161363846
Cu       1.854103755   3.378045420   9.154832492
Cu       3.704866166   5.091118619   9.159929625
Cu       5.547326774   3.376009695   9.154564941
Cu       0.022195755   8.555441398   9.142547768
Cu       1.862044468   6.816879438   9.158032239
Cu       3.705860168   8.541414787   9.148416001
Cu       5.556457802   6.814406178   9.162084655
Cu       0.011106004  11.951321736   9.148634661
Cu       1.859549996  10.257479667   9.137932604
Cu       3.696750747  11.964267755   9.137133227
Cu       5.548753913  10.266278785   9.128559349
Cu       0.002729162  15.329965683   9.170430444
Cu       1.849284968  13.640024125   9.158880451
Cu       3.692494486  15.319188976   9.156268867
Cu       5.539077485  13.637043430   9.154473270
Cu       0.006678600  -0.015062977  11.017642183
Cu       1.856305314   1.672816535  11.003350550
Cu       3.697382371  -0.024407125  11.002731163
Cu       5.544154201   1.675543910  11.000753315
Cu       0.015377859   3.373374527  10.993164920
Cu       1.868214617   5.092554389  10.983774639
Cu       3.707846649   3.389401912  11.005359999
Cu       5.563080491   5.083280494  10.979659026
Cu       0.052104363   6.836417140  10.965709232
Cu       1.875975739   8.547161809  10.977426066
Cu       3.720019000   6.812461375  10.971925095
Cu       5.576457036   8.570114610  10.946929430
Cu       0.037370916  10.259450845  10.992050926
Cu       1.864534679  11.948212730  11.005821686
Cu       3.716909412  10.279054742  10.962041047
Cu       5.564383990  11.948757817  11.004071588
Cu       0.016016749  13.630184640  11.025943012
Cu       1.850816477  15.328917129  11.018126530
Cu       3.705548906  13.636627112  11.013972773
Cu       5.545408449  15.322246946  11.023701801
Cu       0.012294439   1.689166865  12.843723878
Cu       1.850260875  -0.017169038  12.872163915
Cu       3.697187950   1.664373814  12.843458646
Cu       5.549678574  -0.007942357  12.860029854
Cu       0.036537764   5.087108164  12.804612883
Cu       1.872223176   3.385348104  12.819379635
Cu       3.731486093   5.138052938  12.856844572
Cu       5.537946265   3.381594263  12.827453522
Cu       0.083284267   8.561143449  12.829686775
Cu       1.899237085   6.799275051  12.825443641
Cu       3.736317504   8.572816543  12.727849929
Cu       5.628353142   6.858415512  12.728828535
Cu       0.048666206  11.934933251  12.864864951
Cu       1.906815868  10.257255155  12.837930195
Cu       3.739947521  11.942940836  12.855270741
Cu       5.587952339  10.237654203  12.823206757
Cu       0.015980476  15.326999315  12.883779878
Cu       1.871678295  13.636676408  12.861726128
Cu       3.712098950  15.332886047  12.866657513
Cu       5.579386003  13.623146156  12.879784057
Cu       0.024056823   0.021691743  14.677389675
Cu       1.855643873   1.715603996  14.687754593
Cu       3.686885857  -0.006504072  14.695557211
Cu       5.528568425   1.681717722  14.681513975
Cu      -0.026391147   3.350492707  14.688392398
Cu       1.779844603   5.020935568  14.632380813
Cu       3.715103052   3.377836321  14.645170830
Cu       5.588423289   5.075529518  14.633552661
Cu      -0.023957897   6.809799657  14.601573148
Cu       1.919047157   8.496769547  14.611579118
Cu       4.090675641   7.032962730  14.492258294
Cu       5.762978577   8.698831899  14.741425061
Cu       0.197171917  10.300105534  14.714504156
Cu       1.942567894  11.981664452  14.686775467
Cu       3.729617805  10.214455667  14.655739368
Cu       5.596009944  11.869554198  14.688175574
Cu       0.013212369  13.606358634  14.709102069
Cu       1.859634187  15.308451120  14.694082386
Cu       3.778438321  13.636402120  14.677460990
Cu       5.574239208  15.358690297  14.692656938
C       -0.037603798   0.709941429  17.629817655
C       -0.043428967   2.126063504  17.758542110
C        1.192167017   0.000445410  17.583598849
C        1.183255453   2.837363705  17.841909729
C        2.419951276   0.714092477  17.601844083
C        2.413678918   2.129330568  17.736816566
C        3.650244091   0.000733127  17.535012646
C        3.641550517   2.846926585  17.780667836
C        4.880363724   0.715681580  17.580406431
C        4.875025235   2.133434131  17.690992385
C        6.108979578   0.002201484  17.568146988
C        6.104531649   2.837495761  17.799909574
C       -0.052723338   4.964337124  18.014807171
C       -0.060810041   6.383480794  18.033544342
C        1.177506363   4.246470686  18.029372072
C        1.167435779   7.094767931  18.090911196
C        2.401608342   4.959283955  18.102403142
C        2.382030235   6.372693912  18.147366239
C        3.635746131   4.253969510  17.929298605
C        3.585662306   7.055939355  17.570501383
C        3.121294083   6.725572938  16.071577966
H        3.155456898   5.603649285  15.982413779
H        2.043715656   7.011181584  16.002267970
C        4.872825597   4.968408575  17.890926138
C        4.879181872   6.369588461  17.820380729
C        6.103915933   4.253700515  17.896604887
C        6.086434719   7.084016343  17.862161808
C       -0.051272934   9.214363858  17.761136823
C       -0.045029320  10.641416438  17.670373041
C        1.176035382   8.509541542  17.875717346
C        1.185067461  11.356530695  17.666363165
C        2.410937861   9.225535429  17.767514791
C        2.414085998  10.647062206  17.700334837
C        3.630140336   8.528094534  17.732329628
C        3.642529798  11.358610414  17.661525688
C        4.856007005   9.219760073  17.699725568
C        4.868323207  10.646560993  17.668302429
C        6.095191024   8.507873489  17.745991991
C        6.101930579  11.354369065  17.641745676
C       -0.037003116  13.490171243  17.563269957
C       -0.036500372  14.911086585  17.545402029
C        1.191710311  12.779110974  17.611991406
C        1.195076771  15.620361582  17.545907251
C        2.422085961  13.488816345  17.588172693
C        2.424076565  14.908570928  17.540994943
C        3.648940863  12.781237549  17.604070815
C        3.653345914  15.618845640  17.525032150
C        4.880109601  13.488101698  17.571178208
C        4.881039451  14.908906032  17.531653667
C        6.108653414  12.778513857  17.592349975
C        6.113540446  15.621231858  17.529271849



     Writing output data file gc.save
     Check: negative starting charge=   -0.001831
     NEW-OLD atomic charge density approx. for the potential
     Check: negative starting charge=   -0.001830

     negative rho (up, down):  1.831E-03 0.000E+00

     total cpu time spent up to now is    48304.6 secs

     Self-consistent Calculation

     iteration #  1     ecut=    80.00 Ry     beta=0.70
     Davidson diagonalization with overlap
     ethr =  1.00E-06,  avg # of iterations =  9.3

     negative rho (up, down):  2.968E-03 0.000E+00

     total cpu time spent up to now is    48893.2 secs

     total energy              =  -12712.43354296 Ry
     Harris-Foulkes estimate   =  -12712.44057883 Ry
     estimated scf accuracy    <       0.08348567 Ry

     iteration #  2     ecut=    80.00 Ry     beta=0.70
     Davidson diagonalization with overlap
     ethr =  6.43E-06,  avg # of iterations =  1.2

     negative rho (up, down):  3.835E-03 0.000E+00

     total cpu time spent up to now is    49067.7 secs

     total energy              =  -12712.43379652 Ry
     Harris-Foulkes estimate   =  -12712.43723513 Ry
     estimated scf accuracy    <       0.01418913 Ry

     iteration #  3     ecut=    80.00 Ry     beta=0.70
     Davidson diagonalization with overlap
     ethr =  1.09E-06,  avg # of iterations =  5.0

     negative rho (up, down):  5.512E-03 0.000E+00

     total cpu time spent up to now is    49302.1 secs

     total energy              =  -12712.43455766 Ry
     Harris-Foulkes estimate   =  -12712.43626808 Ry
     estimated scf accuracy    <       0.02153574 Ry

     iteration #  4     ecut=    80.00 Ry     beta=0.70
     Davidson diagonalization with overlap
     ethr =  1.09E-06,  avg # of iterations =  5.3

     negative rho (up, down):  5.729E-03 0.000E+00

     total cpu time spent up to now is    49532.3 secs

     total energy              =  -12712.43533870 Ry
     Harris-Foulkes estimate   =  -12712.43538972 Ry
     estimated scf accuracy    <       0.00087906 Ry

     iteration #  5     ecut=    80.00 Ry     beta=0.70
     Davidson diagonalization with overlap
     ethr =  6.77E-08,  avg # of iterations =  3.0

     negative rho (up, down):  5.452E-03 0.000E+00

     total cpu time spent up to now is    49734.1 secs

     total energy              =  -12712.43532486 Ry
     Harris-Foulkes estimate   =  -12712.43538407 Ry
     estimated scf accuracy    <       0.00062746 Ry

     iteration #  6     ecut=    80.00 Ry     beta=0.70
     Davidson diagonalization with overlap
     ethr =  4.83E-08,  avg # of iterations =  2.2

     negative rho (up, down):  4.462E-03 0.000E+00

     total cpu time spent up to now is    49921.1 secs

     total energy              =  -12712.43532091 Ry
     Harris-Foulkes estimate   =  -12712.43535192 Ry
     estimated scf accuracy    <       0.00020666 Ry

     iteration #  7     ecut=    80.00 Ry     beta=0.70
     Davidson diagonalization with overlap
     ethr =  1.59E-08,  avg # of iterations =  5.5

     negative rho (up, down):  3.550E-03 0.000E+00

     total cpu time spent up to now is    50146.7 secs

     total energy              =  -12712.43531946 Ry
     Harris-Foulkes estimate   =  -12712.43533191 Ry
     estimated scf accuracy    <       0.00003550 Ry

     iteration #  8     ecut=    80.00 Ry     beta=0.70
     Davidson diagonalization with overlap
