
     Program PWSCF v.5.4.0 starts on  1May2017 at  9: 3:21 

     This program is part of the open-source Quantum ESPRESSO suite
     for quantum simulation of materials; please cite
         "P. Giannozzi et al., J. Phys.:Condens. Matter 21 395502 (2009);
          URL http://www.quantum-espresso.org", 
     in publications or presentations arising from this work. More details at
     http://www.quantum-espresso.org/quote

     Parallel version (MPI & OpenMP), running on      56 processor cores
     Number of MPI processes:                56
     Threads/MPI process:                     1
     R & G space division:  proc/nbgrp/npool/nimage =      56
     Waiting for input...
     Reading input from standard input
Warning: card &IONS ignored
Warning: card / ignored

     Current dimensions of program PWSCF are:
     Max number of different atomic species (ntypx) = 10
     Max number of k-points (npk) =  40000
     Max angular momentum in pseudopotentials (lmaxx) =  3

     -------------------------------------
     Parameters for Dispersion Correction:
     -------------------------------------
       atom      VdW radius       C_6     

        Cu         2.952        374.666
        C_h        2.744         60.710
        C          2.744         60.710
        H          1.892          4.857

     Subspace diagonalization in iterative solution of the eigenvalue problem:
     one sub-group per band group will be used
     scalapack distributed-memory algorithm (size of sub-group:  5*  5 procs)

 
     Parallelization info
     --------------------
     sticks:   dense  smooth     PW     G-vecs:    dense   smooth      PW
     Min         204     204     54                36612    36612    4962
     Max         205     205     55                36617    36617    4968
     Sum       11433   11433   3039              2050409  2050409  278033
 


     bravais-lattice index     =            0
     lattice parameter (alat)  =      13.9425  a.u.
     unit-cell volume          =   21209.0878 (a.u.)^3
     number of atoms/cell      =          153
     number of atomic types    =            4
     number of electrons       =      1300.00
     number of Kohn-Sham states=          780
     kinetic-energy cutoff     =      80.0000  Ry
     charge density cutoff     =     320.0000  Ry
     convergence threshold     =      1.0E-08
     mixing beta               =       0.7000
     number of iterations used =            8  local-TF  mixing
     Exchange-correlation      =  SLA  PW   PBE  PBE ( 1  4  3  4 0 0)

     celldm(1)=  13.942539  celldm(2)=   0.000000  celldm(3)=   0.000000
     celldm(4)=   0.000000  celldm(5)=   0.000000  celldm(6)=   0.000000

     crystal axes: (cart. coord. in units of alat)
               a(1) = (   1.000000   0.000000   0.000000 )  
               a(2) = (   0.000000   2.309401   0.000000 )  
               a(3) = (   0.000000   0.000000   3.388418 )  

     reciprocal axes: (cart. coord. in units 2 pi/alat)
               b(1) = (  1.000000  0.000000  0.000000 )  
               b(2) = (  0.000000  0.433013  0.000000 )  
               b(3) = (  0.000000  0.000000  0.295123 )  


     PseudoPot. # 1 for Cu read from file:
     /home/549/hxw549/Short/pseudopotentials/Cu.pbe-n-van_ak.UPF
     MD5 check sum: 601f7c30f7467666bec936e0661ce3e1
     Pseudo is Ultrasoft + core correction, Zval = 11.0
     Generated by new atomic code, or converted to UPF format
     Using radial grid of  867 points,  6 beta functions with: 
                l(1) =   0
                l(2) =   0
                l(3) =   1
                l(4) =   1
                l(5) =   2
                l(6) =   2
     Q(r) pseudized with  8 coefficients,  rinner =    1.400   1.400   1.400
                                                       1.400   1.400

     PseudoPot. # 2 for C  read from file:
     /home/549/hxw549/Short/pseudopotentials/C.star1s-pbe-mt_gipaw.UPF
     MD5 check sum: ef0cb3dee31bd9e4ba2a832a2c716264
     Pseudo is Norm-conserving, Zval =  5.0
     Generated by new atomic code, or converted to UPF format
     Using radial grid of 1073 points,  1 beta functions with: 
                l(1) =   0

     PseudoPot. # 3 for C  read from file:
     /home/549/hxw549/Short/pseudopotentials/C.pbe-mt_gipaw.UPF
     MD5 check sum: 5ac2f21f2c440b14befe521540822c15
     Pseudo is Norm-conserving, Zval =  4.0
     Generated by new atomic code, or converted to UPF format
     Using radial grid of 1073 points,  1 beta functions with: 
                l(1) =   0

     PseudoPot. # 4 for H  read from file:
     /home/549/hxw549/Short/pseudopotentials/H.pbe-van_ak.UPF
     MD5 check sum: 077eb6d537518a38cb46c6de387227b7
     Pseudo is Ultrasoft, Zval =  1.0
     Generated by new atomic code, or converted to UPF format
     Using radial grid of  615 points,  1 beta functions with: 
                l(1) =   0
     Q(r) pseudized with  8 coefficients,  rinner =    0.800

     atomic species   valence    mass     pseudopotential
        Cu            11.00    63.54600     Cu( 1.00)
        C_h            5.00    12.01070     C ( 1.00)
        C              4.00    12.01070     C ( 1.00)
        H              1.00     1.00783     H ( 1.00)

     No symmetry found



   Cartesian axes

     site n.     atom                  positions (alat units)
         1           Cu  tau(   1) = (   0.0005942  -0.0038463   0.9930871  )
         2           Cu  tau(   2) = (   0.2511630   0.2244508   0.9942371  )
         3           Cu  tau(   3) = (   0.5007811  -0.0044706   0.9933156  )
         4           Cu  tau(   4) = (   0.7505207   0.2245418   0.9940835  )
         5           Cu  tau(   5) = (   0.0008481   0.4562049   0.9956409  )
         6           Cu  tau(   6) = (   0.2506786   0.6900795   0.9976618  )
         7           Cu  tau(   7) = (   0.5008632   0.4564016   0.9956302  )
         8           Cu  tau(   8) = (   0.7509606   0.6899328   0.9972468  )
         9           Cu  tau(   9) = (   0.0010626   0.9239011   0.9978053  )
        10           Cu  tau(  10) = (   0.2506086   1.1579934   0.9970288  )
        11           Cu  tau(  11) = (   0.5007037   0.9239065   0.9982690  )
        12           Cu  tau(  12) = (   0.7509822   1.1580641   0.9967192  )
        13           Cu  tau(  13) = (   0.0007618   1.3923352   0.9946266  )
        14           Cu  tau(  14) = (   0.2511320   1.6244682   0.9931181  )
        15           Cu  tau(  15) = (   0.5008944   1.3922557   0.9946286  )
        16           Cu  tau(  16) = (   0.7504689   1.6245618   0.9928784  )
        17           Cu  tau(  17) = (   0.0006403   1.8529676   0.9923519  )
        18           Cu  tau(  18) = (   0.2502663   2.0793525   0.9921530  )
        19           Cu  tau(  19) = (   0.5006837   1.8534625   0.9923857  )
        20           Cu  tau(  20) = (   0.7509333   2.0791621   0.9926036  )
        21           Cu  tau(  21) = (   0.0008436   0.2226903   1.2439799  )
        22           Cu  tau(  22) = (   0.2508004  -0.0053476   1.2453895  )
        23           Cu  tau(  23) = (   0.5008992   0.2231066   1.2437588  )
        24           Cu  tau(  24) = (   0.7506478  -0.0047299   1.2459640  )
        25           Cu  tau(  25) = (   0.0008489   0.6881471   1.2427947  )
        26           Cu  tau(  26) = (   0.2509174   0.4537933   1.2424126  )
        27           Cu  tau(  27) = (   0.5014493   0.6879078   1.2426873  )
        28           Cu  tau(  28) = (   0.7510800   0.4540268   1.2428095  )
        29           Cu  tau(  29) = (   0.0008866   1.1607300   1.2418123  )
        30           Cu  tau(  30) = (   0.2504606   0.9243917   1.2433168  )
        31           Cu  tau(  31) = (   0.5012960   1.1608479   1.2417939  )
        32           Cu  tau(  32) = (   0.7514211   0.9242728   1.2422531  )
        33           Cu  tau(  33) = (   0.0008238   1.6260289   1.2427661  )
        34           Cu  tau(  34) = (   0.2508668   1.3949963   1.2411065  )
        35           Cu  tau(  35) = (   0.5008273   1.6259522   1.2425316  )
        36           Cu  tau(  36) = (   0.7510233   1.3949321   1.2413170  )
        37           Cu  tau(  37) = (   0.0002797   2.0789654   1.2472520  )
        38           Cu  tau(  38) = (   0.2506780   1.8539880   1.2445803  )
        39           Cu  tau(  39) = (   0.5009511   2.0786742   1.2465668  )
        40           Cu  tau(  40) = (   0.7506849   1.8531565   1.2454973  )
        41           Cu  tau(  41) = (   0.0004902  -0.0048640   1.5012899  )
        42           Cu  tau(  42) = (   0.2509479   0.2213919   1.4948764  )
        43           Cu  tau(  43) = (   0.5008633  -0.0055096   1.4998236  )
        44           Cu  tau(  44) = (   0.7507049   0.2224039   1.4962002  )
        45           Cu  tau(  45) = (   0.0008858   0.4521035   1.4909719  )
        46           Cu  tau(  46) = (   0.2508978   0.6868072   1.4865842  )
        47           Cu  tau(  47) = (   0.5015522   0.4518694   1.4903810  )
        48           Cu  tau(  48) = (   0.7514726   0.6871259   1.4876615  )
        49           Cu  tau(  49) = (   0.0002500   0.9250368   1.4863019  )
        50           Cu  tau(  50) = (   0.2505897   1.1628075   1.4859838  )
        51           Cu  tau(  51) = (   0.5009744   0.9248361   1.4856989  )
        52           Cu  tau(  52) = (   0.7515423   1.1627813   1.4863707  )
        53           Cu  tau(  53) = (   0.0008363   1.3971227   1.4898823  )
        54           Cu  tau(  54) = (   0.2508389   1.6273910   1.4937434  )
        55           Cu  tau(  55) = (   0.5014752   1.3979066   1.4886943  )
        56           Cu  tau(  56) = (   0.7508714   1.6259248   1.4956944  )
        57           Cu  tau(  57) = (   0.0004376   1.8527965   1.5010687  )
        58           Cu  tau(  58) = (   0.2504027   2.0785939   1.5029371  )
        59           Cu  tau(  59) = (   0.5009858   1.8533152   1.5000881  )
        60           Cu  tau(  60) = (   0.7509970   2.0786638   1.5031194  )
        61           Cu  tau(  61) = (   0.0005135   0.2248349   1.7497996  )
        62           Cu  tau(  62) = (   0.2501688  -0.0032339   1.7566496  )
        63           Cu  tau(  63) = (   0.5014742   0.2227743   1.7482991  )
        64           Cu  tau(  64) = (   0.7513585  -0.0030754   1.7572858  )
        65           Cu  tau(  65) = (   0.0000215   0.6870712   1.7299070  )
        66           Cu  tau(  66) = (   0.2511009   0.4509547   1.7369529  )
        67           Cu  tau(  67) = (   0.5011158   0.6873251   1.7301161  )
        68           Cu  tau(  68) = (   0.7509595   0.4537932   1.7402830  )
        69           Cu  tau(  69) = (  -0.0003510   1.1635795   1.7301589  )
        70           Cu  tau(  70) = (   0.2492962   0.9254838   1.7262694  )
        71           Cu  tau(  71) = (   0.5010931   1.1645368   1.7281440  )
        72           Cu  tau(  72) = (   0.7500918   0.9261363   1.7284522  )
        73           Cu  tau(  73) = (   0.0004784   1.6236149   1.7503063  )
        74           Cu  tau(  74) = (   0.2505399   1.3989206   1.7362958  )
        75           Cu  tau(  75) = (   0.5017544   1.6243122   1.7491481  )
        76           Cu  tau(  76) = (   0.7514313   1.3951350   1.7410358  )
        77           Cu  tau(  77) = (   0.0004742   2.0783503   1.7607120  )
        78           Cu  tau(  78) = (   0.2504192   1.8508274   1.7564756  )
        79           Cu  tau(  79) = (   0.5010106   2.0787662   1.7584609  )
        80           Cu  tau(  80) = (   0.7513912   1.8507985   1.7573143  )
        81           Cu  tau(  81) = (   0.0008813   0.0026029   2.0105797  )
        82           Cu  tau(  82) = (   0.2519774   0.2322381   2.0016112  )
        83           Cu  tau(  83) = (   0.5009841  -0.0002499   2.0097966  )
        84           Cu  tau(  84) = (   0.7498649   0.2319461   2.0026418  )
        85           Cu  tau(  85) = (  -0.0012443   0.4602900   1.9907264  )
        86           Cu  tau(  86) = (   0.2447511   0.6860828   1.9647703  )
        87           Cu  tau(  87) = (   0.5020074   0.4610094   1.9864182  )
        88           Cu  tau(  88) = (   0.7551572   0.6927395   1.9742647  )
        89           Cu  tau(  89) = (   0.0001840   0.9258909   1.9694068  )
        90           Cu  tau(  90) = (   0.2448855   1.1650488   1.9657380  )
        91           Cu  tau(  91) = (   0.5029455   0.9323233   1.9496787  )
        92           Cu  tau(  92) = (   0.7546301   1.1577145   1.9787635  )
        93           Cu  tau(  93) = (  -0.0008328   1.3888834   1.9925616  )
        94           Cu  tau(  94) = (   0.2520653   1.6166694   2.0024762  )
        95           Cu  tau(  95) = (   0.5010134   1.3858075   1.9896408  )
        96           Cu  tau(  96) = (   0.7496504   1.6159218   2.0035855  )
        97           Cu  tau(  97) = (   0.0005533   1.8454381   2.0118807  )
        98           Cu  tau(  98) = (   0.2497981   2.0783156   2.0123703  )
        99           Cu  tau(  99) = (   0.5015435   1.8482404   2.0091037  )
       100           Cu  tau( 100) = (   0.7518512   2.0787787   2.0132458  )
       101           C   tau( 101) = (  -0.0003126   0.1006325   2.4740383  )
       102           C   tau( 102) = (  -0.0003775   0.2920325   2.5081418  )
       103           C   tau( 103) = (   0.1663980   0.0036286   2.4620667  )
       104           C   tau( 104) = (   0.1663498   0.3875619   2.5287554  )
       105           C   tau( 105) = (   0.3329568   0.1006649   2.4741495  )
       106           C   tau( 106) = (   0.3329888   0.2921582   2.5077789  )
       107           C   tau( 107) = (   0.4997204   0.0036301   2.4626464  )
       108           C   tau( 108) = (   0.4994819   0.3878807   2.5283181  )
       109           C   tau( 109) = (   0.6664286   0.1006943   2.4742667  )
       110           C   tau( 110) = (   0.6662607   0.2923989   2.5068094  )
       111           C   tau( 111) = (   0.8330134   0.0037573   2.4607979  )
       112           C   tau( 112) = (   0.8329291   0.3878381   2.5270081  )
       113           C   tau( 113) = (  -0.0004818   0.6734409   2.5851986  )
       114           C   tau( 114) = (  -0.0002469   0.8665147   2.6029464  )
       115           C   tau( 115) = (   0.1665021   0.5772827   2.5711435  )
       116           C   tau( 116) = (   0.1664542   0.9638089   2.6091331  )
       117           C   tau( 117) = (   0.3326642   0.6726237   2.5966217  )
       118           C_h tau( 118) = (   0.3324550   0.8658708   2.6237839  )
       119           C   tau( 119) = (   0.4993534   0.5773360   2.5728227  )
       120           C   tau( 120) = (   0.4998971   0.9649202   2.6219659  )
       121           C   tau( 121) = (   0.6661760   0.6737708   2.5875107  )
       122           C   tau( 122) = (   0.6665804   0.8667296   2.6107608  )
       123           C   tau( 123) = (   0.8328401   0.5779267   2.5667895  )
       124           C   tau( 124) = (   0.8330747   0.9640677   2.6024886  )
       125           C   tau( 125) = (  -0.0000737   1.2522501   2.5628112  )
       126           C   tau( 126) = (  -0.0001253   1.4422912   2.5224834  )
       127           C   tau( 127) = (   0.1666321   1.1566227   2.5840568  )
       128           C   tau( 128) = (   0.1665763   1.5380253   2.5039308  )
       129           C   tau( 129) = (   0.3332648   1.2530529   2.5690923  )
       130           C   tau( 130) = (   0.3332880   1.4426743   2.5261218  )
       131           C   tau( 131) = (   0.4999030   1.1576825   2.5919202  )
       132           C   tau( 132) = (   0.4998036   1.5383355   2.5061839  )
       133           C   tau( 133) = (   0.6663241   1.2529384   2.5671493  )
       134           C   tau( 134) = (   0.6664542   1.4427271   2.5254651  )
       135           C   tau( 135) = (   0.8332378   1.1569421   2.5820745  )
       136           C   tau( 136) = (   0.8331711   1.5381531   2.5038020  )
       137           C   tau( 137) = (  -0.0001042   1.8267606   2.4581975  )
       138           C   tau( 138) = (  -0.0001516   2.0211056   2.4468364  )
       139           C   tau( 139) = (   0.1666301   1.7298093   2.4723584  )
       140           C   tau( 140) = (   0.1664718   2.1188427   2.4491755  )
       141           C   tau( 141) = (   0.3331974   1.8269638   2.4626428  )
       142           C   tau( 142) = (   0.3331985   2.0211166   2.4504279  )
       143           C   tau( 143) = (   0.4998554   1.7299413   2.4736692  )
       144           C   tau( 144) = (   0.4997837   2.1189131   2.4508552  )
       145           C   tau( 145) = (   0.6664794   1.8269319   2.4609715  )
       146           C   tau( 146) = (   0.6664253   2.0211530   2.4491533  )
       147           C   tau( 147) = (   0.8330798   1.7297223   2.4708304  )
       148           C   tau( 148) = (   0.8330937   2.1189094   2.4468884  )
       149           H   tau( 149) = (   0.4446619   0.9035800   2.3768416  )
       150           C   tau( 150) = (   0.3968788   0.8859315   2.2396702  )
       151           H   tau( 151) = (   0.5360793   0.8733752   2.1781091  )
       152           H   tau( 152) = (   0.3176552   0.7592170   2.2348797  )
       153           H   tau( 153) = (   0.3152415   1.0076446   2.2117415  )

     number of k points=     6  gaussian smearing, width (Ry)=  0.1000
                       cart. coord. in units 2pi/alat
        k(    1) = (   0.0000000   0.0000000   0.0000000), wk =   0.2500000
        k(    2) = (   0.0000000  -0.2165064   0.0000000), wk =   0.2500000
        k(    3) = (   0.2500000   0.0000000   0.0000000), wk =   0.5000000
        k(    4) = (   0.2500000  -0.2165064   0.0000000), wk =   0.5000000
        k(    5) = (  -0.5000000   0.0000000   0.0000000), wk =   0.2500000
        k(    6) = (  -0.5000000  -0.2165064   0.0000000), wk =   0.2500000

     Dense  grid:  2050409 G-vectors     FFT dimensions: (  80, 192, 270)

     Largest allocated arrays     est. size (Mb)     dimensions
        Kohn-Sham Wavefunctions        54.80 Mb     (    4604,  780)
        NL pseudopotentials           130.18 Mb     (    4604, 1853)
        Each V/rho on FFT grid          1.17 Mb     (   76800)
        Each G-vector array             0.28 Mb     (   36616)
        G-vector shells                 0.14 Mb     (   17932)
     Largest temporary arrays     est. size (Mb)     dimensions
        Auxiliary wavefunctions       219.18 Mb     (    4604, 3120)
        Each subspace H/S matrix        5.94 Mb     (     624,  624)
        Each <psi_i|beta_j> matrix     22.05 Mb     (    1853,  780)
        Arrays for rho mixing           9.38 Mb     (   76800,    8)

     Initial potential from superposition of free atoms
     Check: negative starting charge=   -0.001559

     starting charge 1274.31748, renormalised to 1300.00000

     negative rho (up, down):  1.591E-03 0.000E+00
     Starting wfc are 1296 randomized atomic wfcs

     total cpu time spent up to now is      105.1 secs

     Self-consistent Calculation

     iteration #  1     ecut=    80.00 Ry     beta=0.70
     Davidson diagonalization with overlap
     c_bands:  5 eigenvalues not converged
     c_bands:  4 eigenvalues not converged
     c_bands:  5 eigenvalues not converged
     c_bands:  4 eigenvalues not converged
     c_bands:  3 eigenvalues not converged
     c_bands:  3 eigenvalues not converged
     ethr =  1.00E-04,  avg # of iterations = 40.0

     negative rho (up, down):  2.490E+01 0.000E+00

     total cpu time spent up to now is     2314.3 secs

     total energy              =  -10081.08854905 Ry
     Harris-Foulkes estimate   =  -18340.56224693 Ry
     estimated scf accuracy    <  213516.06551088 Ry

     iteration #  2     ecut=    80.00 Ry     beta=0.70
     Davidson diagonalization with overlap
     ethr =  1.00E-02,  avg # of iterations = 14.2

     negative rho (up, down):  3.394E+01 0.000E+00

     total cpu time spent up to now is     3333.4 secs

     total energy              =  -11806.63031444 Ry
     Harris-Foulkes estimate   =  -13802.17363715 Ry
     estimated scf accuracy    <   38213.46609881 Ry

     iteration #  3     ecut=    80.00 Ry     beta=0.70
     Davidson diagonalization with overlap
     ethr =  1.00E-02,  avg # of iterations = 17.7

     negative rho (up, down):  3.129E+01 0.000E+00

     total cpu time spent up to now is     4268.2 secs

     total energy              =  -12113.89193927 Ry
     Harris-Foulkes estimate   =  -13703.89842133 Ry
     estimated scf accuracy    <    6354.08754752 Ry

     iteration #  4     ecut=    80.00 Ry     beta=0.70
     Davidson diagonalization with overlap
     ethr =  1.00E-02,  avg # of iterations =  4.3

     negative rho (up, down):  2.176E+01 0.000E+00

     total cpu time spent up to now is     4748.8 secs

     total energy              =  -12846.88317845 Ry
     Harris-Foulkes estimate   =  -13068.95044033 Ry
     estimated scf accuracy    <     964.56268542 Ry

     iteration #  5     ecut=    80.00 Ry     beta=0.70
     Davidson diagonalization with overlap
     ethr =  1.00E-02,  avg # of iterations =  2.5

     negative rho (up, down):  1.689E+01 0.000E+00

     total cpu time spent up to now is     4999.6 secs

     total energy              =  -12844.74914271 Ry
     Harris-Foulkes estimate   =  -12909.61663011 Ry
     estimated scf accuracy    <    1020.11020573 Ry

     iteration #  6     ecut=    80.00 Ry     beta=0.70
     Davidson diagonalization with overlap
     ethr =  1.00E-02,  avg # of iterations =  2.0

     negative rho (up, down):  1.183E+01 0.000E+00

     total cpu time spent up to now is     5177.0 secs

     total energy              =  -12811.33750546 Ry
     Harris-Foulkes estimate   =  -12866.82388218 Ry
     estimated scf accuracy    <     474.83325609 Ry

     iteration #  7     ecut=    80.00 Ry     beta=0.70
     Davidson diagonalization with overlap
     ethr =  1.00E-02,  avg # of iterations =  2.0

     negative rho (up, down):  7.589E+00 0.000E+00

     total cpu time spent up to now is     5357.1 secs

     total energy              =  -12797.25189423 Ry
     Harris-Foulkes estimate   =  -12834.96989892 Ry
     estimated scf accuracy    <     334.00474929 Ry

     iteration #  8     ecut=    80.00 Ry     beta=0.70
     Davidson diagonalization with overlap
     ethr =  1.00E-02,  avg # of iterations =  1.7

     negative rho (up, down):  6.145E+00 0.000E+00

     total cpu time spent up to now is     5529.8 secs

     total energy              =  -12790.75032249 Ry
     Harris-Foulkes estimate   =  -12805.21127014 Ry
     estimated scf accuracy    <     215.99244362 Ry

     iteration #  9     ecut=    80.00 Ry     beta=0.70
     Davidson diagonalization with overlap
     ethr =  1.00E-02,  avg # of iterations =  1.0

     negative rho (up, down):  4.952E+00 0.000E+00

     total cpu time spent up to now is     5695.1 secs

     total energy              =  -12781.59953344 Ry
     Harris-Foulkes estimate   =  -12792.79748374 Ry
     estimated scf accuracy    <     182.13306922 Ry

     iteration # 10     ecut=    80.00 Ry     beta=0.70
     Davidson diagonalization with overlap
     ethr =  1.00E-02,  avg # of iterations =  1.0

     negative rho (up, down):  6.100E-01 0.000E+00

     total cpu time spent up to now is     5860.4 secs

     total energy              =  -12743.11149078 Ry
     Harris-Foulkes estimate   =  -12783.15010239 Ry
     estimated scf accuracy    <     141.38227100 Ry

     iteration # 11     ecut=    80.00 Ry     beta=0.70
     Davidson diagonalization with overlap
     ethr =  1.00E-02,  avg # of iterations =  2.2

     negative rho (up, down):  7.535E-01 0.000E+00

     total cpu time spent up to now is     6039.9 secs

     total energy              =  -12739.03982934 Ry
     Harris-Foulkes estimate   =  -12750.88548643 Ry
     estimated scf accuracy    <     213.83804707 Ry

     iteration # 12     ecut=    80.00 Ry     beta=0.70
     Davidson diagonalization with overlap
     ethr =  1.00E-02,  avg # of iterations =  1.2

     negative rho (up, down):  1.253E+00 0.000E+00

     total cpu time spent up to now is     6207.2 secs

     total energy              =  -12735.69979167 Ry
     Harris-Foulkes estimate   =  -12744.55438312 Ry
     estimated scf accuracy    <      46.19542928 Ry

     iteration # 13     ecut=    80.00 Ry     beta=0.70
     Davidson diagonalization with overlap
     ethr =  3.55E-03,  avg # of iterations =  2.8

     negative rho (up, down):  4.248E+00 0.000E+00

     total cpu time spent up to now is     6393.2 secs

     total energy              =  -12731.71403971 Ry
     Harris-Foulkes estimate   =  -12738.33147656 Ry
     estimated scf accuracy    <      35.08466226 Ry

     iteration # 14     ecut=    80.00 Ry     beta=0.70
     Davidson diagonalization with overlap
     ethr =  2.70E-03,  avg # of iterations =  3.2

     negative rho (up, down):  4.749E+00 0.000E+00

     total cpu time spent up to now is     6583.2 secs

     total energy              =  -12728.17862786 Ry
     Harris-Foulkes estimate   =  -12732.75522372 Ry
     estimated scf accuracy    <      28.24176521 Ry

     iteration # 15     ecut=    80.00 Ry     beta=0.70
     Davidson diagonalization with overlap
     ethr =  2.17E-03,  avg # of iterations =  2.7

     negative rho (up, down):  2.030E+00 0.000E+00

     total cpu time spent up to now is     6770.7 secs

     total energy              =  -12727.30821709 Ry
     Harris-Foulkes estimate   =  -12731.13971093 Ry
     estimated scf accuracy    <      27.00065420 Ry

     iteration # 16     ecut=    80.00 Ry     beta=0.70
     Davidson diagonalization with overlap
     ethr =  2.08E-03,  avg # of iterations =  3.0

     negative rho (up, down):  4.659E+00 0.000E+00

     total cpu time spent up to now is     6961.0 secs

     total energy              =  -12728.25226073 Ry
     Harris-Foulkes estimate   =  -12730.93355258 Ry
     estimated scf accuracy    <      17.39125443 Ry

     iteration # 17     ecut=    80.00 Ry     beta=0.70
     Davidson diagonalization with overlap
     ethr =  1.34E-03,  avg # of iterations =  5.2

     negative rho (up, down):  4.189E+00 0.000E+00

     total cpu time spent up to now is     7178.6 secs

     total energy              =  -12728.00059810 Ry
     Harris-Foulkes estimate   =  -12728.81594275 Ry
     estimated scf accuracy    <       9.48610647 Ry

     iteration # 18     ecut=    80.00 Ry     beta=0.70
     Davidson diagonalization with overlap
     ethr =  7.30E-04,  avg # of iterations =  3.5

     negative rho (up, down):  2.891E+00 0.000E+00

     total cpu time spent up to now is     7372.7 secs

     total energy              =  -12726.86704708 Ry
     Harris-Foulkes estimate   =  -12728.12146693 Ry
     estimated scf accuracy    <       7.52767268 Ry

     iteration # 19     ecut=    80.00 Ry     beta=0.70
     Davidson diagonalization with overlap
     ethr =  5.79E-04,  avg # of iterations =  2.2

     negative rho (up, down):  1.392E+00 0.000E+00

     total cpu time spent up to now is     7551.2 secs

     total energy              =  -12725.91312779 Ry
     Harris-Foulkes estimate   =  -12727.04743464 Ry
     estimated scf accuracy    <       6.29544067 Ry

     iteration # 20     ecut=    80.00 Ry     beta=0.70
     Davidson diagonalization with overlap
     ethr =  4.84E-04,  avg # of iterations =  6.0

     negative rho (up, down):  1.135E+00 0.000E+00

     total cpu time spent up to now is     7778.3 secs

     total energy              =  -12725.49185191 Ry
     Harris-Foulkes estimate   =  -12726.05844316 Ry
     estimated scf accuracy    <       6.78015606 Ry

     iteration # 21     ecut=    80.00 Ry     beta=0.70
     Davidson diagonalization with overlap
     ethr =  4.84E-04,  avg # of iterations =  3.0

     negative rho (up, down):  4.224E-01 0.000E+00

     total cpu time spent up to now is     7968.4 secs

     total energy              =  -12724.63344789 Ry
     Harris-Foulkes estimate   =  -12725.56548850 Ry
     estimated scf accuracy    <       4.73092515 Ry

     iteration # 22     ecut=    80.00 Ry     beta=0.70
     Davidson diagonalization with overlap
     ethr =  3.64E-04,  avg # of iterations =  1.0

     negative rho (up, down):  1.508E-01 0.000E+00

     total cpu time spent up to now is     8134.5 secs

     total energy              =  -12723.39052659 Ry
     Harris-Foulkes estimate   =  -12724.73374525 Ry
     estimated scf accuracy    <       3.81978307 Ry

     iteration # 23     ecut=    80.00 Ry     beta=0.70
     Davidson diagonalization with overlap
     ethr =  2.94E-04,  avg # of iterations =  7.7

     negative rho (up, down):  5.077E-01 0.000E+00

     total cpu time spent up to now is     8385.3 secs

     total energy              =  -12723.18540524 Ry
     Harris-Foulkes estimate   =  -12723.51855850 Ry
     estimated scf accuracy    <       2.55989344 Ry

     iteration # 24     ecut=    80.00 Ry     beta=0.70
     Davidson diagonalization with overlap
     ethr =  1.97E-04,  avg # of iterations =  7.5

     negative rho (up, down):  5.058E-01 0.000E+00

     total cpu time spent up to now is     8638.9 secs

     total energy              =  -12723.01177016 Ry
     Harris-Foulkes estimate   =  -12723.40166392 Ry
     estimated scf accuracy    <       1.26212932 Ry

     iteration # 25     ecut=    80.00 Ry     beta=0.70
     Davidson diagonalization with overlap
     ethr =  9.71E-05,  avg # of iterations =  6.8

     negative rho (up, down):  5.401E-01 0.000E+00

     total cpu time spent up to now is     8896.5 secs

     total energy              =  -12723.05190347 Ry
     Harris-Foulkes estimate   =  -12723.12617581 Ry
     estimated scf accuracy    <       0.42186793 Ry

     iteration # 26     ecut=    80.00 Ry     beta=0.70
     Davidson diagonalization with overlap
     ethr =  3.25E-05,  avg # of iterations =  8.3

     negative rho (up, down):  2.109E-01 0.000E+00

     total cpu time spent up to now is     9166.6 secs

     total energy              =  -12723.06287135 Ry
     Harris-Foulkes estimate   =  -12723.08903796 Ry
     estimated scf accuracy    <       0.13368225 Ry

     iteration # 27     ecut=    80.00 Ry     beta=0.70
     Davidson diagonalization with overlap
     c_bands:  3 eigenvalues not converged
     c_bands:  1 eigenvalues not converged
     ethr =  1.03E-05,  avg # of iterations = 17.8

     negative rho (up, down):  1.636E-01 0.000E+00

     total cpu time spent up to now is     9570.5 secs

     total energy              =  -12723.06932835 Ry
     Harris-Foulkes estimate   =  -12723.07334613 Ry
     estimated scf accuracy    <       0.03498304 Ry

     iteration # 28     ecut=    80.00 Ry     beta=0.70
     Davidson diagonalization with overlap
     ethr =  2.69E-06,  avg # of iterations =  7.0

     negative rho (up, down):  1.136E-01 0.000E+00

     total cpu time spent up to now is     9812.6 secs

     total energy              =  -12723.07170200 Ry
     Harris-Foulkes estimate   =  -12723.07317395 Ry
     estimated scf accuracy    <       0.01636436 Ry

     iteration # 29     ecut=    80.00 Ry     beta=0.70
     Davidson diagonalization with overlap
     ethr =  1.26E-06,  avg # of iterations =  7.8

     negative rho (up, down):  4.614E-02 0.000E+00

     total cpu time spent up to now is    10075.2 secs

     total energy              =  -12723.07334161 Ry
     Harris-Foulkes estimate   =  -12723.07353942 Ry
     estimated scf accuracy    <       0.00579497 Ry

     iteration # 30     ecut=    80.00 Ry     beta=0.70
     Davidson diagonalization with overlap
     c_bands:  2 eigenvalues not converged
     ethr =  4.46E-07,  avg # of iterations = 11.8

     negative rho (up, down):  1.927E-02 0.000E+00

     total cpu time spent up to now is    10400.1 secs

     total energy              =  -12723.07326311 Ry
     Harris-Foulkes estimate   =  -12723.07376953 Ry
     estimated scf accuracy    <       0.00248901 Ry

     iteration # 31     ecut=    80.00 Ry     beta=0.70
     Davidson diagonalization with overlap
     c_bands:  1 eigenvalues not converged
     ethr =  1.91E-07,  avg # of iterations = 12.2

     negative rho (up, down):  1.390E-02 0.000E+00

     total cpu time spent up to now is    10727.7 secs

     total energy              =  -12723.07334883 Ry
     Harris-Foulkes estimate   =  -12723.07349025 Ry
     estimated scf accuracy    <       0.00067860 Ry

     iteration # 32     ecut=    80.00 Ry     beta=0.70
     Davidson diagonalization with overlap
     ethr =  5.22E-08,  avg # of iterations =  6.2

     negative rho (up, down):  6.475E-03 0.000E+00

     total cpu time spent up to now is    10960.2 secs

     total energy              =  -12723.07327128 Ry
     Harris-Foulkes estimate   =  -12723.07341539 Ry
     estimated scf accuracy    <       0.00030929 Ry

     iteration # 33     ecut=    80.00 Ry     beta=0.70
     Davidson diagonalization with overlap
     c_bands:  1 eigenvalues not converged
     ethr =  2.38E-08,  avg # of iterations = 12.5

     negative rho (up, down):  3.335E-03 0.000E+00

     total cpu time spent up to now is    11280.9 secs

     total energy              =  -12723.07323202 Ry
     Harris-Foulkes estimate   =  -12723.07329511 Ry
     estimated scf accuracy    <       0.00004822 Ry

     iteration # 34     ecut=    80.00 Ry     beta=0.70
     Davidson diagonalization with overlap
     ethr =  3.71E-09,  avg # of iterations =  7.8

     negative rho (up, down):  2.410E-03 0.000E+00

     total cpu time spent up to now is    11544.8 secs

     total energy              =  -12723.07322433 Ry
     Harris-Foulkes estimate   =  -12723.07323775 Ry
     estimated scf accuracy    <       0.00002343 Ry

     iteration # 35     ecut=    80.00 Ry     beta=0.70
     Davidson diagonalization with overlap
     ethr =  1.80E-09,  avg # of iterations =  7.7

     negative rho (up, down):  1.968E-03 0.000E+00

     total cpu time spent up to now is    11797.4 secs

     total energy              =  -12723.07321962 Ry
     Harris-Foulkes estimate   =  -12723.07322629 Ry
     estimated scf accuracy    <       0.00000856 Ry

     iteration # 36     ecut=    80.00 Ry     beta=0.70
     Davidson diagonalization with overlap
     ethr =  6.59E-10,  avg # of iterations =  4.8

     negative rho (up, down):  1.696E-03 0.000E+00

     total cpu time spent up to now is    12028.1 secs

     total energy              =  -12723.07322020 Ry
     Harris-Foulkes estimate   =  -12723.07322083 Ry
     estimated scf accuracy    <       0.00000430 Ry

     iteration # 37     ecut=    80.00 Ry     beta=0.70
     Davidson diagonalization with overlap
     ethr =  3.31E-10,  avg # of iterations =  2.2

     negative rho (up, down):  1.685E-03 0.000E+00

     total cpu time spent up to now is    12212.3 secs

     total energy              =  -12723.07322028 Ry
     Harris-Foulkes estimate   =  -12723.07322060 Ry
     estimated scf accuracy    <       0.00000124 Ry

     iteration # 38     ecut=    80.00 Ry     beta=0.70
     Davidson diagonalization with overlap
     ethr =  9.57E-11,  avg # of iterations =  2.5

     negative rho (up, down):  1.682E-03 0.000E+00

     total cpu time spent up to now is    12406.3 secs

     total energy              =  -12723.07322062 Ry
     Harris-Foulkes estimate   =  -12723.07322041 Ry
     estimated scf accuracy    <       0.00000028 Ry

     iteration # 39     ecut=    80.00 Ry     beta=0.70
     Davidson diagonalization with overlap
     ethr =  2.17E-11,  avg # of iterations =  3.0

     negative rho (up, down):  1.659E-03 0.000E+00

     total cpu time spent up to now is    12632.2 secs

     total energy              =  -12723.07322082 Ry
     Harris-Foulkes estimate   =  -12723.07322067 Ry
     estimated scf accuracy    <       0.00000014 Ry

     iteration # 40     ecut=    80.00 Ry     beta=0.70
     Davidson diagonalization with overlap
     ethr =  1.06E-11,  avg # of iterations =  3.0

     negative rho (up, down):  1.680E-03 0.000E+00

     total cpu time spent up to now is    12833.4 secs

     total energy              =  -12723.07322084 Ry
     Harris-Foulkes estimate   =  -12723.07322083 Ry
     estimated scf accuracy    <       0.00000005 Ry

     iteration # 41     ecut=    80.00 Ry     beta=0.70
     Davidson diagonalization with overlap
     ethr =  4.22E-12,  avg # of iterations =  2.8

     negative rho (up, down):  1.677E-03 0.000E+00

     total cpu time spent up to now is    13031.4 secs

     total energy              =  -12723.07322087 Ry
     Harris-Foulkes estimate   =  -12723.07322085 Ry
     estimated scf accuracy    <       0.00000003 Ry

     iteration # 42     ecut=    80.00 Ry     beta=0.70
     Davidson diagonalization with overlap
     ethr =  2.05E-12,  avg # of iterations =  3.0

     negative rho (up, down):  1.670E-03 0.000E+00

     total cpu time spent up to now is    13220.8 secs

     End of self-consistent calculation

          k = 0.0000 0.0000 0.0000 (256287 PWs)   bands (ev):

   -16.9438 -15.8062 -15.6548 -15.0376 -14.6488 -14.4007 -14.3070 -13.8258
   -13.7803 -13.7070 -13.6882 -13.1023 -12.9548 -12.7635 -12.7412 -12.6914
   -12.6880 -11.3488 -11.1709 -11.1480 -11.0299 -10.9393 -10.9326  -9.9580
    -9.4612  -9.4317  -9.2674  -9.2005  -8.5850  -8.4081  -8.2654  -8.1843
    -7.7089  -7.5117  -7.4519  -7.2911  -7.1971  -7.1808  -7.1445  -7.1115
    -6.0301  -6.0226  -5.8953  -5.7822  -5.6698  -5.6117  -5.5731  -5.5549
    -5.5382  -5.3722  -5.3608  -5.0942  -4.7745  -4.5506  -4.5211  -4.3948
    -4.2926  -4.2790  -4.2124  -4.1345  -4.0287  -3.8937  -3.8582  -3.8294
    -3.7239  -3.6354  -3.5277  -3.3447  -3.3212  -3.2990  -3.2745  -3.2649
    -3.2365  -3.1229  -3.1041  -3.0842  -2.9215  -2.8889  -2.8878  -2.8817
    -2.8767  -2.8667  -2.7252  -2.6730  -2.6700  -2.5646  -2.5555  -2.5258
    -2.5058  -2.4696  -2.4516  -2.4401  -2.3788  -2.3735  -2.2268  -2.1721
    -2.1704  -2.1684  -2.1379  -2.0755  -2.0734  -2.0482  -2.0464  -2.0428
    -2.0409  -1.9171  -1.9159  -1.8995  -1.8915  -1.8907  -1.8436  -1.7665
    -1.7420  -1.7255  -1.6687  -1.6283  -1.6250  -1.6237  -1.6206  -1.6180
    -1.6109  -1.6019  -1.5856  -1.5669  -1.5416  -1.5310  -1.5200  -1.5161
    -1.4975  -1.4876  -1.4613  -1.4597  -1.4446  -1.4358  -1.4306  -1.4273
    -1.4174  -1.4091  -1.4062  -1.3866  -1.3480  -1.3413  -1.3277  -1.3028
    -1.2459  -1.2106  -1.1926  -1.1860  -1.1812  -1.1800  -1.1656  -1.1634
    -1.1491  -1.1347  -1.1092  -1.1026  -1.0846  -1.0828  -1.0653  -1.0433
    -0.9679  -0.9533  -0.9524  -0.9479  -0.9442  -0.9334  -0.9299  -0.9272
    -0.9227  -0.9211  -0.9161  -0.9148  -0.9117  -0.8967  -0.8896  -0.8834
    -0.8800  -0.8763  -0.8458  -0.8383  -0.8368  -0.8241  -0.8134  -0.8123
    -0.8044  -0.7911  -0.7753  -0.7605  -0.7589  -0.7558  -0.7511  -0.7460
    -0.7427  -0.7419  -0.7414  -0.7390  -0.7361  -0.7316  -0.7302  -0.7277
    -0.7246  -0.7198  -0.7191  -0.6505  -0.6014  -0.5922  -0.5898  -0.5856
    -0.5850  -0.5787  -0.5468  -0.5350  -0.5326  -0.5301  -0.5278  -0.5190
    -0.5165  -0.5111  -0.5081  -0.4936  -0.4849  -0.4610  -0.4573  -0.4560
    -0.4514  -0.4476  -0.4469  -0.4416  -0.4364  -0.4322  -0.4272  -0.3901
    -0.3820  -0.3797  -0.3793  -0.3468  -0.3431  -0.3276  -0.3170  -0.3138
    -0.3110  -0.3107  -0.3096  -0.3052  -0.3048  -0.3012  -0.2978  -0.2969
    -0.2959  -0.2930  -0.2913  -0.2909  -0.2738  -0.2734  -0.2515  -0.2507
    -0.2304  -0.2283  -0.2112  -0.2067  -0.2011  -0.1861  -0.1835  -0.1791
    -0.1734  -0.1607  -0.1603  -0.1590  -0.1499  -0.1475  -0.1410  -0.1400
    -0.1284  -0.1269  -0.1236  -0.1194  -0.1170  -0.1086  -0.1062  -0.1027
    -0.0974  -0.0833  -0.0830  -0.0801  -0.0782  -0.0758  -0.0747  -0.0538
    -0.0350  -0.0291  -0.0258  -0.0181  -0.0156   0.0150   0.0169   0.0314
     0.0332   0.0368   0.0401   0.0492   0.0518   0.0575   0.0641   0.0652
     0.0717   0.0808   0.0823   0.0865   0.1052   0.1086   0.1154   0.1167
     0.1224   0.1289   0.1305   0.1346   0.1391   0.1441   0.1473   0.1617
     0.1621   0.1651   0.1675   0.1715   0.1820   0.1839   0.1957   0.1995
     0.2030   0.2064   0.2159   0.2210   0.2349   0.2417   0.2619   0.2658
     0.2693   0.2718   0.2735   0.2796   0.2904   0.3018   0.3108   0.3127
     0.3276   0.3299   0.3584   0.3668   0.3756   0.3892   0.3896   0.3986
     0.4061   0.4114   0.4126   0.4321   0.4347   0.4431   0.4535   0.4648
     0.4681   0.4752   0.4772   0.4801   0.4867   0.4941   0.4951   0.5039
     0.5177   0.5216   0.5266   0.5315   0.5431   0.5446   0.5630   0.5677
     0.5721   0.5727   0.5826   0.5869   0.5896   0.5962   0.5972   0.6026
     0.6107   0.6212   0.6300   0.6332   0.6370   0.6411   0.6533   0.6543
     0.6583   0.6595   0.6608   0.6637   0.6654   0.6692   0.6705   0.6777
     0.6849   0.6874   0.6991   0.7022   0.7041   0.7145   0.7206   0.7316
     0.7385   0.7389   0.7406   0.7544   0.7577   0.7601   0.7620   0.7691
     0.7781   0.7799   0.7813   0.7819   0.7827   0.7854   0.7867   0.7919
     0.8000   0.8020   0.8145   0.8167   0.8218   0.8267   0.8295   0.8332
     0.8413   0.8430   0.8433   0.8487   0.8590   0.8605   0.8630   0.8692
     0.8739   0.8760   0.8978   0.9003   0.9054   0.9126   0.9278   0.9314
     0.9497   0.9521   0.9534   0.9580   0.9621   0.9650   0.9698   0.9724
     0.9809   0.9837   0.9888   0.9921   0.9962   0.9967   1.0089   1.0121
     1.0162   1.0196   1.0216   1.0273   1.0328   1.0374   1.0385   1.0411
     1.0484   1.0608   1.0805   1.0821   1.0880   1.0898   1.0999   1.1018
     1.1032   1.1073   1.1118   1.1139   1.1200   1.1220   1.1239   1.1267
     1.1344   1.1366   1.1388   1.1417   1.1438   1.1449   1.1549   1.1580
     1.1648   1.1723   1.1803   1.1852   1.1887   1.1906   1.1952   1.1971
     1.2025   1.2045   1.2063   1.2083   1.2095   1.2120   1.2198   1.2227
     1.2251   1.2289   1.2307   1.2352   1.2377   1.2434   1.2500   1.2601
     1.2624   1.2659   1.2713   1.2770   1.2878   1.2894   1.2955   1.3049
     1.3061   1.3084   1.3196   1.3244   1.3334   1.3370   1.3375   1.3394
     1.3412   1.3473   1.3516   1.3548   1.3658   1.3680   1.3684   1.3706
     1.3731   1.3736   1.3802   1.3819   1.3863   1.3891   1.3925   1.3980
     1.4040   1.4064   1.4081   1.4086   1.4094   1.4131   1.4137   1.4207
     1.4230   1.4277   1.4318   1.4365   1.4372   1.4422   1.4431   1.4457
     1.4509   1.4532   1.4586   1.4675   1.4760   1.4855   1.4933   1.4941
     1.4970   1.4974   1.5099   1.5122   1.5137   1.5185   1.5198   1.5219
     1.5238   1.5262   1.5277   1.5302   1.5324   1.5329   1.5385   1.5493
     1.5524   1.5572   1.5586   1.5601   1.5683   1.5691   1.5711   1.5720
     1.5803   1.5873   1.5997   1.6099   1.6113   1.6153   1.6434   1.6465
     1.6509   1.6533   1.6584   1.6670   1.6817   1.6882   1.7137   1.7151
     1.7222   1.7234   1.7257   1.7330   1.7358   1.7524   1.7529   1.7720
     2.0214   2.0512   2.1564   2.1617   2.1840   2.2544   2.2928   2.2930
     2.2951   2.2966   2.3062   2.3116   2.3193   2.3218   2.4400   2.4421
     2.5123   2.5197   2.5479   2.5635   2.5849   2.6528   2.7743   2.7877
     2.8097   2.8271   2.9739   3.1158   3.2651   3.3006   3.3680   3.5437
     3.5691   3.8476   3.8564   3.8796   3.8940   3.9251   3.9371   3.9435
     3.9780   4.0111   4.0292   4.0571   4.0929   4.1006   4.1040   4.1057
     4.1214   4.2157   4.2321   4.2552   4.3613   4.5521   4.6596   4.8589
     5.0152   5.1460   5.2198   5.2328   5.2645   5.3361   5.3872   5.4137
     5.6260   5.6444   5.8346   5.8453   6.0135   6.0182   6.2474   6.2503
     6.3852   6.4389   6.4719   6.5034   6.5284   6.5362   6.6174   6.6472
     6.7109   6.7375   6.8195   6.8840   6.8990   6.9484   6.9821   6.9991
     7.0396   7.0639   7.0979   7.1359   7.1865   7.2226   7.3887   7.4523
     7.4676   7.4961   7.5526   7.7042   7.7301   7.7777   7.8541   8.0066
     8.0275   8.0728   8.1359   8.1625   8.2055   8.2185   8.2906   8.3269
     8.3449   8.3874   8.4019   8.4308   8.4451   8.5421   8.5526   8.6100
     8.6139   8.6371   8.6394   8.6846   8.7577   8.7796   8.7952   8.8215
     8.8550   8.8712   8.9166   8.9510   8.9984   9.0448   9.0642   9.0818
     9.1601   9.1863   9.2759   9.3894   9.4237   9.4478   9.4651   9.4985
     9.5429   9.5883   9.6400   9.6735   9.6775   9.8532   9.9168   9.9341
    10.0314  10.0859  10.1385  10.1405

          k = 0.0000-0.2165 0.0000 (256176 PWs)   bands (ev):

   -16.9436 -15.8680 -15.4725 -15.2529 -14.6897 -14.2994 -13.9375 -13.9021
   -13.8762 -13.8446 -13.4106 -13.3518 -13.3091 -13.2878 -12.2483 -12.0705
   -12.0141 -11.9294 -11.8133 -11.7523 -10.9445 -10.3207 -10.2200 -10.2000
   -10.0559  -9.1436  -9.0807  -8.9349  -8.7774  -8.5974  -8.5596  -8.0039
    -7.8827  -7.8061  -7.7540  -7.1306  -6.9850  -6.6402  -6.6075  -6.5301
    -6.5196  -6.4840  -6.4605  -5.9371  -5.8436  -5.7675  -5.7541  -5.2039
    -5.1161  -5.0684  -4.8940  -4.8211  -4.7178  -4.7062  -4.6738  -4.6410
    -4.6183  -4.4718  -4.3652  -4.3476  -4.1346  -4.0813  -3.8232  -3.6883
    -3.6540  -3.5412  -3.4296  -3.4006  -3.2175  -3.1916  -3.1744  -3.1729
    -3.1689  -3.0688  -3.0124  -2.9544  -2.9128  -2.8981  -2.8514  -2.7995
    -2.7537  -2.7529  -2.6476  -2.6337  -2.6007  -2.5794  -2.5666  -2.5466
    -2.4674  -2.4668  -2.4631  -2.4579  -2.3806  -2.3363  -2.3350  -2.3012
    -2.2738  -2.2682  -2.1931  -2.1691  -2.1558  -2.0672  -2.0603  -2.0139
    -2.0122  -2.0108  -1.9999  -1.8718  -1.8710  -1.8534  -1.8526  -1.8188
    -1.8040  -1.7889  -1.7844  -1.7256  -1.6715  -1.6629  -1.6584  -1.6451
    -1.6328  -1.6280  -1.6244  -1.6116  -1.6090  -1.5981  -1.5541  -1.5483
    -1.5476  -1.5448  -1.5388  -1.5233  -1.3948  -1.3931  -1.3661  -1.3466
    -1.2651  -1.2562  -1.2363  -1.2210  -1.2204  -1.2131  -1.2079  -1.1880
    -1.1839  -1.1805  -1.1763  -1.1721  -1.1676  -1.1615  -1.1525  -1.1497
    -1.1461  -1.1311  -1.1236  -1.1214  -1.1109  -1.1078  -1.0987  -1.0911
    -1.0851  -1.0615  -1.0443  -1.0227  -1.0011  -0.9865  -0.9768  -0.9757
    -0.9753  -0.9686  -0.9486  -0.9460  -0.9412  -0.9403  -0.9009  -0.8971
    -0.8863  -0.8758  -0.8631  -0.8628  -0.8591  -0.8586  -0.8270  -0.8242
    -0.8214  -0.8202  -0.8195  -0.8047  -0.7966  -0.7912  -0.7748  -0.7694
    -0.7390  -0.7369  -0.7277  -0.7216  -0.7126  -0.7104  -0.7065  -0.7018
    -0.6796  -0.6756  -0.6732  -0.6528  -0.6504  -0.6454  -0.6411  -0.6282
    -0.5773  -0.5740  -0.5313  -0.5306  -0.5184  -0.5160  -0.5067  -0.5046
    -0.5027  -0.5019  -0.5000  -0.4998  -0.4801  -0.4624  -0.4393  -0.4354
    -0.4304  -0.4255  -0.4230  -0.4223  -0.4185  -0.4169  -0.4165  -0.3869
    -0.3856  -0.3791  -0.3779  -0.3660  -0.3586  -0.3536  -0.3500  -0.3474
    -0.3416  -0.3407  -0.3376  -0.2979  -0.2921  -0.2896  -0.2884  -0.2635
    -0.2590  -0.2266  -0.2161  -0.2128  -0.2121  -0.2091  -0.2090  -0.2063
    -0.2040  -0.2014  -0.1971  -0.1809  -0.1706  -0.1563  -0.1531  -0.1498
    -0.1486  -0.1476  -0.1397  -0.1370  -0.1358  -0.1328  -0.1148  -0.1136
    -0.1088  -0.1069  -0.1010  -0.0947  -0.0936  -0.0916  -0.0904  -0.0811
    -0.0690  -0.0597  -0.0560  -0.0485  -0.0459  -0.0411  -0.0385  -0.0366
    -0.0271  -0.0171  -0.0152  -0.0024   0.0029   0.0074   0.0171   0.0185
     0.0211   0.0231   0.0365   0.0380   0.0446   0.0600   0.0669   0.0717
     0.0772   0.0851   0.0900   0.0971   0.1043   0.1094   0.1097   0.1225
     0.1270   0.1290   0.1400   0.1440   0.1490   0.1601   0.1626   0.1633
     0.1679   0.1746   0.1843   0.1897   0.2019   0.2032   0.2075   0.2137
     0.2154   0.2204   0.2272   0.2331   0.2381   0.2457   0.2485   0.2539
     0.2573   0.2594   0.2846   0.2898   0.2959   0.2969   0.2988   0.3039
     0.3161   0.3251   0.3293   0.3351   0.3425   0.3589   0.3710   0.3735
     0.3884   0.4018   0.4028   0.4211   0.4293   0.4558   0.4566   0.4740
     0.4822   0.4883   0.4941   0.5011   0.5164   0.5170   0.5204   0.5234
     0.5277   0.5360   0.5377   0.5411   0.5442   0.5525   0.5636   0.5650
     0.5762   0.5808   0.5829   0.5895   0.5942   0.5951   0.5959   0.5990
     0.6045   0.6092   0.6150   0.6202   0.6241   0.6247   0.6294   0.6310
     0.6311   0.6342   0.6378   0.6417   0.6495   0.6540   0.6582   0.6645
     0.6675   0.6678   0.6757   0.6805   0.6811   0.6870   0.6932   0.6947
     0.7045   0.7057   0.7086   0.7102   0.7264   0.7328   0.7349   0.7390
     0.7421   0.7485   0.7557   0.7569   0.7620   0.7669   0.7722   0.7745
     0.7837   0.7867   0.7898   0.7900   0.7903   0.7983   0.8057   0.8116
     0.8228   0.8374   0.8427   0.8466   0.8488   0.8562   0.8598   0.8620
     0.8657   0.8758   0.8920   0.8930   0.8933   0.8948   0.8970   0.8992
     0.9291   0.9320   0.9762   0.9777   0.9830   0.9879   0.9948   1.0013
     1.0037   1.0071   1.0081   1.0156   1.0170   1.0194   1.0200   1.0234
     1.0248   1.0311   1.0313   1.0320   1.0358   1.0398   1.0487   1.0532
     1.0546   1.0596   1.0602   1.0622   1.0656   1.0670   1.0691   1.0709
     1.0789   1.0796   1.0804   1.0825   1.0896   1.0924   1.0933   1.1007
     1.1040   1.1056   1.1157   1.1179   1.1222   1.1245   1.1310   1.1334
     1.1347   1.1363   1.1380   1.1423   1.1425   1.1448   1.1505   1.1508
     1.1810   1.1835   1.1865   1.1912   1.2209   1.2225   1.2247   1.2388
     1.2577   1.2608   1.2658   1.2726   1.2742   1.2775   1.2800   1.2835
     1.2871   1.2912   1.2935   1.2969   1.2976   1.3003   1.3019   1.3032
     1.3048   1.3082   1.3129   1.3148   1.3170   1.3208   1.3240   1.3259
     1.3274   1.3326   1.3351   1.3412   1.3420   1.3429   1.3570   1.3590
     1.3631   1.3657   1.3667   1.3752   1.3785   1.3873   1.3880   1.3908
     1.3937   1.4019   1.4028   1.4080   1.4132   1.4156   1.4208   1.4279
     1.4303   1.4314   1.4324   1.4350   1.4517   1.4614   1.4620   1.4701
     1.4736   1.4766   1.4776   1.4796   1.4801   1.4822   1.4846   1.4901
     1.4926   1.4928   1.5030   1.5045   1.5258   1.5270   1.5303   1.5346
     1.5415   1.5439   1.5444   1.5462   1.5477   1.5536   1.5565   1.5648
     1.5682   1.5786   1.5819   1.5871   1.5895   1.5904   1.5931   1.5949
     1.6074   1.6079   1.6099   1.6103   1.6125   1.6321   1.6609   1.6636
     1.6655   1.6768   1.6774   1.6867   1.7455   1.7575   1.7610   1.8241
     1.8574   1.8591   1.8611   1.8614   1.8728   1.8845   1.8979   1.9158
     1.9192   1.9239   1.9312   1.9427   1.9672   1.9699   2.0343   2.2769
     2.3018   2.3411   2.4402   2.4417   2.5075   2.5184   2.5850   2.5946
     2.6110   2.6269   2.6528   2.6739   2.6811   2.6827   2.7716   2.7904
     2.8123   2.8137   2.8670   2.9321   3.0193   3.0206   3.2275   3.2520
     3.2637   3.2650   3.2848   3.4734   3.7603   3.7706   3.8739   4.0264
     4.0273   4.1542   4.1763   4.2286   4.2808   4.3344   4.3374   4.3691
     4.4071   4.4210   4.4384   4.5073   4.5294   4.6290   4.7139   4.9400
     5.1861   5.1925   5.2632   5.3022   5.3608   5.4345   5.4415   5.4441
     5.4671   5.5221   5.7025   5.8741   5.9265   6.0324   6.1190   6.1469
     6.2466   6.2603   6.2850   6.2996   6.4298   6.4502   6.5257   6.6228
     6.7345   6.7469   6.7800   6.8233   6.8888   7.0185   7.0492   7.1131
     7.1293   7.1453   7.1575   7.1693   7.2595   7.2697   7.3342   7.3564
     7.3708   7.4025   7.4420   7.5010   7.5978   7.7104   7.7744   7.8433
     7.9315   7.9462   8.1755   8.1853   8.2357   8.2429   8.3491   8.3976
     8.4366   8.4483   8.4611   8.4760   8.4875   8.6081   8.6391   8.6449
     8.7217   8.7464   8.7587   8.7706   8.7831   8.8260   8.8435   8.8984
     8.9858   9.0238   9.0536   9.0942   9.1237   9.1686   9.1830   9.2908
     9.3456   9.3589   9.3762   9.4107   9.4170   9.4186   9.4420   9.4863
     9.4886   9.5110   9.5926   9.6026   9.6382   9.7444   9.7624   9.8838
     9.8978   9.9674   9.9787   9.9861

          k = 0.2500 0.0000 0.0000 (256240 PWs)   bands (ev):

   -16.8953 -15.6999 -15.5321 -15.2734 -14.7228 -14.5849 -14.5466 -14.4849
   -13.7188 -13.5587 -13.3937 -12.8728 -12.7994 -12.6959 -12.6168 -11.9989
   -11.8711 -11.7606 -11.6852 -10.9688 -10.9472 -10.7783 -10.3997 -10.2574
   -10.0948  -9.8332  -9.5761  -9.5311  -9.1079  -8.8578  -8.7639  -8.4170
    -7.6767  -7.4720  -7.4059  -7.2371  -7.2105  -7.1008  -6.7141  -6.6016
    -5.9842  -5.8536  -5.7164  -5.6765  -5.5945  -5.5338  -5.2115  -5.1878
    -5.1565  -5.0412  -4.9900  -4.6133  -4.5995  -4.3555  -4.2888  -4.2572
    -4.2367  -4.1916  -4.1361  -4.0699  -4.0409  -3.9053  -3.8858  -3.8526
    -3.8454  -3.7855  -3.7133  -3.7021  -3.6443  -3.5078  -3.4572  -3.3787
    -3.3341  -3.3251  -3.2851  -3.1699  -3.1427  -3.1366  -3.0677  -2.9993
    -2.9511  -2.9444  -2.9109  -2.8473  -2.7881  -2.7718  -2.6831  -2.6809
    -2.6241  -2.5968  -2.4663  -2.4298  -2.3527  -2.2960  -2.2607  -2.2595
    -2.1919  -2.1871  -2.1297  -2.0970  -1.9859  -1.9838  -1.9725  -1.9631
    -1.9300  -1.8309  -1.8082  -1.7925  -1.7465  -1.7020  -1.6938  -1.6930
    -1.6890  -1.6883  -1.6857  -1.6844  -1.6645  -1.6498  -1.6423  -1.6170
    -1.5738  -1.5550  -1.5233  -1.5197  -1.5143  -1.4757  -1.4684  -1.4621
    -1.4617  -1.4590  -1.4511  -1.4487  -1.4391  -1.4235  -1.4047  -1.3964
    -1.3939  -1.3872  -1.3763  -1.3051  -1.2604  -1.2160  -1.2093  -1.2070
    -1.1744  -1.1606  -1.1438  -1.1398  -1.1346  -1.1258  -1.1235  -1.1110
    -1.0929  -1.0823  -1.0806  -1.0739  -1.0682  -1.0626  -1.0480  -1.0312
    -1.0271  -1.0267  -1.0106  -1.0041  -0.9952  -0.9936  -0.9922  -0.9826
    -0.9528  -0.9436  -0.9280  -0.9172  -0.9153  -0.9136  -0.9076  -0.9054
    -0.9004  -0.8997  -0.8925  -0.8917  -0.8895  -0.8877  -0.8834  -0.8729
    -0.8716  -0.8660  -0.8600  -0.8546  -0.8521  -0.8505  -0.8359  -0.8268
    -0.7965  -0.7784  -0.7702  -0.7485  -0.7417  -0.7142  -0.7119  -0.7031
    -0.7004  -0.6813  -0.6768  -0.6726  -0.6639  -0.6574  -0.6366  -0.6338
    -0.6271  -0.6206  -0.6139  -0.6081  -0.5986  -0.5100  -0.5038  -0.4867
    -0.4836  -0.4732  -0.4679  -0.4638  -0.4628  -0.4547  -0.4480  -0.4447
    -0.4431  -0.4416  -0.4233  -0.4190  -0.4134  -0.4096  -0.3983  -0.3914
    -0.3821  -0.3784  -0.3730  -0.3722  -0.3677  -0.3655  -0.3615  -0.3610
    -0.3552  -0.3210  -0.3057  -0.3033  -0.2967  -0.2886  -0.2841  -0.2818
    -0.2644  -0.2630  -0.2610  -0.2529  -0.2464  -0.2426  -0.2397  -0.2387
    -0.2083  -0.2019  -0.2009  -0.1872  -0.1864  -0.1830  -0.1818  -0.1782
    -0.1767  -0.1647  -0.1632  -0.1576  -0.1480  -0.1466  -0.1421  -0.1260
    -0.1073  -0.1057  -0.0957  -0.0934  -0.0914  -0.0872  -0.0774  -0.0723
    -0.0713  -0.0652  -0.0615  -0.0604  -0.0359  -0.0284  -0.0220  -0.0149
    -0.0124  -0.0096  -0.0035   0.0052   0.0161   0.0232   0.0352   0.0478
     0.0539   0.0589   0.0739   0.0777   0.0801   0.0815   0.0933   0.0970
     0.1009   0.1040   0.1158   0.1186   0.1226   0.1246   0.1278   0.1303
     0.1350   0.1368   0.1402   0.1418   0.1526   0.1532   0.1571   0.1708
     0.1783   0.1828   0.1967   0.2030   0.2079   0.2132   0.2195   0.2225
     0.2280   0.2313   0.2320   0.2426   0.2452   0.2515   0.2571   0.2661
     0.2698   0.2925   0.3065   0.3197   0.3293   0.3402   0.3459   0.3584
     0.3670   0.3733   0.3748   0.3830   0.3848   0.3875   0.3898   0.3946
     0.3977   0.4014   0.4050   0.4083   0.4287   0.4306   0.4350   0.4365
     0.4407   0.4472   0.4515   0.4630   0.4677   0.4734   0.4821   0.4860
     0.4885   0.4943   0.5081   0.5108   0.5175   0.5293   0.5342   0.5443
     0.5483   0.5515   0.5538   0.5551   0.5596   0.5694   0.5748   0.5793
     0.5851   0.5895   0.5970   0.5984   0.6015   0.6066   0.6094   0.6115
     0.6170   0.6186   0.6312   0.6409   0.6429   0.6525   0.6561   0.6592
     0.6626   0.6674   0.6685   0.6745   0.6770   0.6798   0.6913   0.6930
     0.6993   0.7027   0.7103   0.7144   0.7255   0.7320   0.7337   0.7378
     0.7396   0.7448   0.7474   0.7551   0.7579   0.7596   0.7617   0.7692
     0.7722   0.7948   0.7978   0.8032   0.8119   0.8203   0.8313   0.8404
     0.8434   0.8452   0.8514   0.8546   0.8629   0.8639   0.8671   0.8721
     0.8790   0.8868   0.8887   0.8911   0.8920   0.9213   0.9261   0.9290
     0.9363   0.9463   0.9485   0.9507   0.9525   0.9560   0.9616   0.9722
     0.9781   0.9811   0.9829   0.9870   0.9881   0.9932   0.9948   0.9996
     1.0042   1.0090   1.0142   1.0189   1.0227   1.0338   1.0396   1.0485
     1.0514   1.0678   1.0692   1.0813   1.0847   1.0862   1.0970   1.1019
     1.1051   1.1062   1.1114   1.1124   1.1139   1.1174   1.1188   1.1226
     1.1240   1.1266   1.1347   1.1381   1.1406   1.1453   1.1479   1.1488
     1.1544   1.1578   1.1617   1.1641   1.1703   1.1725   1.1781   1.1825
     1.1871   1.1890   1.1934   1.1999   1.2055   1.2079   1.2111   1.2126
     1.2152   1.2182   1.2194   1.2220   1.2245   1.2272   1.2287   1.2352
     1.2411   1.2523   1.2547   1.2596   1.2703   1.2863   1.2872   1.2898
     1.2919   1.2950   1.3029   1.3115   1.3174   1.3211   1.3301   1.3395
     1.3476   1.3503   1.3510   1.3534   1.3558   1.3576   1.3589   1.3698
     1.3718   1.3742   1.3788   1.3831   1.3842   1.3868   1.3930   1.3972
     1.3996   1.4030   1.4050   1.4093   1.4127   1.4149   1.4164   1.4221
     1.4234   1.4248   1.4273   1.4342   1.4409   1.4444   1.4472   1.4488
     1.4578   1.4600   1.4711   1.4770   1.4779   1.4844   1.4885   1.4950
     1.5087   1.5092   1.5099   1.5107   1.5133   1.5176   1.5267   1.5284
     1.5298   1.5305   1.5339   1.5381   1.5394   1.5427   1.5467   1.5480
     1.5545   1.5550   1.5597   1.5646   1.5687   1.5727   1.5762   1.5802
     1.5833   1.5857   1.5892   1.5914   1.5995   1.5999   1.6026   1.6105
     1.6131   1.6231   1.6425   1.6537   1.6619   1.6744   1.6786   1.7152
     1.7175   1.7207   1.7293   1.7324   1.7444   1.8133   1.8267   1.8581
     1.8620   1.9018   1.9179   1.9325   2.0877   2.1176   2.1237   2.1304
     2.1328   2.1578   2.1713   2.2331   2.2601   2.2628   2.4131   2.6406
     2.6462   2.6527   2.6852   3.0245   3.0730   3.0735   3.2668   3.2928
     3.2968   3.3131   3.3142   3.3435   3.4174   3.5114   3.5937   3.6273
     3.6988   3.7195   3.7688   3.7759   3.7830   3.8196   3.8669   3.9085
     3.9351   3.9661   4.0043   4.0304   4.0935   4.3190   4.3528   4.3786
     4.4175   4.6051   4.6611   4.7452   4.8673   4.9086   4.9115   5.0810
     5.2893   5.2962   5.3118   5.3391   5.4237   5.4642   5.4961   5.5160
     5.5258   5.5703   5.5766   5.6071   5.6469   5.6653   5.7181   5.7256
     5.8622   5.9246   6.0142   6.0872   6.0897   6.1181   6.1218   6.1590
     6.6243   6.6768   6.7151   6.7628   6.8273   6.8376   6.8822   6.9491
     6.9875   7.0099   7.0483   7.0917   7.1167   7.1280   7.1590   7.1705
     7.1911   7.2061   7.3043   7.3368   7.4924   7.5723   7.6082   7.6427
     7.6631   7.6947   7.7419   7.8119   8.0321   8.0610   8.1098   8.1224
     8.1471   8.1776   8.1995   8.2325   8.2489   8.3085   8.3442   8.3666
     8.4524   8.5019   8.5173   8.5635   8.6970   8.7180   8.9143   8.9858
     9.0118   9.0239   9.0508   9.1079   9.1226   9.1478   9.1778   9.1965
     9.2471   9.2588   9.3029   9.3131   9.3464   9.4723   9.4974   9.5176
     9.5234   9.5313   9.5978   9.6487   9.7153   9.7615   9.7745   9.7925
     9.8305   9.8397   9.8728   9.9710

          k = 0.2500-0.2165 0.0000 (256316 PWs)   bands (ev):

   -16.8951 -15.7440 -15.4616 -15.1333 -15.0590 -14.7554 -14.2941 -14.1568
   -13.8798 -13.7373 -13.3417 -12.8789 -12.8303 -12.7814 -12.3486 -12.2549
   -11.8409 -11.6977 -11.1503 -11.0674 -10.9699 -10.9105 -10.7953 -10.5737
   -10.1896  -9.4622  -9.4021  -9.0790  -9.0243  -8.7843  -8.7184  -8.3488
    -8.2624  -8.1038  -8.0527  -6.9356  -6.7035  -6.5049  -6.3170  -6.2495
    -6.1415  -6.0198  -5.9761  -5.8117  -5.7800  -5.5920  -5.5757  -5.0783
    -5.0443  -4.9006  -4.7521  -4.6335  -4.5550  -4.5477  -4.5058  -4.4711
    -4.2649  -4.2571  -4.2172  -4.1612  -4.0935  -3.9426  -3.8966  -3.8361
    -3.7931  -3.7580  -3.6136  -3.5313  -3.4508  -3.4311  -3.3333  -3.3302
    -3.2803  -3.2761  -3.2419  -3.2039  -3.0969  -3.0826  -3.0513  -3.0031
    -2.8766  -2.8701  -2.8102  -2.7962  -2.7885  -2.7819  -2.7615  -2.6966
    -2.6679  -2.6020  -2.5666  -2.5320  -2.4358  -2.4078  -2.2016  -2.1933
    -2.1463  -2.1239  -2.0810  -2.0601  -2.0593  -2.0371  -2.0134  -1.9953
    -1.9002  -1.8964  -1.8916  -1.8585  -1.8243  -1.7454  -1.7305  -1.7048
    -1.7037  -1.6881  -1.6636  -1.6558  -1.6107  -1.6009  -1.5971  -1.5945
    -1.5833  -1.5775  -1.5709  -1.5686  -1.5672  -1.5641  -1.5569  -1.5540
    -1.5522  -1.5203  -1.4823  -1.4793  -1.4546  -1.4150  -1.3552  -1.3511
    -1.2852  -1.2815  -1.2240  -1.2183  -1.1859  -1.1782  -1.1711  -1.1670
    -1.1592  -1.1564  -1.1473  -1.1447  -1.1384  -1.1344  -1.1291  -1.1282
    -1.1219  -1.1111  -1.1034  -1.0993  -1.0978  -1.0878  -1.0636  -1.0600
    -1.0578  -1.0540  -1.0392  -1.0299  -1.0257  -1.0020  -0.9991  -0.9964
    -0.9952  -0.9834  -0.9517  -0.9494  -0.9373  -0.9315  -0.9134  -0.9119
    -0.9006  -0.8930  -0.8880  -0.8797  -0.8693  -0.8625  -0.8574  -0.8527
    -0.8515  -0.8430  -0.8399  -0.8345  -0.8234  -0.8207  -0.8078  -0.8032
    -0.8018  -0.7859  -0.7530  -0.7515  -0.7278  -0.7009  -0.6990  -0.6786
    -0.6599  -0.6452  -0.6405  -0.6385  -0.6335  -0.6131  -0.6083  -0.6056
    -0.5967  -0.5947  -0.5930  -0.5910  -0.5854  -0.5695  -0.5364  -0.5334
    -0.5129  -0.5062  -0.5020  -0.4966  -0.4824  -0.4730  -0.4603  -0.4597
    -0.4392  -0.4378  -0.4334  -0.4272  -0.4173  -0.3985  -0.3950  -0.3898
    -0.3857  -0.3804  -0.3774  -0.3734  -0.3645  -0.3288  -0.3257  -0.3177
    -0.3147  -0.3080  -0.3020  -0.2982  -0.2941  -0.2925  -0.2758  -0.2711
    -0.2694  -0.2659  -0.2580  -0.2569  -0.2555  -0.2430  -0.2396  -0.2334
    -0.2283  -0.2240  -0.2230  -0.2101  -0.2080  -0.1977  -0.1856  -0.1844
    -0.1811  -0.1724  -0.1648  -0.1613  -0.1425  -0.1409  -0.1366  -0.1345
    -0.1328  -0.1203  -0.1044  -0.0944  -0.0895  -0.0855  -0.0790  -0.0727
    -0.0562  -0.0402  -0.0326  -0.0148  -0.0098  -0.0033  -0.0007   0.0004
     0.0072   0.0080   0.0135   0.0204   0.0250   0.0326   0.0382   0.0416
     0.0517   0.0560   0.0667   0.0747   0.0792   0.0892   0.0899   0.0943
     0.0954   0.0969   0.1014   0.1019   0.1085   0.1117   0.1163   0.1173
     0.1196   0.1229   0.1324   0.1351   0.1388   0.1401   0.1625   0.1674
     0.1738   0.1762   0.1872   0.1882   0.1998   0.2028   0.2127   0.2275
     0.2320   0.2442   0.2463   0.2508   0.2542   0.2616   0.2638   0.2683
     0.2730   0.2758   0.2832   0.2844   0.2888   0.3075   0.3227   0.3372
     0.3417   0.3456   0.3587   0.3718   0.3791   0.3837   0.3849   0.3911
     0.3944   0.4072   0.4125   0.4191   0.4222   0.4277   0.4349   0.4401
     0.4438   0.4475   0.4522   0.4541   0.4574   0.4763   0.4824   0.4845
     0.4900   0.4938   0.4987   0.5055   0.5151   0.5222   0.5231   0.5272
     0.5299   0.5350   0.5458   0.5600   0.5634   0.5698   0.5785   0.5827
     0.5898   0.5914   0.5930   0.5987   0.6035   0.6109   0.6166   0.6197
     0.6272   0.6330   0.6367   0.6488   0.6754   0.6838   0.6894   0.6912
     0.6929   0.6993   0.7002   0.7062   0.7094   0.7117   0.7146   0.7196
     0.7214   0.7252   0.7300   0.7441   0.7478   0.7501   0.7565   0.7607
     0.7650   0.7656   0.7726   0.7736   0.7775   0.7830   0.7855   0.7879
     0.7938   0.7963   0.8012   0.8021   0.8049   0.8079   0.8102   0.8128
     0.8182   0.8213   0.8291   0.8330   0.8357   0.8492   0.8586   0.8612
     0.8620   0.8696   0.8951   0.8972   0.9093   0.9125   0.9162   0.9239
     0.9269   0.9306   0.9345   0.9405   0.9426   0.9474   0.9481   0.9514
     0.9543   0.9561   0.9587   0.9605   0.9637   0.9668   0.9783   0.9873
     0.9886   1.0015   1.0070   1.0093   1.0139   1.0148   1.0211   1.0237
     1.0284   1.0327   1.0355   1.0459   1.0541   1.0591   1.0678   1.0694
     1.0708   1.0752   1.0918   1.1037   1.1047   1.1110   1.1172   1.1184
     1.1420   1.1463   1.1522   1.1582   1.1728   1.1761   1.1793   1.1819
     1.1845   1.1884   1.1924   1.1978   1.1987   1.2003   1.2012   1.2018
     1.2043   1.2075   1.2091   1.2144   1.2172   1.2208   1.2238   1.2351
     1.2428   1.2443   1.2493   1.2514   1.2535   1.2604   1.2640   1.2664
     1.2730   1.2744   1.2772   1.2806   1.2858   1.2874   1.2935   1.2950
     1.2964   1.2997   1.3043   1.3083   1.3134   1.3188   1.3203   1.3225
     1.3240   1.3251   1.3277   1.3289   1.3382   1.3425   1.3461   1.3529
     1.3579   1.3628   1.3643   1.3712   1.3757   1.3800   1.3826   1.3866
     1.3964   1.4006   1.4081   1.4140   1.4163   1.4225   1.4267   1.4297
     1.4317   1.4342   1.4402   1.4457   1.4489   1.4519   1.4553   1.4621
     1.4645   1.4671   1.4685   1.4713   1.4818   1.4835   1.4849   1.4881
     1.4947   1.5017   1.5054   1.5083   1.5117   1.5123   1.5130   1.5147
     1.5163   1.5193   1.5205   1.5289   1.5326   1.5344   1.5364   1.5446
     1.5464   1.5505   1.5553   1.5575   1.5591   1.5637   1.5713   1.5763
     1.5769   1.5822   1.6001   1.6037   1.6059   1.6096   1.6169   1.6213
     1.6312   1.6414   1.6437   1.6450   1.6619   1.6756   1.6766   1.7157
     1.7343   1.7455   1.7708   1.8137   1.8195   1.8243   1.8365   1.8391
     1.8407   1.8470   1.8585   1.8725   1.8762   1.8885   2.0625   2.0820
     2.2182   2.2214   2.2501   2.2527   2.3421   2.4021   2.6752   2.6788
     2.8145   2.8173   2.8503   2.8603   2.8791   2.8843   2.9116   2.9469
     3.0410   3.0772   3.0809   3.1977   3.5384   3.5444   3.5789   3.6173
     3.6588   3.7932   3.9170   3.9247   3.9356   3.9738   4.0471   4.0704
     4.0922   4.1779   4.1824   4.2545   4.2575   4.4607   4.4648   4.5650
     4.5696   4.6114   4.7103   4.7426   4.7458   4.7679   4.8767   4.8898
     4.9478   5.0147   5.0465   5.1017   5.1380   5.2737   5.3611   5.3744
     5.3857   5.4489   5.5175   5.5512   5.6090   5.6910   5.8303   5.8461
     5.8472   5.8634   5.9676   6.1231   6.2385   6.3050   6.4793   6.5052
     6.6614   6.6659   6.6933   6.7651   6.8194   6.8388   6.8535   6.9610
     7.0144   7.0353   7.0604   7.0994   7.2203   7.2311   7.2732   7.2997
     7.3184   7.3301   7.3966   7.4105   7.4746   7.5118   7.5677   7.5788
     7.6345   7.7160   7.7574   7.7885   7.8392   7.8653   7.8851   8.0575
     8.1517   8.2591   8.2814   8.3617   8.4260   8.5380   8.5582   8.5880
     8.6095   8.6249   8.6309   8.6681   8.7236   8.7477   8.7763   8.7989
     8.8263   8.8753   8.9183   8.9316   8.9780   9.0366   9.1159   9.1695
     9.1849   9.1940   9.2373   9.2636   9.2892   9.3096   9.3165   9.3517
     9.3908   9.4340   9.4622   9.5182   9.5264   9.5493   9.6526   9.6726
     9.8348   9.9343   9.9391   9.9626

          k =-0.5000 0.0000 0.0000 (256496 PWs)   bands (ev):

   -16.8382 -15.6033 -15.3137 -15.2014 -15.1975 -15.1220 -14.4161 -14.2243
   -14.1183 -14.0828 -12.8605 -12.5490 -12.4206 -12.3424 -12.0823 -12.0561
   -11.4834 -11.4685 -11.3720 -11.3612 -10.9400 -10.8449 -10.7994 -10.7238
   -10.5034  -9.9430  -9.9210  -9.6855  -9.3568  -8.8068  -8.8026  -8.6132
    -8.5885  -7.5336  -7.3666  -7.3193  -7.1310  -7.0732  -7.0500  -5.9333
    -5.8754  -5.4533  -5.2075  -5.1857  -5.0400  -4.9018  -4.8243  -4.6855
    -4.6838  -4.6766  -4.6570  -4.5327  -4.5248  -4.4428  -4.3876  -4.3572
    -4.3219  -4.2993  -4.2468  -4.2313  -4.2226  -4.1092  -4.0809  -4.0738
    -4.0316  -3.8200  -3.7110  -3.6620  -3.6526  -3.5688  -3.5293  -3.4512
    -3.3888  -3.3145  -3.2999  -3.2982  -3.2967  -3.2916  -3.2523  -3.1480
    -3.1171  -3.1057  -3.0766  -3.0697  -3.0533  -2.7893  -2.5962  -2.5890
    -2.5498  -2.5373  -2.5307  -2.5272  -2.5177  -2.5065  -2.5006  -2.4643
    -2.2646  -2.2603  -2.2412  -2.1886  -2.0759  -1.9661  -1.9535  -1.9067
    -1.7728  -1.7708  -1.7703  -1.7683  -1.7665  -1.7597  -1.6816  -1.6785
    -1.6729  -1.6426  -1.5613  -1.5501  -1.5430  -1.5412  -1.5397  -1.5378
    -1.4980  -1.4945  -1.4880  -1.4830  -1.4192  -1.4072  -1.3961  -1.3923
    -1.3815  -1.3200  -1.3142  -1.3116  -1.3095  -1.3039  -1.3026  -1.2648
    -1.2523  -1.2464  -1.2404  -1.2386  -1.2379  -1.2371  -1.2285  -1.2250
    -1.2237  -1.2174  -1.2095  -1.1931  -1.1911  -1.1901  -1.1870  -1.1762
    -1.1584  -1.1565  -1.1554  -1.1536  -1.1035  -1.1021  -1.0968  -1.0781
    -1.0753  -1.0713  -1.0668  -1.0605  -1.0577  -1.0422  -1.0297  -1.0240
    -1.0152  -1.0082  -1.0022  -0.9993  -0.9879  -0.9860  -0.9688  -0.9671
    -0.9604  -0.9594  -0.9037  -0.8980  -0.8800  -0.8774  -0.8724  -0.8698
    -0.8532  -0.8504  -0.8491  -0.8452  -0.8219  -0.8213  -0.8169  -0.8142
    -0.8137  -0.8075  -0.8059  -0.8041  -0.8026  -0.7889  -0.7818  -0.7420
    -0.7222  -0.7183  -0.7143  -0.7129  -0.6893  -0.6849  -0.6363  -0.6051
    -0.6017  -0.5997  -0.5938  -0.5827  -0.5659  -0.5600  -0.5579  -0.5544
    -0.5509  -0.5405  -0.5218  -0.5096  -0.5018  -0.4942  -0.4882  -0.4845
    -0.4842  -0.4837  -0.4810  -0.4753  -0.4728  -0.4621  -0.4604  -0.3517
    -0.3501  -0.3460  -0.3382  -0.3361  -0.3269  -0.3203  -0.3144  -0.3067
    -0.3041  -0.3033  -0.3027  -0.3015  -0.2888  -0.2740  -0.2656  -0.2626
    -0.2613  -0.2380  -0.2302  -0.2258  -0.2189  -0.2177  -0.2127  -0.2017
    -0.1992  -0.1951  -0.1940  -0.1915  -0.1910  -0.1853  -0.1811  -0.1772
    -0.1767  -0.1475  -0.1443  -0.1357  -0.1310  -0.1136  -0.1057  -0.1050
    -0.1008  -0.0969  -0.0577  -0.0543  -0.0510  -0.0487  -0.0459  -0.0369
    -0.0311  -0.0266  -0.0199  -0.0008   0.0012   0.0058   0.0193   0.0215
     0.0280   0.0361   0.0623   0.0636   0.0736   0.0760   0.0774   0.0797
     0.0807   0.0841   0.0882   0.0892   0.0908   0.0962   0.1240   0.1489
     0.1578   0.1597   0.1656   0.1687   0.1714   0.1752   0.1761   0.1765
     0.1806   0.1831   0.1845   0.1879   0.1906   0.1915   0.1930   0.1968
     0.2001   0.2073   0.2099   0.2139   0.2154   0.2241   0.2261   0.2280
     0.2297   0.2326   0.2340   0.2352   0.2433   0.2439   0.2481   0.2617
     0.2635   0.2684   0.2714   0.2858   0.2896   0.2950   0.2971   0.3161
     0.3451   0.3538   0.3679   0.3732   0.3898   0.3909   0.3951   0.3992
     0.4151   0.4182   0.4201   0.4240   0.4318   0.4480   0.4499   0.4527
     0.4582   0.4593   0.4682   0.4711   0.4820   0.4879   0.4912   0.4929
     0.4954   0.4957   0.5024   0.5070   0.5094   0.5102   0.5124   0.5163
     0.5192   0.5298   0.5533   0.5615   0.5856   0.5900   0.5933   0.6016
     0.6097   0.6134   0.6196   0.6247   0.6280   0.6335   0.6339   0.6355
     0.6421   0.6445   0.6477   0.6494   0.6512   0.6546   0.6550   0.6618
     0.6660   0.6676   0.6701   0.6703   0.6747   0.6752   0.6916   0.6934
     0.6984   0.7097   0.7121   0.7207   0.7300   0.7335   0.7361   0.7384
     0.7421   0.7428   0.7444   0.7492   0.7514   0.7569   0.7599   0.7602
     0.7647   0.7665   0.7679   0.7720   0.7800   0.7841   0.7933   0.7972
     0.8171   0.8202   0.8245   0.8305   0.8333   0.8346   0.8372   0.8426
     0.8529   0.8637   0.8678   0.8754   0.8776   0.8860   0.8883   0.8964
     0.9081   0.9124   0.9262   0.9268   0.9296   0.9320   0.9336   0.9371
     0.9383   0.9394   0.9433   0.9474   0.9494   0.9507   0.9584   0.9664
     0.9679   0.9698   0.9882   0.9898   0.9910   0.9913   0.9947   1.0072
     1.0084   1.0095   1.0161   1.0173   1.0243   1.0327   1.0338   1.0371
     1.0410   1.0440   1.0999   1.1047   1.1081   1.1140   1.1153   1.1188
     1.1263   1.1310   1.1354   1.1467   1.1500   1.1590   1.1611   1.1631
     1.1791   1.1803   1.1860   1.1893   1.2012   1.2046   1.2059   1.2085
     1.2106   1.2137   1.2150   1.2184   1.2191   1.2261   1.2276   1.2320
     1.2327   1.2355   1.2360   1.2422   1.2470   1.2486   1.2511   1.2525
     1.2563   1.2597   1.2667   1.2699   1.2711   1.2759   1.2941   1.3011
     1.3041   1.3054   1.3084   1.3116   1.3198   1.3251   1.3288   1.3305
     1.3320   1.3328   1.3366   1.3377   1.3385   1.3402   1.3439   1.3461
     1.3519   1.3559   1.3797   1.3890   1.3920   1.3929   1.3939   1.3952
     1.3969   1.3994   1.4008   1.4052   1.4068   1.4079   1.4119   1.4143
     1.4172   1.4234   1.4272   1.4283   1.4291   1.4305   1.4361   1.4371
     1.4383   1.4433   1.4488   1.4496   1.4507   1.4531   1.4573   1.4594
     1.4598   1.4632   1.4712   1.4807   1.4964   1.4983   1.4990   1.5004
     1.5053   1.5065   1.5094   1.5104   1.5160   1.5226   1.5280   1.5301
     1.5308   1.5371   1.5388   1.5401   1.5420   1.5493   1.5526   1.5552
     1.5623   1.5689   1.5804   1.5824   1.5831   1.5840   1.5865   1.5891
     1.5996   1.6045   1.6054   1.6073   1.6083   1.6114   1.6198   1.6231
     1.6447   1.6529   1.6648   1.6725   1.6820   1.6918   1.6993   1.7002
     1.7032   1.7217   2.0773   2.0864   2.1065   2.1262   2.2701   2.2905
     2.3274   2.3350   2.3833   2.3839   2.3870   2.3887   2.6013   2.6234
     2.6514   2.8123   2.9157   2.9241   2.9254   2.9605   3.2743   3.2795
     3.2864   3.2916   3.5359   3.5615   3.7426   3.7632   3.7856   3.8251
     3.9701   3.9845   3.9959   4.0149   4.0863   4.1209   4.1587   4.1671
     4.1742   4.1933   4.2380   4.6219   4.6504   4.6811   4.7534   4.7764
     4.8472   4.8849   4.9199   4.9255   4.9342   4.9601   5.0899   5.0964
     5.1091   5.1161   5.1237   5.1291   5.1370   5.1459   5.1573   5.1931
     5.2711   5.3765   5.4805   5.4878   5.5261   5.5408   5.5617   5.5664
     5.6278   5.6388   5.9367   5.9696   6.0093   6.0173   6.0496   6.0572
     6.0620   6.0820   6.0935   6.1369   6.2415   6.2798   6.3321   6.4275
     6.4977   6.6754   6.6795   6.7711   7.0473   7.0677   7.1042   7.1288
     7.1420   7.2420   7.4983   7.5533   7.5875   7.6352   7.6492   7.6592
     7.6652   7.7142   7.8247   7.8449   7.8721   7.9126   7.9431   7.9462
     7.9651   8.0049   8.0306   8.0545   8.0788   8.0888   8.1185   8.1375
     8.1904   8.4750   8.6437   8.6596   8.6872   8.7253   8.8386   8.8561
     8.8640   8.8691   8.9995   9.0046   9.0209   9.0245   9.0354   9.0939
     9.1220   9.2939   9.3409   9.3674   9.4189   9.4431   9.4651   9.4929
     9.5098   9.5206   9.5208   9.5244   9.5364   9.5445   9.5964   9.6042
     9.6301   9.7004   9.9206   9.9520

          k =-0.5000-0.2165 0.0000 (256328 PWs)   bands (ev):

   -16.8381 -15.5795 -15.3880 -15.3585 -14.9637 -14.8162 -14.7370 -14.7023
   -13.6854 -13.4634 -13.3318 -13.2950 -12.3121 -12.0869 -11.6242 -11.5599
   -11.5488 -11.4201 -11.3466 -11.2713 -11.1373 -11.1329 -11.0105 -10.9918
   -10.9271  -9.6753  -9.6628  -9.3870  -9.3435  -8.9217  -8.5763  -8.4775
    -8.4207  -7.9564  -7.9202  -7.7033  -7.6877  -6.2670  -5.9732  -5.8632
    -5.6712  -5.5506  -5.3219  -5.1225  -5.0658  -5.0521  -5.0495  -5.0445
    -4.9725  -4.9604  -4.9216  -4.8124  -4.5641  -4.5491  -4.2570  -4.1025
    -4.0968  -4.0760  -4.0716  -4.0603  -4.0190  -4.0127  -3.9937  -3.9703
    -3.8881  -3.8700  -3.8213  -3.7682  -3.7256  -3.6125  -3.5665  -3.4837
    -3.4825  -3.4054  -3.3974  -3.3883  -3.3299  -3.3200  -3.3049  -3.1681
    -3.1343  -3.1175  -3.0841  -3.0630  -2.7574  -2.6935  -2.6699  -2.5561
    -2.4770  -2.4690  -2.4637  -2.4628  -2.4615  -2.4494  -2.4166  -2.3751
    -2.3047  -2.2717  -2.1525  -2.0959  -1.9632  -1.9613  -1.9607  -1.9591
    -1.9520  -1.9428  -1.9317  -1.8511  -1.8331  -1.7832  -1.7399  -1.7011
    -1.6908  -1.6906  -1.6846  -1.6831  -1.5107  -1.4850  -1.4823  -1.4733
    -1.4346  -1.4059  -1.3947  -1.3892  -1.3867  -1.3847  -1.3808  -1.3662
    -1.3314  -1.3299  -1.3219  -1.3170  -1.3111  -1.2981  -1.2902  -1.2779
    -1.2720  -1.2687  -1.2649  -1.2627  -1.2607  -1.2495  -1.2472  -1.2460
    -1.2424  -1.2025  -1.2003  -1.1933  -1.1860  -1.1766  -1.1680  -1.1586
    -1.1127  -1.1021  -1.0957  -1.0868  -1.0813  -1.0798  -1.0777  -1.0734
    -1.0588  -1.0529  -1.0503  -1.0409  -1.0384  -1.0335  -1.0326  -1.0216
    -1.0177  -1.0116  -1.0111  -1.0053  -0.9966  -0.9913  -0.9851  -0.9692
    -0.9678  -0.9642  -0.9581  -0.9550  -0.9526  -0.9330  -0.9304  -0.9238
    -0.9187  -0.9166  -0.9155  -0.9117  -0.9083  -0.8225  -0.7815  -0.7791
    -0.7708  -0.7631  -0.7610  -0.7526  -0.7520  -0.7502  -0.7491  -0.7478
    -0.6838  -0.6768  -0.6713  -0.6696  -0.6651  -0.6632  -0.6488  -0.6473
    -0.6450  -0.6437  -0.6399  -0.6382  -0.6012  -0.5948  -0.5931  -0.5904
    -0.5889  -0.5809  -0.5731  -0.5666  -0.5627  -0.5583  -0.5180  -0.5156
    -0.4771  -0.4643  -0.4552  -0.4479  -0.4250  -0.4216  -0.4211  -0.4186
    -0.3963  -0.3952  -0.3873  -0.3857  -0.3461  -0.3450  -0.3409  -0.3392
    -0.3260  -0.3247  -0.3132  -0.3095  -0.2963  -0.2889  -0.2872  -0.2825
    -0.2803  -0.2684  -0.2668  -0.2598  -0.2117  -0.2101  -0.1991  -0.1926
    -0.1901  -0.1874  -0.1672  -0.1628  -0.1487  -0.1482  -0.1424  -0.1411
    -0.1380  -0.1367  -0.1265  -0.1243  -0.0967  -0.0796  -0.0761  -0.0730
    -0.0667  -0.0659  -0.0600  -0.0593  -0.0554  -0.0438  -0.0418  -0.0400
    -0.0386  -0.0215  -0.0207  -0.0197  -0.0163  -0.0081  -0.0058   0.0000
     0.0061   0.0143   0.0162   0.0233   0.0254   0.0367   0.0515   0.0730
     0.0797   0.0805   0.0841   0.1159   0.1282   0.1378   0.1477   0.1534
     0.1536   0.1540   0.1580   0.1664   0.1722   0.1778   0.1847   0.1876
     0.1903   0.1938   0.1968   0.2004   0.2022   0.2073   0.2096   0.2106
     0.2148   0.2159   0.2198   0.2213   0.2234   0.2244   0.2262   0.2284
     0.2341   0.2481   0.2510   0.2593   0.2644   0.2697   0.2709   0.2733
     0.2784   0.2898   0.2932   0.2962   0.3053   0.3089   0.3238   0.3324
     0.3345   0.3454   0.3514   0.3535   0.3592   0.3748   0.3912   0.4004
     0.4116   0.4156   0.4166   0.4399   0.4500   0.4573   0.4621   0.4674
     0.4688   0.4789   0.4955   0.4959   0.4976   0.5020   0.5065   0.5111
     0.5170   0.5207   0.5285   0.5352   0.5459   0.5539   0.5578   0.5623
     0.5674   0.5695   0.5709   0.5725   0.5736   0.5745   0.5775   0.5810
     0.5844   0.5965   0.5996   0.6006   0.6046   0.6068   0.6109   0.6168
     0.6327   0.6360   0.6424   0.6528   0.6553   0.6608   0.6622   0.6676
     0.6694   0.6735   0.6787   0.6836   0.6873   0.6910   0.6950   0.7091
     0.7107   0.7142   0.7168   0.7190   0.7206   0.7222   0.7250   0.7281
     0.7301   0.7334   0.7377   0.7466   0.7547   0.7689   0.7711   0.7735
     0.7783   0.7801   0.7850   0.7863   0.7975   0.7980   0.8019   0.8044
     0.8159   0.8245   0.8266   0.8277   0.8326   0.8342   0.8394   0.8416
     0.8429   0.8457   0.8502   0.8507   0.8601   0.8734   0.8754   0.8784
     0.8814   0.9049   0.9097   0.9147   0.9179   0.9217   0.9314   0.9380
     0.9495   0.9509   0.9552   0.9669   0.9676   0.9693   0.9724   0.9738
     0.9756   0.9954   1.0062   1.0204   1.0234   1.0263   1.0297   1.0374
     1.0451   1.0497   1.0641   1.0723   1.0787   1.0811   1.0918   1.0940
     1.0971   1.1008   1.1081   1.1123   1.1208   1.1220   1.1291   1.1300
     1.1349   1.1370   1.1376   1.1391   1.1398   1.1421   1.1431   1.1465
     1.1485   1.1509   1.1527   1.1551   1.1611   1.1628   1.1653   1.1721
     1.1762   1.1766   1.1798   1.1864   1.1871   1.1905   1.1938   1.2018
     1.2030   1.2080   1.2199   1.2214   1.2246   1.2282   1.2333   1.2362
     1.2372   1.2378   1.2418   1.2432   1.2804   1.2906   1.2913   1.2933
     1.2956   1.2965   1.2992   1.3025   1.3044   1.3067   1.3094   1.3135
     1.3180   1.3211   1.3217   1.3248   1.3255   1.3283   1.3310   1.3622
     1.3726   1.3727   1.3737   1.3759   1.3764   1.3774   1.3781   1.3809
     1.3815   1.3844   1.3886   1.3905   1.4246   1.4270   1.4302   1.4320
     1.4421   1.4439   1.4471   1.4478   1.4499   1.4528   1.4543   1.4547
     1.4560   1.4575   1.4597   1.4604   1.4615   1.4627   1.4662   1.4679
     1.4699   1.4764   1.4783   1.4852   1.4866   1.4920   1.4929   1.4940
     1.4948   1.4967   1.5001   1.5053   1.5091   1.5101   1.5181   1.5306
     1.5352   1.5360   1.5376   1.5391   1.5404   1.5562   1.5578   1.5592
     1.5694   1.5729   1.5757   1.5945   1.5955   1.5986   1.6000   1.6007
     1.6255   1.6277   1.6305   1.6321   1.6613   1.6633   1.6687   1.6731
     1.6739   1.6798   1.6799   1.6891   1.6972   1.7023   1.7074   1.7137
     1.7150   1.7182   1.7201   1.7805   1.9237   1.9266   1.9313   1.9434
     2.3199   2.3251   2.3946   2.4978   2.6418   2.6472   2.6505   2.6705
     2.8415   2.8452   2.8702   2.8749   3.0783   3.1078   3.1324   3.2925
     3.5487   3.5518   3.5519   3.5522   3.6999   3.7037   3.7259   3.7744
     4.0251   4.0282   4.0300   4.0354   4.2008   4.2059   4.2396   4.2707
     4.3022   4.3223   4.3252   4.3272   4.3883   4.5654   4.5788   4.6214
     4.6709   4.7615   4.7684   4.7818   4.7985   4.9737   5.1218   5.1335
     5.1415   5.1919   5.1996   5.2157   5.2233   5.2372   5.2548   5.2665
     5.2841   5.3117   5.3549   5.3767   5.3973   5.4796   5.5102   5.5484
     5.6428   5.6511   5.7610   5.7822   5.8014   5.8159   5.8231   5.8327
     5.8390   5.9916   5.9973   6.0324   6.7150   6.7356   6.9890   7.0351
     7.0575   7.0700   7.0832   7.0990   7.1076   7.1297   7.1528   7.1653
     7.2032   7.2048   7.2608   7.2950   7.3684   7.4031   7.4257   7.4726
     7.4923   7.5176   7.5504   7.7353   7.7405   7.8969   7.9058   7.9532
     8.0587   8.1200   8.1280   8.1759   8.1984   8.2386   8.2419   8.3160
     8.3665   8.3789   8.4215   8.5112   8.8808   8.8985   8.9097   8.9118
     8.9429   8.9652   8.9826   8.9835   9.0160   9.0274   9.0718   9.0850
     9.1349   9.1370   9.1600   9.1795   9.2651   9.2853   9.3103   9.3182
     9.3887   9.4123   9.4421   9.4480   9.4571   9.4912   9.5127   9.5673
     9.6704   9.7936   9.9598   9.9704

     the Fermi energy is     3.4145 ev

!    total energy              =  -12723.07322091 Ry
     Harris-Foulkes estimate   =  -12723.07322087 Ry
     estimated scf accuracy    <          6.3E-09 Ry

     The total energy is the sum of the following terms:

     one-electron contribution =  -99652.49064830 Ry
     hartree contribution      =   51196.29832624 Ry
     xc contribution           =   -4452.97965211 Ry
     ewald contribution        =   40192.27829488 Ry
     Dispersion Correction     =      -2.81045542 Ry
     smearing contrib. (-TS)   =      -3.36908619 Ry

     convergence has been achieved in  42 iterations

     Writing output data file gc.save
 
     init_run     :     97.54s CPU    104.86s WALL (       1 calls)
     electrons    :  12279.25s CPU  13115.98s WALL (       1 calls)

     Called by init_run:
     wfcinit      :     95.19s CPU    102.13s WALL (       1 calls)
     potinit      :      0.40s CPU      0.42s WALL (       1 calls)

     Called by electrons:
     c_bands      :  11340.40s CPU  12083.79s WALL (      42 calls)
     sum_band     :    774.93s CPU    842.59s WALL (      42 calls)
     v_of_rho     :      2.78s CPU      3.38s WALL (      43 calls)
     newd         :      8.25s CPU     13.26s WALL (      43 calls)
     mix_rho      :    152.76s CPU    172.86s WALL (      42 calls)

     Called by c_bands:
     init_us_2    :     35.30s CPU     35.78s WALL (     510 calls)
     cegterg      :  11183.76s CPU  11921.86s WALL (     258 calls)

     Called by sum_band:
     sum_band:bec :      4.51s CPU      5.06s WALL (     252 calls)
     addusdens    :      7.74s CPU     12.94s WALL (      42 calls)

     Called by *egterg:
     h_psi        :   4035.64s CPU   4371.73s WALL (    1852 calls)
     s_psi        :    973.53s CPU    985.29s WALL (    1852 calls)
     g_psi        :     10.66s CPU     10.69s WALL (    1588 calls)
     cdiaghg      :   3265.10s CPU   3390.13s WALL (    1840 calls)

     Called by h_psi:
     add_vuspsi   :    979.09s CPU    991.69s WALL (    1852 calls)

     General routines
     calbec       :   1361.40s CPU   1370.92s WALL (    2104 calls)
     fft          :      3.53s CPU      4.05s WALL (     558 calls)
     ffts         :     88.87s CPU    100.80s WALL (   23459 calls)
     fftw         :   2308.95s CPU   2578.91s WALL ( 1286036 calls)
     davcio       :      0.15s CPU      3.38s WALL (       6 calls)
 
     Parallel routines
     fft_scatter  :   1496.83s CPU   1647.32s WALL ( 1310053 calls)
 
     PWSCF        :     3h26m CPU        3h40m WALL

 
   This run was terminated on:  12:43:50   1May2017            

=------------------------------------------------------------------------------=
   JOB DONE.
=------------------------------------------------------------------------------=
