
     Program PWSCF v.5.4.0 starts on 26Apr2017 at 21:41:40 

     This program is part of the open-source Quantum ESPRESSO suite
     for quantum simulation of materials; please cite
         "P. Giannozzi et al., J. Phys.:Condens. Matter 21 395502 (2009);
          URL http://www.quantum-espresso.org", 
     in publications or presentations arising from this work. More details at
     http://www.quantum-espresso.org/quote

     Parallel version (MPI & OpenMP), running on      56 processor cores
     Number of MPI processes:                56
     Threads/MPI process:                     1
     R & G space division:  proc/nbgrp/npool/nimage =      56
     Waiting for input...
     Reading input from standard input

     Current dimensions of program PWSCF are:
     Max number of different atomic species (ntypx) = 10
     Max number of k-points (npk) =  40000
     Max angular momentum in pseudopotentials (lmaxx) =  3

     -------------------------------------
     Parameters for Dispersion Correction:
     -------------------------------------
       atom      VdW radius       C_6     

        Cu         2.952        374.666
        C          2.744         60.710
        H          1.892          4.857

     Subspace diagonalization in iterative solution of the eigenvalue problem:
     one sub-group per band group will be used
     scalapack distributed-memory algorithm (size of sub-group:  5*  5 procs)

 
     Parallelization info
     --------------------
     sticks:   dense  smooth     PW     G-vecs:    dense   smooth      PW
     Min         204     204     54                36612    36612    4962
     Max         205     205     55                36617    36617    4968
     Sum       11433   11433   3039              2050409  2050409  278033
 


     bravais-lattice index     =            0
     lattice parameter (alat)  =      13.9425  a.u.
     unit-cell volume          =   21209.0878 (a.u.)^3
     number of atoms/cell      =          153
     number of atomic types    =            3
     number of electrons       =      1300.00
     number of Kohn-Sham states=          780
     kinetic-energy cutoff     =      80.0000  Ry
     charge density cutoff     =     320.0000  Ry
     convergence threshold     =      1.0E-08
     mixing beta               =       0.7000
     number of iterations used =            8  local-TF  mixing
     Exchange-correlation      =  SLA  PW   PBE  PBE ( 1  4  3  4 0 0)
     nstep                     =           50


     celldm(1)=  13.942539  celldm(2)=   0.000000  celldm(3)=   0.000000
     celldm(4)=   0.000000  celldm(5)=   0.000000  celldm(6)=   0.000000

     crystal axes: (cart. coord. in units of alat)
               a(1) = (   1.000000   0.000000   0.000000 )  
               a(2) = (   0.000000   2.309401   0.000000 )  
               a(3) = (   0.000000   0.000000   3.388418 )  

     reciprocal axes: (cart. coord. in units 2 pi/alat)
               b(1) = (  1.000000  0.000000  0.000000 )  
               b(2) = (  0.000000  0.433013  0.000000 )  
               b(3) = (  0.000000  0.000000  0.295123 )  


     PseudoPot. # 1 for Cu read from file:
     /home/549/hxw549/Short/pseudopotentials/Cu.pbe-n-van_ak.UPF
     MD5 check sum: 601f7c30f7467666bec936e0661ce3e1
     Pseudo is Ultrasoft + core correction, Zval = 11.0
     Generated by new atomic code, or converted to UPF format
     Using radial grid of  867 points,  6 beta functions with: 
                l(1) =   0
                l(2) =   0
                l(3) =   1
                l(4) =   1
                l(5) =   2
                l(6) =   2
     Q(r) pseudized with  8 coefficients,  rinner =    1.400   1.400   1.400
                                                       1.400   1.400

     PseudoPot. # 2 for C  read from file:
     /home/549/hxw549/Short/pseudopotentials/C.pbe-mt_gipaw.UPF
     MD5 check sum: 5ac2f21f2c440b14befe521540822c15
     Pseudo is Norm-conserving, Zval =  4.0
     Generated by new atomic code, or converted to UPF format
     Using radial grid of 1073 points,  1 beta functions with: 
                l(1) =   0

     PseudoPot. # 3 for H  read from file:
     /home/549/hxw549/Short/pseudopotentials/H.pbe-van_ak.UPF
     MD5 check sum: 077eb6d537518a38cb46c6de387227b7
     Pseudo is Ultrasoft, Zval =  1.0
     Generated by new atomic code, or converted to UPF format
     Using radial grid of  615 points,  1 beta functions with: 
                l(1) =   0
     Q(r) pseudized with  8 coefficients,  rinner =    0.800

     atomic species   valence    mass     pseudopotential
        Cu            11.00    63.54600     Cu( 1.00)
        C              4.00    12.01070     C ( 1.00)
        H              1.00     1.00783     H ( 1.00)

     No symmetry found



   Cartesian axes

     site n.     atom                  positions (alat units)
         1           Cu  tau(   1) = (   0.0007896  -0.0028300   0.9906473  )
         2           Cu  tau(   2) = (   0.2509533   0.2253054   0.9923469  )
         3           Cu  tau(   3) = (   0.5012363  -0.0033549   0.9900084  )
         4           Cu  tau(   4) = (   0.7511707   0.2252771   0.9926008  )
         5           Cu  tau(   5) = (   0.0010631   0.4558170   0.9954309  )
         6           Cu  tau(   6) = (   0.2506700   0.6891724   0.9985295  )
         7           Cu  tau(   7) = (   0.5007325   0.4557861   0.9959814  )
         8           Cu  tau(   8) = (   0.7507239   0.6891341   0.9987742  )
         9           Cu  tau(   9) = (   0.0005040   0.9240543   0.9994872  )
        10           Cu  tau(  10) = (   0.2506649   1.1587593   0.9978080  )
        11           Cu  tau(  11) = (   0.5009991   0.9239741   0.9994401  )
        12           Cu  tau(  12) = (   0.7506841   1.1587840   0.9979131  )
        13           Cu  tau(  13) = (   0.0009769   1.3921660   0.9941721  )
        14           Cu  tau(  14) = (   0.2509686   1.6231387   0.9911653  )
        15           Cu  tau(  15) = (   0.5007877   1.3922699   0.9947556  )
        16           Cu  tau(  16) = (   0.7511284   1.6232492   0.9912178  )
        17           Cu  tau(  17) = (   0.0009025   1.8515130   0.9899007  )
        18           Cu  tau(  18) = (   0.2509686   2.0792637   0.9892849  )
        19           Cu  tau(  19) = (   0.5010994   1.8520734   0.9890257  )
        20           Cu  tau(  20) = (   0.7509216   2.0789515   0.9896905  )
        21           Cu  tau(  21) = (   0.0008460   0.2221391   1.2445361  )
        22           Cu  tau(  22) = (   0.2512084  -0.0053496   1.2433573  )
        23           Cu  tau(  23) = (   0.5008011   0.2210307   1.2429763  )
        24           Cu  tau(  24) = (   0.7510498  -0.0051770   1.2437338  )
        25           Cu  tau(  25) = (   0.0005143   0.6867360   1.2424464  )
        26           Cu  tau(  26) = (   0.2503975   0.4521862   1.2434834  )
        27           Cu  tau(  27) = (   0.5004612   0.6869769   1.2435999  )
        28           Cu  tau(  28) = (   0.7505229   0.4521398   1.2431408  )
        29           Cu  tau(  29) = (   0.0004086   1.1619291   1.2417244  )
        30           Cu  tau(  30) = (   0.2507587   0.9243210   1.2426020  )
        31           Cu  tau(  31) = (   0.5004521   1.1615605   1.2428928  )
        32           Cu  tau(  32) = (   0.7502161   0.9242196   1.2433440  )
        33           Cu  tau(  33) = (   0.0008254   1.6262345   1.2432080  )
        34           Cu  tau(  34) = (   0.2502858   1.3963050   1.2421039  )
        35           Cu  tau(  35) = (   0.5008545   1.6274836   1.2413623  )
        36           Cu  tau(  36) = (   0.7506094   1.3964030   1.2418237  )
        37           Cu  tau(  37) = (   0.0013034   2.0787742   1.2432182  )
        38           Cu  tau(  38) = (   0.2511675   1.8537016   1.2423411  )
        39           Cu  tau(  39) = (   0.5011400   2.0786366   1.2436285  )
        40           Cu  tau(  40) = (   0.7511226   1.8532211   1.2430446  )
        41           Cu  tau(  41) = (   0.0011525  -0.0062071   1.4999486  )
        42           Cu  tau(  42) = (   0.2502289   0.2202315   1.4953573  )
        43           Cu  tau(  43) = (   0.5011166  -0.0060343   1.4993110  )
        44           Cu  tau(  44) = (   0.7510521   0.2211130   1.4958256  )
        45           Cu  tau(  45) = (   0.0004327   0.4524445   1.4913726  )
        46           Cu  tau(  46) = (   0.2501959   0.6865677   1.4865063  )
        47           Cu  tau(  47) = (   0.5006121   0.4498087   1.4893773  )
        48           Cu  tau(  48) = (   0.7515468   0.6863919   1.4865601  )
        49           Cu  tau(  49) = (   0.0006656   0.9246745   1.4848374  )
        50           Cu  tau(  50) = (   0.2497200   1.1626268   1.4856615  )
        51           Cu  tau(  51) = (   0.4997757   0.9244733   1.4854908  )
        52           Cu  tau(  52) = (   0.7517089   1.1628701   1.4854853  )
        53           Cu  tau(  53) = (   0.0002676   1.3965277   1.4905278  )
        54           Cu  tau(  54) = (   0.2501810   1.6283603   1.4942233  )
        55           Cu  tau(  55) = (   0.5005147   1.3998189   1.4876918  )
        56           Cu  tau(  56) = (   0.7511263   1.6271393   1.4953668  )
        57           Cu  tau(  57) = (   0.0010082   1.8540696   1.4994652  )
        58           Cu  tau(  58) = (   0.2518049   2.0783558   1.5014271  )
        59           Cu  tau(  59) = (   0.5013074   1.8536217   1.4992829  )
        60           Cu  tau(  60) = (   0.7510284   2.0785893   1.5006021  )
        61           Cu  tau(  61) = (   0.0001224   0.2248859   1.7492451  )
        62           Cu  tau(  62) = (   0.2508309  -0.0021101   1.7558327  )
        63           Cu  tau(  63) = (   0.5017615   0.2244710   1.7475429  )
        64           Cu  tau(  64) = (   0.7512633  -0.0039189   1.7555975  )
        65           Cu  tau(  65) = (  -0.0003325   0.6881900   1.7312085  )
        66           Cu  tau(  66) = (   0.2498781   0.4520820   1.7366820  )
        67           Cu  tau(  67) = (   0.5014897   0.6822467   1.7246798  )
        68           Cu  tau(  68) = (   0.7520982   0.4535473   1.7397557  )
        69           Cu  tau(  69) = (  -0.0004961   1.1617226   1.7312697  )
        70           Cu  tau(  70) = (   0.2461023   0.9252038   1.7257988  )
        71           Cu  tau(  71) = (   0.5012365   1.1700512   1.7210857  )
        72           Cu  tau(  72) = (   0.7562417   0.9255637   1.7221591  )
        73           Cu  tau(  73) = (  -0.0003005   1.6235893   1.7492561  )
        74           Cu  tau(  74) = (   0.2491521   1.3972020   1.7357034  )
        75           Cu  tau(  75) = (   0.5017474   1.6226997   1.7481474  )
        76           Cu  tau(  76) = (   0.7523168   1.3949531   1.7401520  )
        77           Cu  tau(  77) = (   0.0019441   2.0782844   1.7583135  )
        78           Cu  tau(  78) = (   0.2509702   1.8495044   1.7558470  )
        79           Cu  tau(  79) = (   0.5003311   2.0786524   1.7584732  )
        80           Cu  tau(  80) = (   0.7508973   1.8517757   1.7557995  )
        81           Cu  tau(  81) = (   0.0028238   0.0024941   2.0073933  )
        82           Cu  tau(  82) = (   0.2527365   0.2349128   2.0010068  )
        83           Cu  tau(  83) = (   0.4993869   0.0009890   2.0086336  )
        84           Cu  tau(  84) = (   0.7498297   0.2312471   2.0008776  )
        85           Cu  tau(  85) = (  -0.0013865   0.4604988   1.9935137  )
        86           Cu  tau(  86) = (   0.2449691   0.6878063   1.9644587  )
        87           Cu  tau(  87) = (   0.5024811   0.4624996   1.9866549  )
        88           Cu  tau(  88) = (   0.7558231   0.6911180   1.9737073  )
        89           Cu  tau(  89) = (  -0.0030605   0.9257199   1.9745352  )
        90           Cu  tau(  90) = (   0.2454981   1.1630444   1.9654727  )
        91           Cu  tau(  91) = (   0.5098572   0.9297972   1.9447707  )
        92           Cu  tau(  92) = (   0.7559558   1.1591627   1.9776099  )
        93           Cu  tau(  93) = (  -0.0010470   1.3882081   1.9939508  )
        94           Cu  tau(  94) = (   0.2527146   1.6131481   2.0013127  )
        95           Cu  tau(  95) = (   0.5017521   1.3841423   1.9888187  )
        96           Cu  tau(  96) = (   0.7491487   1.6165813   2.0016384  )
        97           Cu  tau(  97) = (   0.0024016   1.8452030   2.0081864  )
        98           Cu  tau(  98) = (   0.2504831   2.0784172   2.0119094  )
        99           Cu  tau(  99) = (   0.4993006   1.8470747   2.0084786  )
       100           Cu  tau( 100) = (   0.7510900   2.0787778   2.0115020  )
       101           C   tau( 101) = (  -0.0004203   0.0997729   2.4843619  )
       102           C   tau( 102) = (  -0.0004255   0.2921262   2.5079351  )
       103           C   tau( 103) = (   0.1660783   0.0025598   2.4755516  )
       104           C   tau( 104) = (   0.1664399   0.3872659   2.5291122  )
       105           C   tau( 105) = (   0.3328180   0.0993347   2.4856792  )
       106           C   tau( 106) = (   0.3328577   0.2910553   2.5148975  )
       107           C   tau( 107) = (   0.4994261   0.0024634   2.4742148  )
       108           C   tau( 108) = (   0.4993322   0.3871399   2.5322441  )
       109           C   tau( 109) = (   0.6660153   0.0996694   2.4833289  )
       110           C   tau( 110) = (   0.6657908   0.2917390   2.5101525  )
       111           C   tau( 111) = (   0.8328125   0.0027740   2.4755679  )
       112           C   tau( 112) = (   0.8326375   0.3876863   2.5227839  )
       113           C   tau( 113) = (  -0.0002850   0.6740356   2.5691798  )
       114           C   tau( 114) = (  -0.0000391   0.8664674   2.5851173  )
       115           C   tau( 115) = (   0.1665814   0.5774484   2.5663862  )
       116           C   tau( 116) = (   0.1664700   0.9631911   2.5993522  )
       117           C   tau( 117) = (   0.3326435   0.6724789   2.5949080  )
       118           C   tau( 118) = (   0.3323359   0.8657264   2.6181746  )
       119           C   tau( 119) = (   0.4994043   0.5770553   2.5727575  )
       120           C   tau( 120) = (   0.5004043   0.9641493   2.6166888  )
       121           C   tau( 121) = (   0.6664237   0.6737522   2.5795625  )
       122           C   tau( 122) = (   0.6668956   0.8664423   2.6004328  )
       123           C   tau( 123) = (   0.8327004   0.5787456   2.5538542  )
       124           C   tau( 124) = (   0.8331563   0.9632851   2.5851677  )
       125           C   tau( 125) = (   0.0002298   1.2507599   2.5522135  )
       126           C   tau( 126) = (   0.0001280   1.4419176   2.5211234  )
       127           C   tau( 127) = (   0.1665938   1.1558555   2.5772207  )
       128           C   tau( 128) = (   0.1669404   1.5379319   2.5086739  )
       129           C   tau( 129) = (   0.3334232   1.2524933   2.5692454  )
       130           C   tau( 130) = (   0.3334311   1.4424197   2.5297115  )
       131           C   tau( 131) = (   0.5001218   1.1569835   2.5910285  )
       132           C   tau( 132) = (   0.4998340   1.5384772   2.5127605  )
       133           C   tau( 133) = (   0.6663030   1.2520457   2.5634208  )
       134           C   tau( 134) = (   0.6662541   1.4421709   2.5265962  )
       135           C   tau( 135) = (   0.8332251   1.1556434   2.5680589  )
       136           C   tau( 136) = (   0.8331442   1.5374670   2.5066526  )
       137           C   tau( 137) = (  -0.0000652   1.8269375   2.4753220  )
       138           C   tau( 138) = (  -0.0002903   2.0207051   2.4662267  )
       139           C   tau( 139) = (   0.1668481   1.7300511   2.4826589  )
       140           C   tau( 140) = (   0.1662813   2.1182656   2.4648985  )
       141           C   tau( 141) = (   0.3333431   1.8271670   2.4734810  )
       142           C   tau( 142) = (   0.3330350   2.0208619   2.4643304  )
       143           C   tau( 143) = (   0.4998669   1.7303077   2.4844531  )
       144           C   tau( 144) = (   0.4997434   2.1182512   2.4649445  )
       145           C   tau( 145) = (   0.6666646   1.8271189   2.4752805  )
       146           C   tau( 146) = (   0.6664921   2.0208059   2.4651192  )
       147           C   tau( 147) = (   0.8330892   1.7299416   2.4843801  )
       148           C   tau( 148) = (   0.8330427   2.1183623   2.4661373  )
       149           H   tau( 149) = (   0.4389396   0.9056602   2.3708546  )
       150           C   tau( 150) = (   0.3959122   0.8929663   2.2314745  )
       151           H   tau( 151) = (   0.5357344   0.8865317   2.1683498  )
       152           H   tau( 152) = (   0.3173679   0.7655947   2.2227657  )
       153           H   tau( 153) = (   0.3142583   1.0152240   2.2061979  )

     number of k points=     6  gaussian smearing, width (Ry)=  0.1000
                       cart. coord. in units 2pi/alat
        k(    1) = (   0.0000000   0.0000000   0.0000000), wk =   0.2500000
        k(    2) = (   0.0000000  -0.2165064   0.0000000), wk =   0.2500000
        k(    3) = (   0.2500000   0.0000000   0.0000000), wk =   0.5000000
        k(    4) = (   0.2500000  -0.2165064   0.0000000), wk =   0.5000000
        k(    5) = (  -0.5000000   0.0000000   0.0000000), wk =   0.2500000
        k(    6) = (  -0.5000000  -0.2165064   0.0000000), wk =   0.2500000

     Dense  grid:  2050409 G-vectors     FFT dimensions: (  80, 192, 270)

     Largest allocated arrays     est. size (Mb)     dimensions
        Kohn-Sham Wavefunctions        54.80 Mb     (    4604,  780)
        NL pseudopotentials           130.18 Mb     (    4604, 1853)
        Each V/rho on FFT grid          1.17 Mb     (   76800)
        Each G-vector array             0.28 Mb     (   36616)
        G-vector shells                 0.14 Mb     (   17932)
     Largest temporary arrays     est. size (Mb)     dimensions
        Auxiliary wavefunctions       219.18 Mb     (    4604, 3120)
        Each subspace H/S matrix        5.94 Mb     (     624,  624)
        Each <psi_i|beta_j> matrix     22.05 Mb     (    1853,  780)
        Arrays for rho mixing           9.38 Mb     (   76800,    8)

     Initial potential from superposition of free atoms
     Check: negative starting charge=   -0.001564

     starting charge 1274.31747, renormalised to 1300.00000

     negative rho (up, down):  1.595E-03 0.000E+00
     Starting wfc are 1296 randomized atomic wfcs

     total cpu time spent up to now is      106.9 secs

     Self-consistent Calculation

     iteration #  1     ecut=    80.00 Ry     beta=0.70
     Davidson diagonalization with overlap
     c_bands:  5 eigenvalues not converged
     c_bands:  4 eigenvalues not converged
     c_bands:  5 eigenvalues not converged
     c_bands:  3 eigenvalues not converged
     c_bands:  5 eigenvalues not converged
     ethr =  1.00E-04,  avg # of iterations = 42.7

     negative rho (up, down):  2.593E+01 0.000E+00

     total cpu time spent up to now is     2357.9 secs

     total energy              =   -9860.80148710 Ry
     Harris-Foulkes estimate   =  -18113.00313674 Ry
     estimated scf accuracy    <  212190.75817223 Ry

     iteration #  2     ecut=    80.00 Ry     beta=0.70
     Davidson diagonalization with overlap
     ethr =  1.00E-02,  avg # of iterations = 14.5

     negative rho (up, down):  3.279E+01 0.000E+00

     total cpu time spent up to now is     3376.5 secs

     total energy              =  -12051.77173341 Ry
     Harris-Foulkes estimate   =  -13736.16570329 Ry
     estimated scf accuracy    <   27958.06678308 Ry

     iteration #  3     ecut=    80.00 Ry     beta=0.70
     Davidson diagonalization with overlap
     ethr =  1.00E-02,  avg # of iterations =  7.8

     negative rho (up, down):  3.467E+01 0.000E+00

     total cpu time spent up to now is     3915.8 secs

     total energy              =  -12359.33800278 Ry
     Harris-Foulkes estimate   =  -13477.61150130 Ry
     estimated scf accuracy    <    8350.17534596 Ry

     iteration #  4     ecut=    80.00 Ry     beta=0.70
     Davidson diagonalization with overlap
     ethr =  1.00E-02,  avg # of iterations =  5.5

     negative rho (up, down):  2.465E+01 0.000E+00

     total cpu time spent up to now is     4407.0 secs

     total energy              =  -12848.20019529 Ry
     Harris-Foulkes estimate   =  -13118.24260599 Ry
     estimated scf accuracy    <    1394.74690055 Ry

     iteration #  5     ecut=    80.00 Ry     beta=0.70
     Davidson diagonalization with overlap
     ethr =  1.00E-02,  avg # of iterations =  3.3

     negative rho (up, down):  1.798E+01 0.000E+00

     total cpu time spent up to now is     4698.3 secs

     total energy              =  -12839.25886583 Ry
     Harris-Foulkes estimate   =  -12947.76901316 Ry
     estimated scf accuracy    <    1057.70167794 Ry

     iteration #  6     ecut=    80.00 Ry     beta=0.70
     Davidson diagonalization with overlap
     ethr =  1.00E-02,  avg # of iterations =  2.0

     negative rho (up, down):  1.140E+01 0.000E+00

     total cpu time spent up to now is     4883.6 secs

     total energy              =  -12823.04223196 Ry
     Harris-Foulkes estimate   =  -12885.76708067 Ry
     estimated scf accuracy    <     507.44370854 Ry

     iteration #  7     ecut=    80.00 Ry     beta=0.70
     Davidson diagonalization with overlap
     ethr =  1.00E-02,  avg # of iterations =  2.2

     negative rho (up, down):  7.968E+00 0.000E+00

     total cpu time spent up to now is     5071.1 secs

     total energy              =  -12802.24142098 Ry
     Harris-Foulkes estimate   =  -12837.05455732 Ry
     estimated scf accuracy    <     405.91225483 Ry

     iteration #  8     ecut=    80.00 Ry     beta=0.70
     Davidson diagonalization with overlap
     ethr =  1.00E-02,  avg # of iterations =  2.0

     negative rho (up, down):  6.920E+00 0.000E+00

     total cpu time spent up to now is     5250.7 secs

     total energy              =  -12798.96705852 Ry
     Harris-Foulkes estimate   =  -12813.68944129 Ry
     estimated scf accuracy    <     210.71665315 Ry

     iteration #  9     ecut=    80.00 Ry     beta=0.70
     Davidson diagonalization with overlap
     ethr =  1.00E-02,  avg # of iterations =  1.0

     negative rho (up, down):  4.011E+00 0.000E+00

     total cpu time spent up to now is     5418.1 secs

     total energy              =  -12773.85855481 Ry
     Harris-Foulkes estimate   =  -12802.05264874 Ry
     estimated scf accuracy    <     203.96867211 Ry

     iteration # 10     ecut=    80.00 Ry     beta=0.70
     Davidson diagonalization with overlap
     ethr =  1.00E-02,  avg # of iterations =  1.0

     negative rho (up, down):  1.526E+00 0.000E+00

     total cpu time spent up to now is     5585.9 secs

     total energy              =  -12735.04635787 Ry
     Harris-Foulkes estimate   =  -12777.05712977 Ry
     estimated scf accuracy    <     125.82703365 Ry

     iteration # 11     ecut=    80.00 Ry     beta=0.70
     Davidson diagonalization with overlap
     ethr =  9.68E-03,  avg # of iterations =  2.0

     negative rho (up, down):  2.111E+00 0.000E+00

     total cpu time spent up to now is     5767.0 secs

     total energy              =  -12729.78514916 Ry
     Harris-Foulkes estimate   =  -12746.39031755 Ry
     estimated scf accuracy    <     299.77913304 Ry

     iteration # 12     ecut=    80.00 Ry     beta=0.70
     Davidson diagonalization with overlap
     ethr =  9.68E-03,  avg # of iterations =  1.2

     negative rho (up, down):  1.445E+00 0.000E+00

     total cpu time spent up to now is     5938.0 secs

     total energy              =  -12728.50192190 Ry
     Harris-Foulkes estimate   =  -12738.57963074 Ry
     estimated scf accuracy    <     117.44412459 Ry

     iteration # 13     ecut=    80.00 Ry     beta=0.70
     Davidson diagonalization with overlap
     ethr =  9.03E-03,  avg # of iterations =  2.0

     negative rho (up, down):  4.297E+00 0.000E+00

     total cpu time spent up to now is     6118.4 secs

     total energy              =  -12724.67670769 Ry
     Harris-Foulkes estimate   =  -12735.46769463 Ry
     estimated scf accuracy    <      43.82378305 Ry

     iteration # 14     ecut=    80.00 Ry     beta=0.70
     Davidson diagonalization with overlap
     ethr =  3.37E-03,  avg # of iterations =  4.5

     negative rho (up, down):  6.050E+00 0.000E+00

     total cpu time spent up to now is     6328.3 secs

     total energy              =  -12722.93035637 Ry
     Harris-Foulkes estimate   =  -12726.63550407 Ry
     estimated scf accuracy    <      26.43376437 Ry

     iteration # 15     ecut=    80.00 Ry     beta=0.70
     Davidson diagonalization with overlap
     ethr =  2.03E-03,  avg # of iterations =  4.3

     negative rho (up, down):  6.100E+00 0.000E+00

     total cpu time spent up to now is     6539.8 secs

     total energy              =  -12721.82767250 Ry
     Harris-Foulkes estimate   =  -12724.06384397 Ry
     estimated scf accuracy    <      17.19230506 Ry

     iteration # 16     ecut=    80.00 Ry     beta=0.70
     Davidson diagonalization with overlap
     ethr =  1.32E-03,  avg # of iterations =  3.7

     negative rho (up, down):  4.155E+00 0.000E+00

     total cpu time spent up to now is     6740.3 secs

     total energy              =  -12720.37009319 Ry
     Harris-Foulkes estimate   =  -12722.20056527 Ry
     estimated scf accuracy    <      11.41261997 Ry

     iteration # 17     ecut=    80.00 Ry     beta=0.70
     Davidson diagonalization with overlap
     ethr =  8.78E-04,  avg # of iterations =  2.7

     negative rho (up, down):  3.171E+00 0.000E+00

     total cpu time spent up to now is     6929.0 secs

     total energy              =  -12719.55250639 Ry
     Harris-Foulkes estimate   =  -12720.70448977 Ry
     estimated scf accuracy    <       9.61420185 Ry

     iteration # 18     ecut=    80.00 Ry     beta=0.70
     Davidson diagonalization with overlap
     ethr =  7.40E-04,  avg # of iterations =  6.8

     negative rho (up, down):  1.537E+00 0.000E+00

     total cpu time spent up to now is     7166.5 secs

     total energy              =  -12718.19985435 Ry
     Harris-Foulkes estimate   =  -12719.73133858 Ry
     estimated scf accuracy    <       8.79190166 Ry

     iteration # 19     ecut=    80.00 Ry     beta=0.70
     Davidson diagonalization with overlap
     ethr =  6.76E-04,  avg # of iterations =  1.0

     negative rho (up, down):  1.172E+00 0.000E+00

     total cpu time spent up to now is     7333.7 secs

     total energy              =  -12717.72233608 Ry
     Harris-Foulkes estimate   =  -12718.34728371 Ry
     estimated scf accuracy    <      11.70938164 Ry

     iteration # 20     ecut=    80.00 Ry     beta=0.70
     Davidson diagonalization with overlap
     ethr =  6.76E-04,  avg # of iterations =  1.0

     negative rho (up, down):  2.653E+00 0.000E+00

     total cpu time spent up to now is     7501.8 secs

     total energy              =  -12718.05811226 Ry
     Harris-Foulkes estimate   =  -12717.81338474 Ry
     estimated scf accuracy    <      11.83170084 Ry

     iteration # 21     ecut=    80.00 Ry     beta=0.70
     Davidson diagonalization with overlap
     ethr =  6.76E-04,  avg # of iterations =  3.5

     negative rho (up, down):  5.690E-01 0.000E+00

     total cpu time spent up to now is     7701.1 secs

     total energy              =  -12715.96217587 Ry
     Harris-Foulkes estimate   =  -12718.58464078 Ry
     estimated scf accuracy    <       6.09649211 Ry

     iteration # 22     ecut=    80.00 Ry     beta=0.70
     Davidson diagonalization with overlap
     ethr =  4.69E-04,  avg # of iterations =  5.3

     negative rho (up, down):  5.520E-01 0.000E+00

     total cpu time spent up to now is     7923.2 secs

     total energy              =  -12715.10989657 Ry
     Harris-Foulkes estimate   =  -12716.18698460 Ry
     estimated scf accuracy    <       9.26279709 Ry

     iteration # 23     ecut=    80.00 Ry     beta=0.70
     Davidson diagonalization with overlap
     ethr =  4.69E-04,  avg # of iterations =  3.3

     negative rho (up, down):  7.336E-01 0.000E+00

     total cpu time spent up to now is     8118.4 secs

     total energy              =  -12715.02145920 Ry
     Harris-Foulkes estimate   =  -12715.37436362 Ry
     estimated scf accuracy    <       3.71423422 Ry

     iteration # 24     ecut=    80.00 Ry     beta=0.70
     Davidson diagonalization with overlap
     ethr =  2.86E-04,  avg # of iterations =  6.7

     negative rho (up, down):  7.001E-01 0.000E+00

     total cpu time spent up to now is     8361.0 secs

     total energy              =  -12714.88567139 Ry
     Harris-Foulkes estimate   =  -12715.12458528 Ry
     estimated scf accuracy    <       1.66766493 Ry

     iteration # 25     ecut=    80.00 Ry     beta=0.70
     Davidson diagonalization with overlap
     ethr =  1.28E-04,  avg # of iterations =  7.7

     negative rho (up, down):  4.795E-01 0.000E+00

     total cpu time spent up to now is     8615.6 secs

     total energy              =  -12714.83526153 Ry
     Harris-Foulkes estimate   =  -12714.95627454 Ry
     estimated scf accuracy    <       0.80977739 Ry

     iteration # 26     ecut=    80.00 Ry     beta=0.70
     Davidson diagonalization with overlap
     ethr =  6.23E-05,  avg # of iterations =  6.5

     negative rho (up, down):  2.122E-01 0.000E+00

     total cpu time spent up to now is     8851.1 secs

     total energy              =  -12714.76804036 Ry
     Harris-Foulkes estimate   =  -12714.86575130 Ry
     estimated scf accuracy    <       0.42837364 Ry

     iteration # 27     ecut=    80.00 Ry     beta=0.70
     Davidson diagonalization with overlap
     ethr =  3.30E-05,  avg # of iterations =  9.2

     negative rho (up, down):  2.154E-01 0.000E+00

     total cpu time spent up to now is     9149.2 secs

     total energy              =  -12714.79139923 Ry
     Harris-Foulkes estimate   =  -12714.81667038 Ry
     estimated scf accuracy    <       0.30055362 Ry

     iteration # 28     ecut=    80.00 Ry     beta=0.70
     Davidson diagonalization with overlap
     ethr =  2.31E-05,  avg # of iterations =  5.8

     negative rho (up, down):  1.367E-01 0.000E+00

     total cpu time spent up to now is     9376.5 secs

     total energy              =  -12714.80024591 Ry
     Harris-Foulkes estimate   =  -12714.80461111 Ry
     estimated scf accuracy    <       0.04619670 Ry

     iteration # 29     ecut=    80.00 Ry     beta=0.70
     Davidson diagonalization with overlap
     c_bands:  2 eigenvalues not converged
     ethr =  3.55E-06,  avg # of iterations =  9.8

     negative rho (up, down):  7.237E-02 0.000E+00

     total cpu time spent up to now is     9664.1 secs

     total energy              =  -12714.80229041 Ry
     Harris-Foulkes estimate   =  -12714.80350383 Ry
     estimated scf accuracy    <       0.01805664 Ry

     iteration # 30     ecut=    80.00 Ry     beta=0.70
     Davidson diagonalization with overlap
     ethr =  1.39E-06,  avg # of iterations = 13.0

     negative rho (up, down):  1.359E-02 0.000E+00

     total cpu time spent up to now is    10009.3 secs

     total energy              =  -12714.80120123 Ry
     Harris-Foulkes estimate   =  -12714.80311970 Ry
     estimated scf accuracy    <       0.00809956 Ry

     iteration # 31     ecut=    80.00 Ry     beta=0.70
     Davidson diagonalization with overlap
     c_bands:  1 eigenvalues not converged
     ethr =  6.23E-07,  avg # of iterations = 14.0

     negative rho (up, down):  9.537E-03 0.000E+00

     total cpu time spent up to now is    10363.4 secs

     total energy              =  -12714.80109418 Ry
     Harris-Foulkes estimate   =  -12714.80176706 Ry
     estimated scf accuracy    <       0.00364457 Ry

     iteration # 32     ecut=    80.00 Ry     beta=0.70
     Davidson diagonalization with overlap
     ethr =  2.80E-07,  avg # of iterations =  8.8

     negative rho (up, down):  2.359E-03 0.000E+00

     total cpu time spent up to now is    10640.8 secs

     total energy              =  -12714.80135703 Ry
     Harris-Foulkes estimate   =  -12714.80139086 Ry
     estimated scf accuracy    <       0.00125520 Ry

     iteration # 33     ecut=    80.00 Ry     beta=0.70
     Davidson diagonalization with overlap
     ethr =  9.66E-08,  avg # of iterations =  8.0

     negative rho (up, down):  1.598E-03 0.000E+00

     total cpu time spent up to now is    10909.4 secs

     total energy              =  -12714.80144299 Ry
     Harris-Foulkes estimate   =  -12714.80145915 Ry
     estimated scf accuracy    <       0.00071892 Ry

     iteration # 34     ecut=    80.00 Ry     beta=0.70
     Davidson diagonalization with overlap
     ethr =  5.53E-08,  avg # of iterations =  8.8

     negative rho (up, down):  1.833E-03 0.000E+00

     total cpu time spent up to now is    11191.6 secs

     total energy              =  -12714.80154415 Ry
     Harris-Foulkes estimate   =  -12714.80152765 Ry
     estimated scf accuracy    <       0.00032290 Ry

     iteration # 35     ecut=    80.00 Ry     beta=0.70
     Davidson diagonalization with overlap
     ethr =  2.48E-08,  avg # of iterations =  4.5

     negative rho (up, down):  2.045E-03 0.000E+00

     total cpu time spent up to now is    11416.8 secs

     total energy              =  -12714.80162674 Ry
     Harris-Foulkes estimate   =  -12714.80157407 Ry
     estimated scf accuracy    <       0.00004035 Ry

     iteration # 36     ecut=    80.00 Ry     beta=0.70
     Davidson diagonalization with overlap
     c_bands:  1 eigenvalues not converged
     ethr =  3.10E-09,  avg # of iterations = 10.0

     negative rho (up, down):  1.508E-03 0.000E+00

     total cpu time spent up to now is    11728.1 secs

     total energy              =  -12714.80164065 Ry
     Harris-Foulkes estimate   =  -12714.80163176 Ry
     estimated scf accuracy    <       0.00001709 Ry

     iteration # 37     ecut=    80.00 Ry     beta=0.70
     Davidson diagonalization with overlap
     c_bands:  1 eigenvalues not converged
     ethr =  1.31E-09,  avg # of iterations =  6.7

     negative rho (up, down):  1.546E-03 0.000E+00

     total cpu time spent up to now is    11974.6 secs

     total energy              =  -12714.80164619 Ry
     Harris-Foulkes estimate   =  -12714.80164234 Ry
     estimated scf accuracy    <       0.00000602 Ry

     iteration # 38     ecut=    80.00 Ry     beta=0.70
     Davidson diagonalization with overlap
     ethr =  4.63E-10,  avg # of iterations =  3.3

     negative rho (up, down):  1.661E-03 0.000E+00

     total cpu time spent up to now is    12179.2 secs

     total energy              =  -12714.80164669 Ry
     Harris-Foulkes estimate   =  -12714.80164661 Ry
     estimated scf accuracy    <       0.00000167 Ry

     iteration # 39     ecut=    80.00 Ry     beta=0.70
     Davidson diagonalization with overlap
     ethr =  1.28E-10,  avg # of iterations =  2.7

     negative rho (up, down):  1.622E-03 0.000E+00

     total cpu time spent up to now is    12377.0 secs

     total energy              =  -12714.80164683 Ry
     Harris-Foulkes estimate   =  -12714.80164687 Ry
     estimated scf accuracy    <       0.00000076 Ry

     iteration # 40     ecut=    80.00 Ry     beta=0.70
     Davidson diagonalization with overlap
     ethr =  5.86E-11,  avg # of iterations =  2.0

     negative rho (up, down):  1.568E-03 0.000E+00

     total cpu time spent up to now is    12566.3 secs

     total energy              =  -12714.80164694 Ry
     Harris-Foulkes estimate   =  -12714.80164690 Ry
     estimated scf accuracy    <       0.00000027 Ry

     iteration # 41     ecut=    80.00 Ry     beta=0.70
     Davidson diagonalization with overlap
     ethr =  2.05E-11,  avg # of iterations =  2.0

     negative rho (up, down):  1.553E-03 0.000E+00

     total cpu time spent up to now is    12753.2 secs

     total energy              =  -12714.80164701 Ry
     Harris-Foulkes estimate   =  -12714.80164697 Ry
     estimated scf accuracy    <       0.00000003 Ry

     iteration # 42     ecut=    80.00 Ry     beta=0.70
     Davidson diagonalization with overlap
     ethr =  2.49E-12,  avg # of iterations =  3.0

     negative rho (up, down):  1.550E-03 0.000E+00

     total cpu time spent up to now is    13075.6 secs

     total energy              =  -12714.80164703 Ry
     Harris-Foulkes estimate   =  -12714.80164702 Ry
     estimated scf accuracy    <       0.00000002 Ry

     iteration # 43     ecut=    80.00 Ry     beta=0.70
     Davidson diagonalization with overlap
     ethr =  1.47E-12,  avg # of iterations =  2.0

     negative rho (up, down):  1.532E-03 0.000E+00

     total cpu time spent up to now is    13253.3 secs

     End of self-consistent calculation

          k = 0.0000 0.0000 0.0000 (256287 PWs)   bands (ev):

   -15.7625 -15.4117 -15.3748 -14.3109 -14.2958 -13.8046 -13.7914 -13.4655
   -13.4462 -13.4222 -13.4201 -12.5422 -12.5269 -12.3999 -12.3849 -12.3802
   -12.3780 -10.7910 -10.7245 -10.7141 -10.7121 -10.6210 -10.5639  -9.4797
    -8.9104  -8.9046  -8.7928  -8.7900  -7.9337  -7.9284  -7.9078  -7.9074
    -7.0189  -7.0176  -6.8714  -6.8666  -6.8604  -6.8560  -6.8286  -6.8271
    -5.6820  -5.3462  -5.3418  -5.3352  -5.3294  -5.2112  -5.2076  -5.1997
    -5.1988  -5.1534  -5.1450  -4.5767  -4.2897  -4.0847  -4.0721  -4.0703
    -3.9822  -3.9171  -3.8113  -3.8031  -3.7565  -3.6765  -3.6359  -3.5591
    -3.3288  -3.0913  -3.0583  -3.0378  -2.9747  -2.9678  -2.9466  -2.9439
    -2.8809  -2.7342  -2.7270  -2.6814  -2.6793  -2.6764  -2.6643  -2.6586
    -2.6494  -2.6429  -2.4896  -2.3795  -2.3170  -2.2963  -2.2049  -2.1797
    -2.1577  -2.1522  -2.1392  -2.1222  -2.1025  -2.0600  -1.9549  -1.9527
    -1.9369  -1.9288  -1.8630  -1.8607  -1.8324  -1.8317  -1.8285  -1.8271
    -1.7002  -1.7002  -1.6706  -1.6699  -1.6577  -1.6369  -1.5799  -1.5227
    -1.4507  -1.4104  -1.4039  -1.3984  -1.3978  -1.3854  -1.3787  -1.3705
    -1.3445  -1.3262  -1.3254  -1.3054  -1.3037  -1.2796  -1.2761  -1.2695
    -1.2635  -1.2521  -1.2476  -1.2354  -1.2125  -1.2017  -1.2000  -1.1976
    -1.1953  -1.1890  -1.1876  -1.1308  -1.1207  -1.0808  -1.0434  -1.0224
    -0.9891  -0.9631  -0.9578  -0.9544  -0.9516  -0.9491  -0.9201  -0.9148
    -0.8944  -0.8803  -0.8688  -0.8587  -0.8463  -0.8190  -0.8147  -0.8068
    -0.7398  -0.7330  -0.7304  -0.7270  -0.7148  -0.7137  -0.7116  -0.7058
    -0.7036  -0.6965  -0.6920  -0.6910  -0.6837  -0.6644  -0.6578  -0.6558
    -0.6545  -0.6521  -0.6168  -0.6157  -0.6145  -0.5844  -0.5834  -0.5817
    -0.5656  -0.5500  -0.5487  -0.5399  -0.5333  -0.5310  -0.5275  -0.5261
    -0.5223  -0.5204  -0.5148  -0.5130  -0.5116  -0.5085  -0.5077  -0.5021
    -0.5005  -0.4934  -0.4241  -0.3717  -0.3658  -0.3608  -0.3593  -0.3205
    -0.3128  -0.3110  -0.3075  -0.3052  -0.2970  -0.2882  -0.2874  -0.2746
    -0.2738  -0.2658  -0.2621  -0.2401  -0.2379  -0.2363  -0.2260  -0.2247
    -0.2237  -0.2152  -0.2112  -0.2093  -0.1568  -0.1549  -0.1486  -0.1296
    -0.1267  -0.1237  -0.1100  -0.1075  -0.0981  -0.0949  -0.0916  -0.0887
    -0.0866  -0.0835  -0.0802  -0.0773  -0.0761  -0.0741  -0.0737  -0.0706
    -0.0667  -0.0581  -0.0538  -0.0485  -0.0303  -0.0203  -0.0134  -0.0094
    -0.0068  -0.0038   0.0109   0.0158   0.0195   0.0327   0.0385   0.0418
     0.0536   0.0598   0.0603   0.0628   0.0728   0.0751   0.0841   0.0859
     0.0894   0.0907   0.1023   0.1040   0.1052   0.1117   0.1150   0.1174
     0.1252   0.1354   0.1380   0.1419   0.1463   0.1489   0.1490   0.1679
     0.1827   0.1932   0.1948   0.2049   0.2092   0.2352   0.2419   0.2504
     0.2516   0.2582   0.2620   0.2708   0.2748   0.2790   0.2825   0.2846
     0.2953   0.3032   0.3039   0.3108   0.3287   0.3333   0.3341   0.3371
     0.3471   0.3525   0.3569   0.3610   0.3622   0.3659   0.3851   0.3869
     0.3878   0.3882   0.3929   0.4039   0.4080   0.4146   0.4242   0.4248
     0.4271   0.4399   0.4504   0.4581   0.4689   0.4790   0.4796   0.4899
     0.4921   0.4987   0.5010   0.5140   0.5316   0.5334   0.5475   0.5533
     0.5572   0.5803   0.5837   0.5987   0.6110   0.6134   0.6240   0.6269
     0.6375   0.6385   0.6423   0.6544   0.6566   0.6639   0.6753   0.6859
     0.6875   0.6997   0.7014   0.7050   0.7095   0.7178   0.7229   0.7240
     0.7397   0.7465   0.7499   0.7550   0.7627   0.7702   0.7871   0.7945
     0.7967   0.7989   0.8077   0.8092   0.8126   0.8209   0.8239   0.8295
     0.8374   0.8424   0.8502   0.8610   0.8620   0.8643   0.8727   0.8780
     0.8796   0.8835   0.8844   0.8880   0.8912   0.8929   0.8947   0.9022
     0.9083   0.9137   0.9207   0.9265   0.9279   0.9375   0.9399   0.9520
     0.9581   0.9648   0.9743   0.9771   0.9797   0.9810   0.9911   0.9942
     0.9975   1.0035   1.0040   1.0053   1.0063   1.0096   1.0140   1.0208
     1.0253   1.0335   1.0404   1.0423   1.0485   1.0519   1.0566   1.0585
     1.0647   1.0653   1.0664   1.0787   1.0829   1.0863   1.0902   1.0934
     1.0945   1.1161   1.1211   1.1257   1.1334   1.1487   1.1529   1.1690
     1.1720   1.1777   1.1795   1.1817   1.1878   1.1979   1.1984   1.2021
     1.2061   1.2118   1.2142   1.2158   1.2196   1.2262   1.2371   1.2389
     1.2459   1.2509   1.2532   1.2555   1.2577   1.2626   1.2646   1.2660
     1.2681   1.2865   1.3022   1.3070   1.3109   1.3144   1.3229   1.3254
     1.3265   1.3315   1.3332   1.3393   1.3430   1.3463   1.3520   1.3542
     1.3569   1.3628   1.3636   1.3680   1.3682   1.3758   1.3809   1.3883
     1.3952   1.3996   1.4049   1.4110   1.4123   1.4195   1.4205   1.4257
     1.4273   1.4296   1.4315   1.4344   1.4385   1.4410   1.4451   1.4472
     1.4521   1.4538   1.4575   1.4602   1.4651   1.4754   1.4817   1.4841
     1.4935   1.5003   1.5023   1.5077   1.5112   1.5240   1.5273   1.5311
     1.5423   1.5501   1.5537   1.5554   1.5566   1.5618   1.5637   1.5665
     1.5735   1.5786   1.5813   1.5879   1.5890   1.5930   1.5951   1.5959
     1.6000   1.6030   1.6068   1.6101   1.6117   1.6170   1.6249   1.6269
     1.6285   1.6301   1.6322   1.6333   1.6373   1.6385   1.6441   1.6513
     1.6574   1.6587   1.6595   1.6644   1.6652   1.6712   1.6755   1.6792
     1.6862   1.6881   1.6906   1.6975   1.7014   1.7079   1.7157   1.7174
     1.7192   1.7241   1.7325   1.7369   1.7398   1.7409   1.7426   1.7448
     1.7484   1.7495   1.7507   1.7534   1.7575   1.7580   1.7608   1.7700
     1.7727   1.7795   1.7808   1.7838   1.7896   1.7930   1.7944   1.7953
     1.8039   1.8123   1.8256   1.8330   1.8355   1.8383   1.8629   1.8660
     1.8730   1.8735   1.8794   1.8945   1.9039   1.9119   1.9378   1.9410
     1.9414   1.9431   1.9471   1.9567   1.9588   1.9755   1.9785   2.0115
     2.2474   2.2746   2.3681   2.3743   2.3979   2.4672   2.5127   2.5138
     2.5153   2.5181   2.5279   2.5367   2.5390   2.5414   2.6538   2.6556
     2.7262   2.7332   2.7650   2.7860   2.8083   2.8805   2.9891   3.0075
     3.0291   3.0506   3.2983   3.6130   3.6177   3.6690   3.6919   3.7516
     3.7785   4.0385   4.0524   4.0847   4.1010   4.1380   4.1490   4.1605
     4.1751   4.2149   4.2419   4.2585   4.3074   4.3156   4.3224   4.3243
     4.3352   4.3897   4.4328   4.4554   4.5870   4.7874   5.0719   5.2480
     5.4029   5.5012   5.5163   5.5323   5.5637   5.5747   5.6056   5.6434
     5.8165   5.8355   6.0350   6.0424   6.2289   6.2375   6.4216   6.4254
     6.5824   6.6317   6.7131   6.7340   6.7478   6.8280   6.8619   6.9153
     6.9375   7.0187   7.0911   7.1949   7.2002   7.2324   7.2521   7.3047
     7.3269   7.3537   7.3803   7.3950   7.4077   7.4260   7.4575   7.6031
     7.6382   7.6726   7.7323   7.8727   7.9118   7.9210   7.9333   7.9800
     8.0245   8.0715   8.2331   8.3172   8.3220   8.3731   8.4341   8.4996
     8.5418   8.5486   8.5525   8.5937   8.6401   8.6529   8.7464   8.7924
     8.8166   8.8297   8.8465   8.8958   8.9090   8.9738   8.9857   9.0189
     9.0707   9.0812   9.0954   9.1301   9.1737   9.2418   9.2636   9.2685
     9.2780   9.3401   9.3569   9.3700   9.4539   9.4671   9.4766   9.6334
     9.6874   9.8293   9.8831   9.8872   9.9088   9.9693   9.9973  10.0671
    10.0889  10.1089  10.1471  10.3300

          k = 0.0000-0.2165 0.0000 (256176 PWs)   bands (ev):

   -15.6858 -15.6534 -14.9455 -14.9279 -13.7372 -13.7114 -13.6921 -13.6906
   -13.5022 -13.4930 -13.0130 -12.9950 -12.9890 -12.9872 -11.6409 -11.6224
   -11.6124 -11.6108 -11.4445 -11.4404 -10.6468  -9.7469  -9.7463  -9.7393
    -9.7360  -8.5056  -8.4985  -8.3153  -8.3127  -8.2899  -8.2869  -7.4625
    -7.4600  -7.4531  -7.4514  -6.3113  -6.3088  -6.3053  -6.3026  -6.1535
    -6.1491  -6.1394  -6.1355  -5.5569  -5.5376  -5.4273  -5.4221  -4.5553
    -4.5375  -4.5329  -4.5258  -4.5164  -4.5079  -4.4486  -4.4478  -4.1625
    -4.0091  -4.0063  -4.0037  -4.0012  -3.8977  -3.8578  -3.6006  -3.4471
    -3.3651  -3.3125  -2.9779  -2.9605  -2.9584  -2.9561  -2.9421  -2.8055
    -2.7840  -2.6978  -2.6852  -2.6016  -2.5823  -2.5542  -2.4335  -2.4250
    -2.4213  -2.4200  -2.3012  -2.2953  -2.2681  -2.2642  -2.2578  -2.2529
    -2.2447  -2.2388  -2.2174  -2.2128  -2.1133  -2.1126  -2.0832  -2.0696
    -1.9714  -1.9310  -1.8828  -1.8801  -1.8481  -1.8441  -1.7942  -1.7886
    -1.7875  -1.7807  -1.6518  -1.6511  -1.6399  -1.6396  -1.5854  -1.5693
    -1.5639  -1.5429  -1.5124  -1.4516  -1.4451  -1.4394  -1.4296  -1.4117
    -1.4084  -1.4053  -1.3947  -1.3756  -1.3364  -1.3326  -1.3298  -1.3271
    -1.3225  -1.3014  -1.2942  -1.2145  -1.1762  -1.1757  -1.1420  -1.1060
    -1.0446  -1.0300  -1.0051  -0.9968  -0.9934  -0.9911  -0.9718  -0.9643
    -0.9621  -0.9538  -0.9510  -0.9392  -0.9327  -0.9305  -0.9273  -0.9031
    -0.9007  -0.8836  -0.8815  -0.8749  -0.8683  -0.8645  -0.8616  -0.8575
    -0.7952  -0.7750  -0.7579  -0.7558  -0.7551  -0.7474  -0.7337  -0.7270
    -0.7250  -0.7235  -0.7232  -0.6846  -0.6790  -0.6778  -0.6757  -0.6718
    -0.6485  -0.6409  -0.6401  -0.6366  -0.6344  -0.6311  -0.6060  -0.6024
    -0.6019  -0.5994  -0.5877  -0.5806  -0.5724  -0.5695  -0.5567  -0.5479
    -0.5132  -0.5105  -0.5032  -0.4971  -0.4868  -0.4848  -0.4835  -0.4609
    -0.4568  -0.4490  -0.4444  -0.4329  -0.4273  -0.4208  -0.4144  -0.4037
    -0.3665  -0.3599  -0.3161  -0.3131  -0.2934  -0.2919  -0.2903  -0.2849
    -0.2845  -0.2831  -0.2803  -0.2799  -0.2572  -0.2369  -0.2172  -0.2096
    -0.2039  -0.2009  -0.2001  -0.1969  -0.1943  -0.1905  -0.1611  -0.1606
    -0.1578  -0.1549  -0.1426  -0.1402  -0.1319  -0.1297  -0.1252  -0.1206
    -0.1184  -0.1147  -0.0793  -0.0783  -0.0654  -0.0611  -0.0406  -0.0375
    -0.0114   0.0049   0.0071   0.0093   0.0104   0.0118   0.0144   0.0156
     0.0212   0.0255   0.0398   0.0552   0.0685   0.0713   0.0720   0.0741
     0.0770   0.0826   0.0842   0.0885   0.0950   0.1069   0.1082   0.1092
     0.1127   0.1227   0.1264   0.1285   0.1315   0.1422   0.1628   0.1650
     0.1742   0.1765   0.1798   0.1851   0.1880   0.1901   0.1947   0.1961
     0.2039   0.2190   0.2260   0.2303   0.2395   0.2413   0.2425   0.2513
     0.2568   0.2613   0.2686   0.2813   0.2862   0.2906   0.2950   0.3016
     0.3087   0.3218   0.3262   0.3279   0.3351   0.3363   0.3460   0.3479
     0.3611   0.3655   0.3770   0.3817   0.3857   0.3862   0.3897   0.4034
     0.4054   0.4074   0.4239   0.4264   0.4274   0.4373   0.4377   0.4405
     0.4514   0.4557   0.4605   0.4633   0.4655   0.4684   0.4780   0.4787
     0.4817   0.5098   0.5112   0.5183   0.5203   0.5259   0.5431   0.5472
     0.5495   0.5557   0.5634   0.5728   0.6076   0.6158   0.6263   0.6271
     0.6506   0.6621   0.6649   0.6762   0.6864   0.7007   0.7041   0.7134
     0.7194   0.7313   0.7338   0.7388   0.7442   0.7453   0.7481   0.7524
     0.7599   0.7616   0.7645   0.7659   0.7796   0.7810   0.7829   0.7890
     0.7972   0.8066   0.8114   0.8127   0.8163   0.8192   0.8218   0.8243
     0.8297   0.8342   0.8408   0.8466   0.8473   0.8519   0.8525   0.8532
     0.8551   0.8620   0.8634   0.8660   0.8743   0.8759   0.8820   0.8920
     0.8921   0.8946   0.8960   0.9046   0.9055   0.9108   0.9134   0.9230
     0.9291   0.9299   0.9327   0.9343   0.9481   0.9504   0.9565   0.9640
     0.9648   0.9704   0.9759   0.9807   0.9865   0.9911   0.9943   0.9983
     1.0025   1.0064   1.0113   1.0125   1.0131   1.0196   1.0250   1.0336
     1.0458   1.0539   1.0623   1.0644   1.0675   1.0785   1.0826   1.0858
     1.0877   1.0978   1.1134   1.1162   1.1172   1.1195   1.1202   1.1225
     1.1505   1.1539   1.1920   1.1941   1.1993   1.2105   1.2178   1.2240
     1.2267   1.2292   1.2304   1.2377   1.2384   1.2421   1.2441   1.2467
     1.2469   1.2477   1.2542   1.2566   1.2611   1.2654   1.2719   1.2776
     1.2795   1.2813   1.2818   1.2845   1.2904   1.2916   1.2932   1.2946
     1.3006   1.3012   1.3020   1.3059   1.3109   1.3157   1.3161   1.3252
     1.3275   1.3285   1.3390   1.3410   1.3439   1.3510   1.3537   1.3574
     1.3584   1.3605   1.3613   1.3641   1.3666   1.3694   1.3726   1.3788
     1.4055   1.4065   1.4101   1.4164   1.4379   1.4454   1.4471   1.4585
     1.4781   1.4826   1.4885   1.4914   1.4944   1.4984   1.5005   1.5025
     1.5088   1.5137   1.5166   1.5183   1.5196   1.5204   1.5230   1.5242
     1.5305   1.5339   1.5373   1.5385   1.5405   1.5449   1.5476   1.5482
     1.5511   1.5561   1.5592   1.5634   1.5645   1.5665   1.5793   1.5811
     1.5838   1.5863   1.5883   1.5965   1.6011   1.6076   1.6093   1.6133
     1.6164   1.6256   1.6283   1.6335   1.6372   1.6380   1.6456   1.6490
     1.6514   1.6540   1.6556   1.6580   1.6693   1.6831   1.6840   1.6951
     1.6978   1.7004   1.7017   1.7026   1.7036   1.7040   1.7060   1.7104
     1.7160   1.7165   1.7243   1.7277   1.7489   1.7500   1.7534   1.7563
     1.7647   1.7676   1.7682   1.7688   1.7698   1.7749   1.7766   1.7877
     1.7910   1.8029   1.8042   1.8082   1.8103   1.8145   1.8153   1.8184
     1.8284   1.8292   1.8325   1.8337   1.8366   1.8577   1.8827   1.8867
     1.8873   1.8974   1.9032   1.9084   1.9588   1.9748   1.9766   2.0437
     2.0780   2.0793   2.0844   2.0851   2.0957   2.1126   2.1155   2.1391
     2.1418   2.1459   2.1542   2.1667   2.1915   2.2020   2.6161   2.6404
     2.6497   2.6514   2.6565   2.6590   2.7251   2.7355   2.7989   2.8157
     2.8245   2.8434   2.8696   2.8957   2.8972   2.8998   2.9813   3.0055
     3.0297   3.0325   3.0806   3.1615   3.2373   3.2396   3.4342   3.4386
     3.4760   3.4781   3.4809   3.6757   3.9823   3.9967   4.2237   4.2265
     4.3598   4.3822   4.5399   4.5659   4.5698   4.5865   4.5990   4.6266
     4.6383   4.6449   4.6678   4.7196   4.7345   4.8234   4.8935   5.1405
     5.4004   5.4113   5.5200   5.5531   5.6405   5.6527   5.6608   5.6833
     5.7262   5.9340   5.9758   6.1528   6.3861   6.3978   6.4150   6.4346
     6.4405   6.4571   6.4671   6.4804   6.6291   6.6548   6.7418   6.8248
     6.9445   6.9634   6.9732   7.0237   7.0931   7.2208   7.2799   7.3339
     7.3425   7.3522   7.3693   7.3794   7.4676   7.4752   7.5116   7.5162
     7.5338   7.5549   7.5607   7.6118   7.6408   7.9996   8.1362   8.1756
     8.1788   8.2112   8.2603   8.2625   8.3802   8.3846   8.3928   8.4136
     8.4978   8.5279   8.5466   8.6115   8.6333   8.6674   8.8788   8.8936
     8.9445   8.9593   8.9812   8.9989   9.0021   9.0390   9.0463   9.0478
     9.0634   9.1390   9.1966   9.2104   9.2288   9.2737   9.3235   9.3664
     9.4765   9.5344   9.5623   9.5822   9.6109   9.6178   9.6341   9.6844
     9.6944   9.7027   9.7259   9.8104   9.8221   9.8230   9.9474   9.9908
    10.0956  10.1059  10.1326  10.1992

          k = 0.2500 0.0000 0.0000 (256240 PWs)   bands (ev):

   -15.6382 -15.2880 -15.2511 -14.6507 -14.3054 -14.2689 -14.1874 -14.1742
   -13.2232 -13.2092 -12.7213 -12.4273 -12.4104 -12.3828 -12.3524 -11.5043
   -11.4894 -11.3653 -11.3512 -10.6639 -10.4784 -10.0771 -10.0569 -10.0236
    -9.6421  -9.3752  -9.0950  -9.0902  -8.6778  -8.4303  -8.4234  -7.9696
    -6.9447  -6.9435  -6.8990  -6.8888  -6.7887  -6.7735  -6.2797  -5.9783
    -5.5298  -5.5027  -5.2674  -5.2550  -5.2432  -5.2384  -4.9805  -4.9743
    -4.5732  -4.5690  -4.4192  -4.2331  -4.1188  -4.0210  -3.9451  -3.9224
    -3.8254  -3.8117  -3.7715  -3.7125  -3.6919  -3.6773  -3.6606  -3.6194
    -3.5557  -3.4899  -3.4585  -3.2503  -3.1859  -3.1037  -3.0512  -3.0407
    -2.9986  -2.9337  -2.9232  -2.8494  -2.8442  -2.8297  -2.8103  -2.7613
    -2.7333  -2.6876  -2.5696  -2.5543  -2.5494  -2.5342  -2.4697  -2.4656
    -2.3678  -2.3028  -2.1863  -2.1472  -2.0665  -2.0575  -1.9731  -1.9700
    -1.8429  -1.7986  -1.7872  -1.7719  -1.7710  -1.7615  -1.7407  -1.7142
    -1.6123  -1.5678  -1.5236  -1.4847  -1.4794  -1.4789  -1.4715  -1.4707
    -1.4636  -1.4616  -1.4459  -1.4446  -1.4313  -1.4303  -1.4204  -1.3883
    -1.3486  -1.3053  -1.3030  -1.2922  -1.2524  -1.2430  -1.2428  -1.2336
    -1.2316  -1.2272  -1.2161  -1.1863  -1.1823  -1.1752  -1.1730  -1.1594
    -1.0774  -1.0702  -1.0384  -1.0102  -0.9947  -0.9921  -0.9883  -0.9809
    -0.9429  -0.9251  -0.9189  -0.9145  -0.9020  -0.8973  -0.8963  -0.8722
    -0.8714  -0.8597  -0.8587  -0.8518  -0.8447  -0.8414  -0.8260  -0.8127
    -0.8030  -0.8004  -0.7901  -0.7821  -0.7738  -0.7681  -0.7604  -0.7558
    -0.7309  -0.7106  -0.6971  -0.6950  -0.6907  -0.6853  -0.6837  -0.6773
    -0.6725  -0.6705  -0.6702  -0.6653  -0.6595  -0.6524  -0.6505  -0.6411
    -0.6366  -0.6328  -0.6286  -0.6254  -0.6142  -0.6088  -0.5786  -0.5488
    -0.5456  -0.5203  -0.5184  -0.5028  -0.4838  -0.4827  -0.4654  -0.4554
    -0.4530  -0.4442  -0.4414  -0.4344  -0.4153  -0.4100  -0.4036  -0.3970
    -0.3939  -0.3866  -0.3748  -0.3637  -0.2814  -0.2767  -0.2593  -0.2515
    -0.2459  -0.2421  -0.2415  -0.2333  -0.2254  -0.2245  -0.2204  -0.2035
    -0.1986  -0.1948  -0.1933  -0.1821  -0.1671  -0.1600  -0.1564  -0.1547
    -0.1526  -0.1484  -0.1464  -0.1445  -0.1436  -0.1381  -0.1324  -0.1314
    -0.0916  -0.0846  -0.0794  -0.0757  -0.0708  -0.0663  -0.0618  -0.0559
    -0.0400  -0.0366  -0.0311  -0.0261  -0.0228  -0.0180  -0.0161  -0.0111
     0.0145   0.0189   0.0191   0.0316   0.0325   0.0380   0.0402   0.0463
     0.0577   0.0608   0.0682   0.0705   0.0742   0.0786   0.0970   0.1186
     0.1264   0.1298   0.1315   0.1334   0.1424   0.1486   0.1512   0.1566
     0.1593   0.1627   0.1680   0.1846   0.1910   0.2017   0.2050   0.2111
     0.2131   0.2219   0.2300   0.2379   0.2413   0.2557   0.2711   0.2755
     0.2783   0.2944   0.2994   0.3026   0.3045   0.3064   0.3116   0.3170
     0.3225   0.3278   0.3378   0.3397   0.3427   0.3458   0.3493   0.3509
     0.3555   0.3570   0.3649   0.3693   0.3718   0.3760   0.3808   0.3968
     0.4020   0.4055   0.4193   0.4241   0.4305   0.4329   0.4408   0.4460
     0.4493   0.4539   0.4584   0.4650   0.4679   0.4738   0.4768   0.4902
     0.4925   0.5176   0.5326   0.5447   0.5615   0.5643   0.5777   0.5875
     0.5946   0.5955   0.6016   0.6042   0.6093   0.6122   0.6177   0.6191
     0.6226   0.6257   0.6340   0.6520   0.6537   0.6587   0.6619   0.6653
     0.6741   0.6804   0.6902   0.6967   0.7051   0.7064   0.7090   0.7140
     0.7183   0.7332   0.7416   0.7507   0.7591   0.7642   0.7725   0.7754
     0.7766   0.7799   0.7891   0.7940   0.7971   0.8059   0.8116   0.8154
     0.8168   0.8224   0.8284   0.8311   0.8321   0.8349   0.8373   0.8420
     0.8444   0.8598   0.8637   0.8752   0.8774   0.8793   0.8845   0.8915
     0.8934   0.8962   0.8994   0.9031   0.9115   0.9122   0.9188   0.9235
     0.9247   0.9300   0.9371   0.9416   0.9501   0.9545   0.9573   0.9598
     0.9649   0.9665   0.9684   0.9784   0.9790   0.9810   0.9866   0.9947
     0.9959   1.0136   1.0181   1.0220   1.0351   1.0435   1.0519   1.0602
     1.0631   1.0706   1.0777   1.0803   1.0855   1.0875   1.0930   1.0950
     1.1054   1.1094   1.1120   1.1137   1.1163   1.1453   1.1465   1.1533
     1.1591   1.1676   1.1711   1.1731   1.1766   1.1809   1.1856   1.1935
     1.2007   1.2038   1.2074   1.2095   1.2109   1.2142   1.2223   1.2281
     1.2334   1.2375   1.2390   1.2432   1.2505   1.2589   1.2715   1.2734
     1.2894   1.2900   1.2979   1.3040   1.3094   1.3183   1.3211   1.3257
     1.3290   1.3319   1.3329   1.3365   1.3381   1.3415   1.3460   1.3480
     1.3507   1.3532   1.3583   1.3598   1.3673   1.3683   1.3710   1.3723
     1.3750   1.3814   1.3862   1.3873   1.3936   1.3963   1.4004   1.4046
     1.4102   1.4126   1.4161   1.4267   1.4269   1.4303   1.4357   1.4366
     1.4401   1.4431   1.4451   1.4464   1.4497   1.4515   1.4547   1.4606
     1.4705   1.4747   1.4806   1.4860   1.4960   1.5072   1.5082   1.5095
     1.5148   1.5169   1.5254   1.5363   1.5411   1.5419   1.5576   1.5645
     1.5704   1.5730   1.5738   1.5772   1.5791   1.5799   1.5826   1.5928
     1.5948   1.5982   1.6008   1.6053   1.6090   1.6115   1.6170   1.6215
     1.6227   1.6251   1.6264   1.6306   1.6339   1.6372   1.6386   1.6431
     1.6448   1.6467   1.6496   1.6572   1.6623   1.6680   1.6698   1.6721
     1.6816   1.6882   1.6942   1.7003   1.7057   1.7089   1.7178   1.7273
     1.7307   1.7310   1.7340   1.7376   1.7405   1.7477   1.7502   1.7530
     1.7544   1.7568   1.7613   1.7623   1.7666   1.7676   1.7693   1.7774
     1.7804   1.7821   1.7870   1.7951   1.7973   1.7990   1.8000   1.8039
     1.8093   1.8111   1.8160   1.8205   1.8220   1.8242   1.8307   1.8334
     1.8474   1.8660   1.8764   1.8883   1.8980   1.9194   1.9328   1.9377
     1.9402   1.9454   1.9559   1.9705   1.9854   2.0298   2.0433   2.0791
     2.0826   2.1272   2.1431   2.1558   2.3318   2.3437   2.3489   2.3503
     2.3747   2.3896   2.4030   2.4694   2.4781   2.5884   2.6572   2.8609
     2.8636   2.8728   2.9205   3.2272   3.2915   3.2922   3.4692   3.5137
     3.5158   3.5285   3.5323   3.5367   3.6175   3.7225   3.7995   3.8353
     3.9242   3.9354   3.9814   3.9944   3.9964   4.0360   4.0860   4.1346
     4.1419   4.2060   4.2366   4.2847   4.5287   4.5646   4.6079   4.6404
     4.7775   4.8971   5.0554   5.0582   5.1288   5.1409   5.2336   5.2587
     5.5007   5.5065   5.5333   5.5424   5.6474   5.6733   5.6935   5.7141
     5.7870   5.7951   5.8306   5.8469   5.9083   5.9159   5.9554   5.9750
     6.0628   6.2161   6.2955   6.3146   6.3359   6.3677   6.4137   6.4554
     6.8593   6.8939   6.9645   7.0466   7.0495   7.1401   7.2097   7.2481
     7.2605   7.2902   7.3133   7.3395   7.3454   7.3537   7.3647   7.3699
     7.3838   7.4041   7.4872   7.5008   7.5618   7.6613   7.7761   7.8067
     7.8333   7.8802   7.9962   8.0418   8.0707   8.1153   8.1975   8.2431
     8.2730   8.3099   8.3362   8.3495   8.4258   8.4954   8.5599   8.5874
     8.6996   8.7152   8.7396   8.7491   8.7870   8.7909   8.8740   8.9104
     8.9552   9.0730   9.1852   9.2194   9.3042   9.3168   9.3616   9.3840
     9.3969   9.4058   9.4366   9.4512   9.4738   9.4957   9.5026   9.5144
     9.5607   9.5691   9.6185   9.6309   9.7157   9.7743   9.7898   9.9245
     9.9714   9.9908  10.0748  10.1026

          k = 0.2500-0.2165 0.0000 (256316 PWs)   bands (ev):

   -15.5617 -15.5293 -14.8230 -14.8050 -14.5745 -14.5430 -13.8460 -13.8293
   -13.3835 -13.3733 -12.6492 -12.6160 -12.4349 -12.4254 -11.9488 -11.9325
   -11.3363 -11.3286 -10.7216 -10.6602 -10.6070 -10.4481 -10.4326 -10.0019
    -9.9768  -8.9554  -8.9482  -8.4998  -8.4958  -8.4108  -8.4013  -7.8455
    -7.8318  -7.7214  -7.7174  -6.0436  -6.0353  -5.9772  -5.9635  -5.8236
    -5.8036  -5.6493  -5.6436  -5.3836  -5.3802  -5.3782  -5.3592  -4.5040
    -4.5002  -4.3937  -4.3453  -4.2971  -4.2804  -4.2260  -4.2225  -4.1451
    -4.0008  -3.9818  -3.8512  -3.7172  -3.5747  -3.5653  -3.5557  -3.5525
    -3.5374  -3.3346  -3.2703  -3.2302  -3.1177  -3.1138  -3.1093  -3.0746
    -3.0166  -2.9537  -2.9480  -2.9341  -2.8052  -2.6940  -2.6672  -2.6266
    -2.6215  -2.5992  -2.5706  -2.5672  -2.5443  -2.3865  -2.3816  -2.3494
    -2.3417  -2.3244  -2.3214  -2.2347  -2.0243  -2.0120  -1.9902  -1.9756
    -1.9028  -1.8737  -1.8469  -1.8463  -1.8100  -1.8066  -1.7359  -1.6812
    -1.6784  -1.6596  -1.6359  -1.6159  -1.5227  -1.4951  -1.4921  -1.4890
    -1.4697  -1.4165  -1.3913  -1.3770  -1.3750  -1.3744  -1.3596  -1.3563
    -1.3540  -1.3492  -1.3474  -1.3408  -1.3396  -1.3297  -1.3295  -1.3021
    -1.2648  -1.2308  -1.1825  -1.1441  -1.1333  -1.1308  -1.1046  -1.0982
    -1.0598  -1.0233  -1.0035  -0.9932  -0.9606  -0.9555  -0.9482  -0.9451
    -0.9410  -0.9363  -0.9250  -0.9227  -0.9182  -0.9118  -0.9094  -0.9085
    -0.9014  -0.8932  -0.8855  -0.8758  -0.8699  -0.8660  -0.8434  -0.8366
    -0.8347  -0.8308  -0.8173  -0.8123  -0.8032  -0.7805  -0.7788  -0.7742
    -0.7709  -0.7421  -0.7292  -0.7181  -0.7096  -0.6972  -0.6913  -0.6801
    -0.6707  -0.6695  -0.6530  -0.6444  -0.6373  -0.6359  -0.6289  -0.6268
    -0.6216  -0.6191  -0.6128  -0.5975  -0.5952  -0.5869  -0.5807  -0.5779
    -0.5697  -0.5334  -0.5323  -0.5029  -0.4865  -0.4718  -0.4351  -0.4232
    -0.4201  -0.4159  -0.3858  -0.3825  -0.3818  -0.3783  -0.3755  -0.3716
    -0.3691  -0.3636  -0.3454  -0.3145  -0.3085  -0.3019  -0.2867  -0.2808
    -0.2698  -0.2623  -0.2533  -0.2430  -0.2404  -0.2224  -0.2143  -0.2138
    -0.2106  -0.1980  -0.1965  -0.1776  -0.1761  -0.1718  -0.1700  -0.1593
    -0.1559  -0.1493  -0.1456  -0.1150  -0.1053  -0.1001  -0.0968  -0.0945
    -0.0894  -0.0826  -0.0780  -0.0747  -0.0704  -0.0647  -0.0529  -0.0496
    -0.0450  -0.0437  -0.0363  -0.0344  -0.0324  -0.0140  -0.0111  -0.0081
     0.0003   0.0047   0.0123   0.0137   0.0263   0.0364   0.0434   0.0521
     0.0582   0.0619   0.0793   0.0811   0.0827   0.0859   0.0882   0.1053
     0.1148   0.1312   0.1344   0.1383   0.1392   0.1489   0.1530   0.1615
     0.1825   0.1903   0.2018   0.2129   0.2177   0.2198   0.2243   0.2275
     0.2314   0.2355   0.2439   0.2539   0.2604   0.2638   0.2670   0.2689
     0.2789   0.2861   0.2937   0.2996   0.3061   0.3145   0.3159   0.3173
     0.3196   0.3222   0.3275   0.3316   0.3334   0.3361   0.3387   0.3399
     0.3428   0.3525   0.3557   0.3565   0.3642   0.3673   0.3837   0.3872
     0.3983   0.4018   0.4109   0.4122   0.4217   0.4289   0.4308   0.4459
     0.4512   0.4652   0.4694   0.4735   0.4770   0.4832   0.4841   0.4912
     0.4958   0.4983   0.5055   0.5109   0.5170   0.5284   0.5422   0.5556
     0.5601   0.5779   0.5855   0.5977   0.6034   0.6050   0.6138   0.6167
     0.6306   0.6349   0.6422   0.6439   0.6488   0.6606   0.6638   0.6712
     0.6779   0.6794   0.6800   0.6917   0.6991   0.7043   0.7074   0.7098
     0.7171   0.7244   0.7257   0.7319   0.7416   0.7453   0.7468   0.7483
     0.7593   0.7674   0.7842   0.7869   0.7965   0.8056   0.8104   0.8126
     0.8147   0.8177   0.8236   0.8320   0.8396   0.8429   0.8458   0.8523
     0.8561   0.8572   0.8655   0.8801   0.9056   0.9076   0.9139   0.9157
     0.9183   0.9206   0.9236   0.9301   0.9321   0.9356   0.9399   0.9432
     0.9451   0.9536   0.9566   0.9660   0.9715   0.9721   0.9785   0.9847
     0.9871   0.9884   0.9923   0.9934   0.9989   1.0037   1.0069   1.0104
     1.0168   1.0201   1.0209   1.0234   1.0264   1.0298   1.0326   1.0352
     1.0415   1.0505   1.0536   1.0568   1.0619   1.0730   1.0807   1.0845
     1.0860   1.0912   1.1176   1.1224   1.1332   1.1380   1.1420   1.1483
     1.1551   1.1571   1.1646   1.1656   1.1691   1.1697   1.1727   1.1764
     1.1797   1.1820   1.1845   1.1884   1.1915   1.1939   1.2041   1.2122
     1.2224   1.2324   1.2332   1.2359   1.2369   1.2373   1.2453   1.2463
     1.2520   1.2554   1.2658   1.2775   1.2825   1.2898   1.2909   1.2940
     1.2995   1.3253   1.3286   1.3321   1.3369   1.3398   1.3615   1.3673
     1.3737   1.3751   1.3842   1.3875   1.3957   1.3984   1.4020   1.4048
     1.4072   1.4106   1.4149   1.4202   1.4208   1.4232   1.4248   1.4272
     1.4295   1.4299   1.4341   1.4386   1.4397   1.4472   1.4520   1.4611
     1.4671   1.4684   1.4745   1.4763   1.4792   1.4814   1.4882   1.4915
     1.4944   1.4965   1.5002   1.5055   1.5084   1.5099   1.5130   1.5175
     1.5201   1.5224   1.5286   1.5294   1.5354   1.5400   1.5432   1.5443
     1.5468   1.5489   1.5509   1.5531   1.5627   1.5669   1.5679   1.5755
     1.5778   1.5876   1.5879   1.5962   1.5978   1.6042   1.6071   1.6093
     1.6192   1.6255   1.6301   1.6345   1.6407   1.6453   1.6482   1.6513
     1.6549   1.6590   1.6617   1.6683   1.6704   1.6747   1.6791   1.6866
     1.6885   1.6899   1.6906   1.6951   1.7053   1.7069   1.7126   1.7138
     1.7204   1.7238   1.7294   1.7314   1.7351   1.7364   1.7373   1.7394
     1.7418   1.7449   1.7519   1.7535   1.7552   1.7588   1.7678   1.7725
     1.7735   1.7769   1.7817   1.7825   1.7833   1.7875   1.7989   1.7993
     1.8060   1.8233   1.8249   1.8303   1.8318   1.8379   1.8463   1.8523
     1.8628   1.8665   1.8678   1.8849   1.8967   1.8973   1.9495   1.9581
     1.9900   1.9959   1.9998   2.0298   2.0385   2.0434   2.0452   2.0535
     2.0632   2.0768   2.0947   2.0972   2.1012   2.2666   2.2934   2.3320
     2.4384   2.4416   2.4697   2.4741   2.5601   2.6299   2.8958   2.8977
     3.0278   3.0285   3.0594   3.0735   3.0921   3.1021   3.1295   3.1625
     3.2413   3.2969   3.3022   3.4147   3.7059   3.7537   3.7728   3.8185
     3.8747   4.0072   4.1354   4.1414   4.1557   4.2022   4.2826   4.3073
     4.3938   4.3976   4.4699   4.4744   4.6759   4.6836   4.7745   4.7807
     4.9149   4.9221   4.9251   4.9629   4.9683   5.0477   5.0860   5.1961
     5.2467   5.2840   5.3024   5.4112   5.4264   5.4823   5.5770   5.5808
     5.6263   5.7332   5.7782   5.8262   5.8911   5.9402   6.0248   6.0599
     6.0623   6.0727   6.1684   6.4686   6.6021   6.6177   6.6582   6.6859
     6.8715   6.8798   6.9017   6.9616   6.9754   7.0242   7.0430   7.1611
     7.2311   7.2559   7.2660   7.4236   7.4463   7.5080   7.5185   7.5460
     7.6016   7.6101   7.6433   7.6798   7.6821   7.6888   7.7266   7.7318
     7.7821   7.8828   7.8948   7.9399   7.9910   8.0327   8.0501   8.2546
     8.3090   8.3474   8.3551   8.4721   8.4986   8.6382   8.6613   8.6863
     8.7656   8.7902   8.8160   8.8382   8.8596   8.9040   8.9322   8.9563
     8.9872   9.0180   9.0238   9.0595   9.1269   9.1570   9.1832   9.2093
     9.2434   9.3599   9.3654   9.3762   9.3834   9.4540   9.4640   9.5003
     9.5151   9.5515   9.5980   9.6267   9.6743   9.6832   9.6984   9.7658
     9.8039   9.8222   9.8987  10.0230

          k =-0.5000 0.0000 0.0000 (256496 PWs)   bands (ev):

   -15.2742 -15.2589 -14.9298 -14.9050 -14.8818 -14.8807 -13.8374 -13.8128
   -13.8118 -13.8084 -12.0921 -12.0676 -12.0597 -12.0565 -11.4523 -11.4413
   -11.1523 -11.1291 -11.1008 -11.0989 -10.6566 -10.4826 -10.4682 -10.1815
   -10.1545  -9.4858  -9.4824  -9.0795  -9.0745  -8.2813  -8.2781  -8.2708
    -8.2678  -6.8433  -6.8397  -6.7688  -6.7568  -6.7415  -6.7386  -5.2407
    -5.2396  -4.9780  -4.9750  -4.4929  -4.4801  -4.4776  -4.4714  -4.4680
    -4.4553  -4.1581  -4.0965  -4.0867  -4.0726  -4.0626  -4.0604  -4.0570
    -4.0489  -4.0353  -3.9807  -3.8337  -3.7925  -3.7843  -3.7706  -3.7674
    -3.7628  -3.5954  -3.4375  -3.4301  -3.3642  -3.3329  -3.2941  -3.2342
    -3.0867  -3.0860  -3.0763  -3.0678  -2.9263  -2.8983  -2.8669  -2.8075
    -2.8027  -2.7537  -2.7369  -2.7287  -2.7264  -2.4524  -2.3396  -2.3200
    -2.3088  -2.2964  -2.2809  -2.2682  -2.1578  -2.1524  -2.1349  -2.1310
    -2.0423  -2.0313  -2.0147  -1.8904  -1.6790  -1.6738  -1.6360  -1.5633
    -1.5592  -1.5579  -1.5537  -1.5452  -1.5446  -1.5276  -1.4620  -1.4584
    -1.4495  -1.3516  -1.3270  -1.3201  -1.3166  -1.3139  -1.2870  -1.2733
    -1.2689  -1.2652  -1.2048  -1.1855  -1.1756  -1.1580  -1.1037  -1.0997
    -1.0926  -1.0865  -1.0854  -1.0833  -1.0461  -1.0419  -1.0387  -1.0324
    -1.0259  -1.0241  -1.0212  -1.0132  -1.0124  -1.0049  -0.9935  -0.9849
    -0.9759  -0.9754  -0.9673  -0.9497  -0.9448  -0.9378  -0.9364  -0.9312
    -0.9148  -0.8974  -0.8858  -0.8822  -0.8802  -0.8739  -0.8718  -0.8561
    -0.8526  -0.8494  -0.8465  -0.8363  -0.8330  -0.8097  -0.8063  -0.7985
    -0.7884  -0.7817  -0.7783  -0.7780  -0.7668  -0.7603  -0.7509  -0.7489
    -0.7456  -0.7415  -0.6777  -0.6744  -0.6639  -0.6561  -0.6543  -0.6483
    -0.6314  -0.6269  -0.6217  -0.6178  -0.6008  -0.5983  -0.5951  -0.5902
    -0.5889  -0.5846  -0.5829  -0.5805  -0.5628  -0.5567  -0.4951  -0.4919
    -0.4885  -0.4861  -0.4642  -0.4599  -0.4409  -0.4105  -0.3821  -0.3805
    -0.3790  -0.3780  -0.3526  -0.3483  -0.3382  -0.3352  -0.3321  -0.3281
    -0.3059  -0.2958  -0.2870  -0.2792  -0.2732  -0.2665  -0.2643  -0.2627
    -0.2599  -0.2565  -0.2554  -0.2507  -0.2428  -0.2378  -0.1321  -0.1258
    -0.1234  -0.1185  -0.1105  -0.1044  -0.0981  -0.0879  -0.0843  -0.0810
    -0.0805  -0.0793  -0.0712  -0.0623  -0.0524  -0.0436  -0.0431  -0.0379
    -0.0143  -0.0102  -0.0005   0.0035   0.0081   0.0101   0.0203   0.0212
     0.0234   0.0248   0.0325   0.0331   0.0356   0.0390   0.0392   0.0474
     0.0737   0.0775   0.0949   0.0954   0.1140   0.1166   0.1178   0.1231
     0.1634   0.1651   0.1708   0.1717   0.1796   0.1856   0.1879   0.1927
     0.2169   0.2181   0.2244   0.2441   0.2474   0.2518   0.2655   0.2741
     0.2765   0.2798   0.2851   0.2891   0.2948   0.3011   0.3034   0.3046
     0.3082   0.3089   0.3123   0.3145   0.3153   0.3179   0.3362   0.3650
     0.3802   0.3826   0.3837   0.3881   0.3889   0.3936   0.3953   0.3987
     0.4011   0.4053   0.4088   0.4092   0.4109   0.4126   0.4172   0.4213
     0.4255   0.4267   0.4291   0.4376   0.4438   0.4452   0.4455   0.4488
     0.4531   0.4544   0.4561   0.4614   0.4661   0.4772   0.4813   0.4901
     0.4919   0.5012   0.5088   0.5145   0.5181   0.5223   0.5357   0.5636
     0.5776   0.5832   0.5913   0.6090   0.6114   0.6157   0.6205   0.6355
     0.6387   0.6431   0.6459   0.6555   0.6650   0.6719   0.6735   0.6756
     0.6823   0.6898   0.6953   0.7034   0.7093   0.7156   0.7175   0.7187
     0.7209   0.7291   0.7295   0.7346   0.7363   0.7395   0.7439   0.7485
     0.7523   0.7818   0.8056   0.8110   0.8126   0.8277   0.8285   0.8375
     0.8445   0.8475   0.8496   0.8529   0.8546   0.8602   0.8646   0.8651
     0.8689   0.8713   0.8721   0.8791   0.8806   0.8834   0.8866   0.8903
     0.8927   0.8959   0.8963   0.8995   0.9114   0.9172   0.9200   0.9238
     0.9335   0.9409   0.9460   0.9494   0.9537   0.9607   0.9638   0.9663
     0.9685   0.9710   0.9724   0.9773   0.9810   0.9822   0.9859   0.9880
     0.9892   0.9928   0.9940   0.9994   1.0137   1.0219   1.0352   1.0383
     1.0485   1.0493   1.0510   1.0571   1.0593   1.0620   1.0654   1.0796
     1.0905   1.0918   1.0972   1.1012   1.1068   1.1136   1.1189   1.1220
     1.1389   1.1484   1.1522   1.1525   1.1540   1.1547   1.1574   1.1636
     1.1646   1.1655   1.1723   1.1764   1.1795   1.1838   1.1855   1.1884
     1.1960   1.1972   1.2111   1.2122   1.2136   1.2143   1.2216   1.2278
     1.2324   1.2358   1.2432   1.2458   1.2527   1.2538   1.2565   1.2676
     1.2955   1.3086   1.3217   1.3268   1.3309   1.3353   1.3386   1.3420
     1.3465   1.3510   1.3524   1.3642   1.3786   1.3803   1.3820   1.3850
     1.4041   1.4053   1.4112   1.4148   1.4244   1.4264   1.4284   1.4308
     1.4328   1.4356   1.4365   1.4382   1.4407   1.4482   1.4495   1.4527
     1.4566   1.4586   1.4603   1.4655   1.4705   1.4731   1.4741   1.4761
     1.4781   1.4804   1.4846   1.4921   1.4939   1.4977   1.5232   1.5247
     1.5257   1.5273   1.5336   1.5360   1.5447   1.5480   1.5520   1.5526
     1.5549   1.5553   1.5572   1.5605   1.5621   1.5626   1.5644   1.5686
     1.5741   1.5789   1.6087   1.6099   1.6112   1.6131   1.6161   1.6173
     1.6185   1.6215   1.6218   1.6284   1.6295   1.6316   1.6362   1.6386
     1.6397   1.6495   1.6528   1.6546   1.6558   1.6574   1.6590   1.6615
     1.6625   1.6657   1.6725   1.6743   1.6749   1.6757   1.6786   1.6793
     1.6829   1.6845   1.6967   1.7174   1.7209   1.7217   1.7233   1.7280
     1.7283   1.7316   1.7331   1.7395   1.7421   1.7479   1.7505   1.7521
     1.7564   1.7588   1.7621   1.7636   1.7735   1.7756   1.7769   1.7841
     1.7871   1.8037   1.8047   1.8054   1.8096   1.8103   1.8161   1.8188
     1.8219   1.8261   1.8287   1.8318   1.8365   1.8457   1.8497   1.8683
     1.8779   1.8870   1.8890   1.8935   1.9202   1.9227   1.9254   1.9257
     1.9446   1.9592   2.2926   2.2992   2.3219   2.3461   2.4752   2.4997
     2.5409   2.5544   2.6028   2.6053   2.6062   2.6091   2.8056   2.8284
     2.8581   3.0392   3.1368   3.1398   3.1478   3.1904   3.4919   3.4964
     3.5044   3.5130   3.7565   3.7831   3.9430   3.9697   3.9982   4.0379
     4.1887   4.1942   4.2037   4.2405   4.2651   4.3202   4.3856   4.3867
     4.4149   4.4473   4.8031   4.8316   4.8644   5.0304   5.0361   5.0661
     5.1244   5.1407   5.1457   5.1619   5.2709   5.2835   5.3036   5.3175
     5.3252   5.3363   5.3400   5.3518   5.3628   5.3668   5.3901   5.4259
     5.6542   5.6625   5.6920   5.7164   5.7453   5.8014   5.8331   5.8566
     5.8935   5.8961   6.1306   6.1812   6.2036   6.2566   6.2678   6.2771
     6.3137   6.3262   6.4094   6.4108   6.4162   6.4511   6.5081   6.7074
     6.9758   7.0158   7.0397   7.0739   7.2583   7.2673   7.3098   7.3362
     7.3463   7.4438   7.7130   7.7567   7.7978   7.8241   7.8560   7.8596
     7.8663   7.9207   8.0122   8.0251   8.0533   8.0734   8.0865   8.1226
     8.1373   8.1549   8.1632   8.1705   8.2005   8.2544   8.2887   8.2939
     8.3416   8.5298   8.5424   8.5480   8.5848   8.6835   8.7136   8.7797
     9.0481   9.0617   9.0784   9.0825   9.1972   9.2063   9.2215   9.2314
     9.2347   9.2353   9.3112   9.3238   9.4855   9.5228   9.5674   9.5725
     9.6399   9.6460   9.6483   9.7135   9.7508   9.7914   9.8396   9.8777
     9.8982   9.9037   9.9353   9.9518

          k =-0.5000-0.2165 0.0000 (256328 PWs)   bands (ev):

   -15.2031 -15.1776 -15.1594 -15.1566 -14.4667 -14.4421 -14.4387 -14.4364
   -13.0405 -13.0185 -13.0132 -13.0110 -11.3937 -11.3723 -11.3450 -11.3432
   -11.0363 -10.9990 -10.9910 -10.9768 -10.7914 -10.7585 -10.7422 -10.7404
   -10.5905  -9.0746  -9.0708  -9.0681  -9.0658  -8.1530  -8.1496  -8.1401
    -8.1275  -7.3916  -7.3894  -7.3875  -7.3862  -5.3550  -5.3541  -5.3288
    -5.3260  -4.8672  -4.8596  -4.8366  -4.8318  -4.6778  -4.6750  -4.6700
    -4.6686  -4.3983  -4.3728  -4.3547  -4.3447  -4.1867  -3.9844  -3.8874
    -3.8616  -3.8477  -3.8369  -3.7969  -3.7844  -3.6529  -3.6432  -3.5415
    -3.5393  -3.5229  -3.5202  -3.4816  -3.2698  -3.2544  -3.2488  -3.0782
    -3.0745  -3.0699  -3.0672  -3.0403  -3.0370  -3.0054  -2.9715  -2.9162
    -2.9043  -2.8857  -2.8606  -2.8187  -2.4086  -2.4003  -2.3854  -2.2688
    -2.2595  -2.2545  -2.2515  -2.2469  -2.2315  -2.2045  -2.1956  -1.9666
    -1.7638  -1.7587  -1.7502  -1.7472  -1.7432  -1.7407  -1.7381  -1.7376
    -1.7344  -1.7256  -1.7030  -1.6040  -1.4863  -1.4772  -1.4712  -1.4633
    -1.4169  -1.4083  -1.3993  -1.3896  -1.2648  -1.2642  -1.2553  -1.2502
    -1.1865  -1.1784  -1.1752  -1.1720  -1.1638  -1.1627  -1.1600  -1.1176
    -1.1085  -1.1069  -1.1011  -1.0988  -1.0827  -1.0767  -1.0640  -1.0538
    -1.0512  -1.0491  -1.0438  -1.0430  -1.0309  -1.0243  -1.0241  -1.0193
    -0.9817  -0.9798  -0.9564  -0.9522  -0.9397  -0.9320  -0.9257  -0.8848
    -0.8801  -0.8745  -0.8684  -0.8557  -0.8492  -0.8396  -0.8240  -0.8214
    -0.8174  -0.8170  -0.8142  -0.8111  -0.8089  -0.8068  -0.7934  -0.7905
    -0.7884  -0.7866  -0.7828  -0.7709  -0.7579  -0.7513  -0.7475  -0.7388
    -0.7224  -0.7198  -0.7169  -0.7090  -0.7051  -0.6991  -0.6947  -0.6929
    -0.6906  -0.6888  -0.6880  -0.6437  -0.5501  -0.5489  -0.5400  -0.5356
    -0.5351  -0.5280  -0.5247  -0.5228  -0.4835  -0.4699  -0.4622  -0.4545
    -0.4529  -0.4496  -0.4439  -0.4401  -0.4316  -0.4294  -0.4263  -0.4205
    -0.4186  -0.4180  -0.4169  -0.4092  -0.3738  -0.3730  -0.3706  -0.3700
    -0.3656  -0.3584  -0.3473  -0.3432  -0.3419  -0.3380  -0.2939  -0.2914
    -0.2522  -0.2326  -0.2300  -0.2250  -0.2037  -0.1989  -0.1948  -0.1924
    -0.1715  -0.1689  -0.1634  -0.1614  -0.1247  -0.1234  -0.1202  -0.1172
    -0.1097  -0.0992  -0.0889  -0.0883  -0.0790  -0.0712  -0.0679  -0.0616
    -0.0595  -0.0424  -0.0414  -0.0354   0.0119   0.0156   0.0195   0.0291
     0.0335   0.0369   0.0530   0.0564   0.0724   0.0765   0.0801   0.0837
     0.0873   0.0886   0.0951   0.1002   0.1412   0.1447   0.1514   0.1553
     0.1584   0.1590   0.1602   0.1617   0.1701   0.1763   0.1777   0.1801
     0.1985   0.1994   0.2018   0.2035   0.2122   0.2140   0.2240   0.2302
     0.2313   0.2329   0.2428   0.2462   0.2504   0.2712   0.2928   0.2995
     0.3021   0.3029   0.3177   0.3494   0.3565   0.3768   0.3773   0.3782
     0.3799   0.3816   0.3866   0.3944   0.3978   0.4065   0.4069   0.4080
     0.4146   0.4200   0.4238   0.4261   0.4288   0.4329   0.4337   0.4380
     0.4402   0.4410   0.4432   0.4435   0.4464   0.4492   0.4505   0.4618
     0.4639   0.4739   0.4773   0.4878   0.4891   0.4950   0.4955   0.5027
     0.5090   0.5120   0.5154   0.5251   0.5291   0.5516   0.5563   0.5589
     0.5674   0.5715   0.5736   0.5810   0.5977   0.6108   0.6221   0.6333
     0.6345   0.6360   0.6598   0.6684   0.6785   0.6824   0.6910   0.6916
     0.6993   0.7176   0.7195   0.7201   0.7232   0.7362   0.7379   0.7442
     0.7515   0.7532   0.7677   0.7736   0.7773   0.7796   0.7819   0.7896
     0.7907   0.7935   0.7936   0.7957   0.7977   0.7982   0.8137   0.8185
     0.8229   0.8288   0.8295   0.8325   0.8377   0.8477   0.8597   0.8621
     0.8694   0.8742   0.8803   0.8820   0.8883   0.8916   0.8951   0.8964
     0.8999   0.9085   0.9089   0.9109   0.9320   0.9366   0.9388   0.9402
     0.9408   0.9432   0.9454   0.9474   0.9521   0.9534   0.9584   0.9622
     0.9694   0.9723   0.9866   0.9924   0.9964   0.9969   1.0008   1.0041
     1.0049   1.0064   1.0132   1.0218   1.0254   1.0272   1.0312   1.0416
     1.0467   1.0473   1.0486   1.0530   1.0561   1.0630   1.0644   1.0702
     1.0723   1.0753   1.0796   1.0885   1.0963   1.0995   1.1045   1.1102
     1.1306   1.1357   1.1374   1.1441   1.1547   1.1724   1.1746   1.1793
     1.1883   1.1892   1.1926   1.1942   1.2115   1.2239   1.2282   1.2361
     1.2432   1.2462   1.2490   1.2556   1.2603   1.2632   1.2675   1.2732
     1.2810   1.2853   1.2896   1.2960   1.3029   1.3122   1.3142   1.3169
     1.3236   1.3308   1.3380   1.3411   1.3463   1.3512   1.3518   1.3547
     1.3560   1.3578   1.3595   1.3609   1.3617   1.3637   1.3688   1.3724
     1.3748   1.3756   1.3793   1.3801   1.3832   1.3843   1.3900   1.3921
     1.3993   1.4019   1.4046   1.4060   1.4081   1.4165   1.4186   1.4233
     1.4305   1.4356   1.4399   1.4420   1.4469   1.4504   1.4544   1.4569
     1.4589   1.4607   1.4611   1.4697   1.5011   1.5087   1.5125   1.5138
     1.5168   1.5202   1.5217   1.5252   1.5262   1.5296   1.5308   1.5332
     1.5374   1.5419   1.5435   1.5442   1.5459   1.5470   1.5499   1.5861
     1.5928   1.5945   1.5955   1.5986   1.6003   1.6008   1.6046   1.6049
     1.6065   1.6085   1.6139   1.6175   1.6501   1.6519   1.6527   1.6544
     1.6592   1.6618   1.6688   1.6698   1.6711   1.6727   1.6759   1.6762
     1.6784   1.6790   1.6799   1.6818   1.6822   1.6848   1.6870   1.6899
     1.6940   1.6981   1.7050   1.7079   1.7099   1.7140   1.7156   1.7174
     1.7189   1.7212   1.7242   1.7271   1.7288   1.7299   1.7402   1.7502
     1.7548   1.7571   1.7587   1.7598   1.7657   1.7787   1.7802   1.7826
     1.7933   1.7960   1.7969   1.8175   1.8204   1.8209   1.8220   1.8263
     1.8480   1.8501   1.8517   1.8533   1.8837   1.8845   1.8899   1.8918
     1.8969   1.8978   1.9001   1.9089   1.9220   1.9239   1.9308   1.9364
     1.9399   1.9407   1.9424   2.0173   2.1426   2.1466   2.1543   2.1711
     2.5224   2.5263   2.6052   2.7134   2.8596   2.8625   2.8677   2.8942
     3.0552   3.0583   3.0843   3.0921   3.2786   3.3123   3.3409   3.5233
     3.7625   3.7685   3.7706   3.7747   3.9179   3.9213   3.9504   4.0046
[...]
     atom   73 type  1   force =    -0.00012524    0.00038167    0.00011996
     atom   74 type  1   force =     0.00081389   -0.00080722   -0.00000613
     atom   75 type  1   force =    -0.00032200   -0.00100584    0.00089924
     atom   76 type  1   force =    -0.00156477   -0.00081017   -0.00039101
     atom   77 type  1   force =     0.00048795   -0.00000832    0.00020384
     atom   78 type  1   force =     0.00045370    0.00011568    0.00072508
     atom   79 type  1   force =    -0.00040926   -0.00005019    0.00072421
     atom   80 type  1   force =    -0.00024065    0.00058703    0.00046351
     atom   81 type  1   force =     0.00046674    0.00013579   -0.00089388
     atom   82 type  1   force =    -0.00017245    0.00100039   -0.00004047
     atom   83 type  1   force =    -0.00050075    0.00090715   -0.00032029
     atom   84 type  1   force =    -0.00055816   -0.00101930    0.00011922
     atom   85 type  1   force =     0.00092358   -0.00054965    0.00153679
     atom   86 type  1   force =     0.00075499    0.00094852    0.00094334
     atom   87 type  1   force =     0.00009435    0.00123838   -0.00046668
     atom   88 type  1   force =    -0.00060318   -0.00042968    0.00059202
     atom   89 type  1   force =    -0.00098097    0.00003977    0.00172085
     atom   90 type  1   force =     0.00055502   -0.00065165    0.00095921
     atom   91 type  1   force =     0.00036481   -0.00223449    0.00437257
     atom   92 type  1   force =    -0.00024730    0.00106698    0.00092202
     atom   93 type  1   force =     0.00081125    0.00060366    0.00136643
     atom   94 type  1   force =    -0.00015802   -0.00113256   -0.00009075
     atom   95 type  1   force =     0.00030665   -0.00124133   -0.00040800
     atom   96 type  1   force =    -0.00076141    0.00101511    0.00013850
     atom   97 type  1   force =     0.00029427   -0.00007800   -0.00098637
     atom   98 type  1   force =     0.00004597    0.00002968   -0.00033913
     atom   99 type  1   force =    -0.00063804   -0.00086488   -0.00017009
     atom  100 type  1   force =     0.00016085    0.00009154   -0.00056387
     atom  101 type  2   force =     0.00025572    0.00113981   -0.00127438
     atom  102 type  2   force =    -0.00005399    0.00038891   -0.00201037
     atom  103 type  2   force =    -0.00039717   -0.00091653   -0.00182468
     atom  104 type  2   force =     0.00008861   -0.00091783   -0.00002789
     atom  105 type  2   force =     0.00044879    0.00036503   -0.00004681
     atom  106 type  2   force =     0.00038443   -0.00041053    0.00176472
     atom  107 type  2   force =     0.00002762   -0.00054921   -0.00297691
     atom  108 type  2   force =    -0.00039013   -0.00102807    0.00112884
     atom  109 type  2   force =    -0.00030235    0.00051900   -0.00281852
     atom  110 type  2   force =    -0.00024168   -0.00013310    0.00035290
     atom  111 type  2   force =     0.00034715   -0.00022833    0.00004833
     atom  112 type  2   force =     0.00022352   -0.00104634   -0.00003117
     atom  113 type  2   force =    -0.00052608   -0.00012979   -0.00213486
     atom  114 type  2   force =     0.00121767   -0.00076490   -0.00089577
     atom  115 type  2   force =     0.00070011    0.00074149    0.00166401
     atom  116 type  2   force =    -0.00130896    0.00063138    0.00160867
     atom  117 type  2   force =    -0.00130760   -0.00073615    0.00176541
     atom  118 type  2   force =     0.00089332    0.00009634    0.00146364
     atom  119 type  2   force =     0.00036359    0.00048044    0.00116512
     atom  120 type  2   force =    -0.00074751   -0.00038041    0.00166011
     atom  121 type  2   force =    -0.00023832   -0.00037901    0.00091564
     atom  122 type  2   force =     0.00121902   -0.00039332    0.00136472
     atom  123 type  2   force =    -0.00037691    0.00013572   -0.00160509
     atom  124 type  2   force =    -0.00131694    0.00064676   -0.00100627
     atom  125 type  2   force =     0.00011342    0.00037253   -0.00129365
     atom  126 type  2   force =    -0.00018306    0.00061805    0.00066655
     atom  127 type  2   force =     0.00049092    0.00016582    0.00076106
     atom  128 type  2   force =     0.00052789    0.00047354    0.00009256
     atom  129 type  2   force =    -0.00003054   -0.00080468    0.00051522
     atom  130 type  2   force =     0.00033343    0.00079953   -0.00022144
     atom  131 type  2   force =     0.00107433    0.00126914    0.00176740
     atom  132 type  2   force =    -0.00026486    0.00055338    0.00099372
     atom  133 type  2   force =    -0.00068416   -0.00100788    0.00123895
     atom  134 type  2   force =    -0.00006464    0.00091619   -0.00053307
     atom  135 type  2   force =     0.00078123    0.00020235   -0.00231434
     atom  136 type  2   force =     0.00013008   -0.00015521   -0.00141468
     atom  137 type  2   force =    -0.00020076    0.00006733    0.00011053
     atom  138 type  2   force =    -0.00033991   -0.00014814    0.00100389
     atom  139 type  2   force =     0.00020709   -0.00004998   -0.00261275
     atom  140 type  2   force =    -0.00018897    0.00074214   -0.00141372
     atom  141 type  2   force =    -0.00038778    0.00059742   -0.00329938
     atom  142 type  2   force =    -0.00050012   -0.00017748   -0.00217989
     atom  143 type  2   force =    -0.00013166   -0.00022623   -0.00036811
     atom  144 type  2   force =     0.00031081    0.00038341   -0.00200373
     atom  145 type  2   force =     0.00028210    0.00071106   -0.00193345
     atom  146 type  2   force =    -0.00013457   -0.00046131   -0.00153243
     atom  147 type  2   force =    -0.00045011   -0.00066001   -0.00078374
     atom  148 type  2   force =     0.00006577    0.00069730    0.00140525
     atom  149 type  3   force =     0.00171959   -0.00053681    0.00512947
     atom  150 type  2   force =     0.00093932    0.00014469    0.00426651
     atom  151 type  3   force =    -0.00320868   -0.00132114   -0.00481944
     atom  152 type  3   force =     0.00096550    0.00094778   -0.00233594
     atom  153 type  3   force =     0.00060418   -0.00278974   -0.00348336

     Total force =     0.020384     Total SCF correction =     0.000224

     number of scf cycles    =  14
     number of bfgs steps    =  13

     energy   old            =  -12714.8096224542 Ry
     energy   new            =  -12714.8101568556 Ry

     CASE: energy  _new < energy  _old

     new trust radius        =       0.0493420045 bohr
     new conv_thr            =       0.0000000100 Ry


ATOMIC_POSITIONS (angstrom)
Cu       0.004384012  -0.028378650   7.327069903
Cu       1.853098882   1.656014660   7.335554657
Cu       3.694799958  -0.032984412   7.328756085
Cu       5.537397087   1.656685763   7.334421378
Cu       0.006257247   3.365913220   7.345912275
Cu       1.849524971   5.091457531   7.360822404
Cu       3.695406050   3.367365074   7.345833290
Cu       5.540642656   5.090375371   7.357760858
Cu       0.007839739   6.816610789   7.361881404
Cu       1.849008515   8.543760753   7.356152295
Cu       3.694229206   6.816650513   7.365302887
Cu       5.540802050   8.544282623   7.353867832
Cu       0.005620444  10.272752369   7.338428983
Cu       1.852870286  11.985446345   7.327298455
Cu       3.695635727  10.272165202   7.338443388
Cu       5.537015349  11.986136906   7.325529953
Cu       0.004723937  13.671332363   7.321645981
Cu       1.846483219  15.341616385   7.320178127
Cu       3.694081322  13.674983200   7.321895050
Cu       5.540441158  15.340212049   7.323502520
Cu       0.006224087   1.643025196   9.178175616
Cu       1.850423592  -0.039455072   9.188576095
Cu       3.695671723   1.646097000   9.176544100
Cu       5.538335172  -0.034897437   9.192814436
Cu       0.006263046   5.077200462   9.169431044
Cu       1.851287170   3.348120556   9.166612061
Cu       3.699729778   5.075434442   9.168639081
Cu       5.541523972   3.349843373   9.169540387
Cu       0.006541150   8.563951698   9.162182790
Cu       1.847916551   6.820230233   9.173283596
Cu       3.698598720   8.564822024   9.162047356
Cu       5.544040209   6.819352824   9.165435053
Cu       0.006078023  11.996961251   9.169220292
Cu       1.850913691  10.292385906   9.156975919
Cu       3.695140693  11.996395618   9.167489931
Cu       5.541105708  10.291912181   9.158528341
Cu       0.002063344  15.338760566   9.202317547
Cu       1.849521087  13.678860955   9.182605377
Cu       3.696054074  15.336611720   9.197261882
Cu       5.538608944  13.672725653   9.189371266
Cu       0.003616936  -0.035887315  11.076627929
Cu       1.851512473   1.633445699  11.029308755
Cu       3.695406671  -0.040650305  11.065809207
Cu       5.538756233   1.640912093  11.039075633
Cu       0.006535756   3.335653222  11.000501146
Cu       1.851142407   5.067314643  10.968128399
Cu       3.700489228   3.333926043  10.996141337
Cu       5.544420491   5.069665496  10.976076732
Cu       0.001844247   6.824990032  10.966045478
Cu       1.848869207   8.579279909  10.963698243
Cu       3.696226411   6.823508999  10.961596578
Cu       5.544934561   8.579086183  10.966553260
Cu       0.006170167  10.308074506  10.992461973
Cu       1.850707660  12.007011260  11.020949043
Cu       3.699921336  10.313858107  10.983696821
Cu       5.539984594  11.996193340  11.035343980
Cu       0.003229010  13.670069512  11.074996056
Cu       1.847489691  15.336019869  11.088781461
Cu       3.696310250  13.673896596  11.067760619
Cu       5.540911535  15.336535649  11.090125887
Cu       0.003788995   1.658848465  12.910150547
Cu       1.845763672  -0.023859673  12.960690524
Cu       3.699913874   1.643645534  12.899079910
Cu       5.543578845  -0.022690867  12.965384481
Cu       0.000158264   5.069262398  12.763381675
Cu       1.852641241   3.327176917  12.815367328
Cu       3.697269792   5.071135344  12.764924863
Cu       5.540634615   3.348119587  12.839936666
Cu      -0.002589558   8.584975612  12.765240455
Cu       1.839325876   6.828288080  12.736543331
Cu       3.697101726   8.592038698  12.750374596
Cu       5.534232524   6.833102401  12.752647893
Cu       0.003529351  11.979150566  12.913889063
Cu       1.848501705  10.321339854  12.810518991
Cu       3.701981400  11.984295949  12.905344227
Cu       5.544116052  10.293409137  12.845490866
Cu       0.003498418  15.334222302  12.990663715
Cu       1.847611216  13.655541187  12.959406559
Cu       3.696493212  15.337290754  12.974054581
Cu       5.543819777  13.655328293  12.965595008
Cu       0.006502368   0.019204319  14.834206100
Cu       1.859107857   1.713469611  14.768035808
Cu       3.696297515  -0.001844132  14.828427754
Cu       5.532559076   1.711315146  14.775639362
Cu      -0.009180528   3.396054030  14.687726827
Cu       1.805792009   5.061969398  14.496220277
Cu       3.703847552   3.401361564  14.655940322
Cu       5.571605907   5.111082997  14.566270823
Cu       0.001357461   6.831291518  14.530428922
Cu       1.806783493   8.595815877  14.503360152
Cu       3.710769125   6.878750542  14.384873497
Cu       5.567716956   8.541703287  14.599463662
Cu      -0.006144223  10.247284829  14.701266612
Cu       1.859756507  11.927906337  14.774417734
Cu       3.696513791  10.224590394  14.679717094
Cu       5.530976228  11.922390778  14.782601782
Cu       0.004082101  13.615778853  14.843804731
Cu       1.843028557  15.333966547  14.847416901
Cu       3.700425105  13.636454094  14.823315738
Cu       5.547213591  15.337383170  14.853876816
C       -0.002306265   0.742473925  18.253637767
C       -0.002785417   2.154637564  18.505256114
C        1.227696544   0.026771829  18.165309955
C        1.227340955   2.859460528  18.657344448
C        2.456580200   0.742713305  18.254457690
C        2.456816198   2.155564603  18.502578004
C        3.686973893   0.026782816  18.169587033
C        3.685214499   2.861812741  18.654117854
C        4.916959571   0.742930283  18.255322587
C        4.915720705   2.157340861  18.495425421
C        6.146034568   0.027721546  18.155949010
C        6.145412279   2.861498187  18.644452916
C       -0.003554491   4.968696697  19.073786763
C       -0.001821697   6.393209531  19.204731148
C        1.228464921   4.259234120  18.970087056
C        1.228111557   7.111053347  19.250377210
C        2.454421249   4.962667698  19.158066719
C        2.452877756   6.388458466  19.358471454
C        3.684266593   4.259627857  18.982476457
C        3.688277887   7.119252694  19.345058608
C        4.915095792   4.971130779  19.090845379
C        4.918079258   6.394794818  19.262386352
C        6.144755920   4.263985920  18.937963065
C        6.146486933   7.112962935  19.201353700
C       -0.000543737   9.239194148  18.908610667
C       -0.000924737  10.641331151  18.611068911
C        1.229423996   8.533647913  19.065362547
C        1.229012300  11.347664576  18.474186456
C        2.458852645   9.245116879  18.954952984
C        2.459023618  10.644157993  18.637913588
C        3.688321529   8.541466832  19.123378756
C        3.687588102  11.349952969  18.490810445
C        4.916188426   9.244272061  18.940617664
C        4.917148425  10.644547257  18.633068307
C        6.147690135   8.536004432  19.050736720
C        6.147198022  11.348607397  18.473236614
C       -0.000768866  13.477974804  18.136762679
C       -0.001118642  14.911866930  18.052940116
C        1.229409356  12.762660924  18.241243002
C        1.228240948  15.632978005  18.070197862
C        2.458354783  13.479473802  18.169560726
C        2.458363443  14.911947893  18.079438613
C        3.687970263  12.763635247  18.250914583
C        3.687440920  15.633497280  18.082590622
C        4.917334311  13.479239001  18.157230127
C        4.916934881  14.912216183  18.070034172
C        6.146524184  12.762019235  18.229969709
C        6.146627144  15.633470014  18.053323411
H        3.280748133   6.666680231  17.536513169
C        2.928201456   6.536467819  16.524452799
H        3.955232586   6.443826939  16.070250052
H        2.343683323   5.601559417  16.489107570
H        2.325875060   7.434476273  16.318392700



     Writing output data file gc.save
     Check: negative starting charge=   -0.001555
     NEW-OLD atomic charge density approx. for the potential
     Check: negative starting charge=   -0.001555

     negative rho (up, down):  1.536E-03 0.000E+00

     total cpu time spent up to now is    52350.9 secs

     Self-consistent Calculation

     iteration #  1     ecut=    80.00 Ry     beta=0.70
     Davidson diagonalization with overlap
     ethr =  1.00E-06,  avg # of iterations =  6.2

     negative rho (up, down):  1.184E-03 0.000E+00

     total cpu time spent up to now is    52858.0 secs

     total energy              =  -12714.80911095 Ry
     Harris-Foulkes estimate   =  -12714.82098923 Ry
     estimated scf accuracy    <       0.10524241 Ry

     iteration #  2     ecut=    80.00 Ry     beta=0.70
     Davidson diagonalization with overlap
     ethr =  8.10E-06,  avg # of iterations =  2.2

     negative rho (up, down):  1.112E-03 0.000E+00

     total cpu time spent up to now is    53052.5 secs

     total energy              =  -12714.80916551 Ry
     Harris-Foulkes estimate   =  -12714.81420728 Ry
     estimated scf accuracy    <       0.02026419 Ry

     iteration #  3     ecut=    80.00 Ry     beta=0.70
     Davidson diagonalization with overlap
     ethr =  1.56E-06,  avg # of iterations =  3.3

     negative rho (up, down):  1.019E-03 0.000E+00

     total cpu time spent up to now is    53271.6 secs

     total energy              =  -12714.80979033 Ry
     Harris-Foulkes estimate   =  -12714.81266473 Ry
     estimated scf accuracy    <       0.02827252 Ry

     iteration #  4     ecut=    80.00 Ry     beta=0.70
     Davidson diagonalization with overlap
     ethr =  1.56E-06,  avg # of iterations =  3.3

     negative rho (up, down):  9.415E-04 0.000E+00

     total cpu time spent up to now is    53482.6 secs

     total energy              =  -12714.81104070 Ry
     Harris-Foulkes estimate   =  -12714.81113531 Ry
     estimated scf accuracy    <       0.00176983 Ry

     iteration #  5     ecut=    80.00 Ry     beta=0.70
     Davidson diagonalization with overlap
     ethr =  1.36E-07,  avg # of iterations =  2.8

     negative rho (up, down):  8.461E-04 0.000E+00

     total cpu time spent up to now is    53682.1 secs

     total energy              =  -12714.81101342 Ry
     Harris-Foulkes estimate   =  -12714.81110761 Ry
     estimated scf accuracy    <       0.00109644 Ry

     iteration #  6     ecut=    80.00 Ry     beta=0.70
     Davidson diagonalization with overlap
     ethr =  8.43E-08,  avg # of iterations =  2.5

     negative rho (up, down):  9.167E-04 0.000E+00

     total cpu time spent up to now is    53880.5 secs

     total energy              =  -12714.81104602 Ry
     Harris-Foulkes estimate   =  -12714.81105713 Ry
     estimated scf accuracy    <       0.00022851 Ry

     iteration #  7     ecut=    80.00 Ry     beta=0.70
     Davidson diagonalization with overlap
     ethr =  1.76E-08,  avg # of iterations =  2.5

     negative rho (up, down):  1.044E-03 0.000E+00

     total cpu time spent up to now is    54077.5 secs

     total energy              =  -12714.81105762 Ry
     Harris-Foulkes estimate   =  -12714.81105864 Ry
     estimated scf accuracy    <       0.00004489 Ry

     iteration #  8     ecut=    80.00 Ry     beta=0.70
     Davidson diagonalization with overlap
     ethr =  3.45E-09,  avg # of iterations =  2.8

     negative rho (up, down):  1.193E-03 0.000E+00

     total cpu time spent up to now is    54277.2 secs

     total energy              =  -12714.81106001 Ry
     Harris-Foulkes estimate   =  -12714.81106169 Ry
     estimated scf accuracy    <       0.00001915 Ry

     iteration #  9     ecut=    80.00 Ry     beta=0.70
     Davidson diagonalization with overlap
     ethr =  1.47E-09,  avg # of iterations =  2.0

     negative rho (up, down):  1.324E-03 0.000E+00

     total cpu time spent up to now is    54465.0 secs

     total energy              =  -12714.81106056 Ry
     Harris-Foulkes estimate   =  -12714.81106126 Ry
     estimated scf accuracy    <       0.00000710 Ry

     iteration # 10     ecut=    80.00 Ry     beta=0.70
     Davidson diagonalization with overlap
     ethr =  5.46E-10,  avg # of iterations =  2.0

     negative rho (up, down):  1.385E-03 0.000E+00

     total cpu time spent up to now is    54655.4 secs

     total energy              =  -12714.81106086 Ry
     Harris-Foulkes estimate   =  -12714.81106104 Ry
     estimated scf accuracy    <       0.00000141 Ry

     iteration # 11     ecut=    80.00 Ry     beta=0.70
     Davidson diagonalization with overlap
     ethr =  1.08E-10,  avg # of iterations =  2.0

     negative rho (up, down):  1.453E-03 0.000E+00

     total cpu time spent up to now is    54854.8 secs

     total energy              =  -12714.81106080 Ry
     Harris-Foulkes estimate   =  -12714.81106104 Ry
     estimated scf accuracy    <       0.00000093 Ry

     iteration # 12     ecut=    80.00 Ry     beta=0.70
     Davidson diagonalization with overlap
     ethr =  7.16E-11,  avg # of iterations =  2.0

     negative rho (up, down):  1.491E-03 0.000E+00

     total cpu time spent up to now is    55045.6 secs

     total energy              =  -12714.81106077 Ry
     Harris-Foulkes estimate   =  -12714.81106087 Ry
     estimated scf accuracy    <       0.00000054 Ry

     iteration # 13     ecut=    80.00 Ry     beta=0.70
     Davidson diagonalization with overlap
     ethr =  4.15E-11,  avg # of iterations =  2.0

     negative rho (up, down):  1.503E-03 0.000E+00

     total cpu time spent up to now is    55241.0 secs

     total energy              =  -12714.81106074 Ry
     Harris-Foulkes estimate   =  -12714.81106079 Ry
     estimated scf accuracy    <       0.00000012 Ry

     iteration # 14     ecut=    80.00 Ry     beta=0.70
     Davidson diagonalization with overlap
