
     Program PWSCF v.5.4.0 starts on  1May2017 at  9: 3:21 

     This program is part of the open-source Quantum ESPRESSO suite
     for quantum simulation of materials; please cite
         "P. Giannozzi et al., J. Phys.:Condens. Matter 21 395502 (2009);
          URL http://www.quantum-espresso.org", 
     in publications or presentations arising from this work. More details at
     http://www.quantum-espresso.org/quote

     Parallel version (MPI & OpenMP), running on      56 processor cores
     Number of MPI processes:                56
     Threads/MPI process:                     1
     R & G space division:  proc/nbgrp/npool/nimage =      56
     Waiting for input...
     Reading input from standard input
Warning: card &IONS ignored
Warning: card / ignored

     Current dimensions of program PWSCF are:
     Max number of different atomic species (ntypx) = 10
     Max number of k-points (npk) =  40000
     Max angular momentum in pseudopotentials (lmaxx) =  3

     -------------------------------------
     Parameters for Dispersion Correction:
     -------------------------------------
       atom      VdW radius       C_6     

        Cu         2.952        374.666
        C_h        2.744         60.710
        C          2.744         60.710
        H          1.892          4.857

     Subspace diagonalization in iterative solution of the eigenvalue problem:
     one sub-group per band group will be used
     scalapack distributed-memory algorithm (size of sub-group:  5*  5 procs)

 
     Parallelization info
     --------------------
     sticks:   dense  smooth     PW     G-vecs:    dense   smooth      PW
     Min         204     204     54                36612    36612    4962
     Max         205     205     55                36617    36617    4968
     Sum       11433   11433   3039              2050409  2050409  278033
 


     bravais-lattice index     =            0
     lattice parameter (alat)  =      13.9425  a.u.
     unit-cell volume          =   21209.0878 (a.u.)^3
     number of atoms/cell      =          153
     number of atomic types    =            4
     number of electrons       =      1300.00
     number of Kohn-Sham states=          780
     kinetic-energy cutoff     =      80.0000  Ry
     charge density cutoff     =     320.0000  Ry
     convergence threshold     =      1.0E-08
     mixing beta               =       0.7000
     number of iterations used =            8  local-TF  mixing
     Exchange-correlation      =  SLA  PW   PBE  PBE ( 1  4  3  4 0 0)

     celldm(1)=  13.942539  celldm(2)=   0.000000  celldm(3)=   0.000000
     celldm(4)=   0.000000  celldm(5)=   0.000000  celldm(6)=   0.000000

     crystal axes: (cart. coord. in units of alat)
               a(1) = (   1.000000   0.000000   0.000000 )  
               a(2) = (   0.000000   2.309401   0.000000 )  
               a(3) = (   0.000000   0.000000   3.388418 )  

     reciprocal axes: (cart. coord. in units 2 pi/alat)
               b(1) = (  1.000000  0.000000  0.000000 )  
               b(2) = (  0.000000  0.433013  0.000000 )  
               b(3) = (  0.000000  0.000000  0.295123 )  


     PseudoPot. # 1 for Cu read from file:
     /home/549/hxw549/Short/pseudopotentials/Cu.pbe-n-van_ak.UPF
     MD5 check sum: 601f7c30f7467666bec936e0661ce3e1
     Pseudo is Ultrasoft + core correction, Zval = 11.0
     Generated by new atomic code, or converted to UPF format
     Using radial grid of  867 points,  6 beta functions with: 
                l(1) =   0
                l(2) =   0
                l(3) =   1
                l(4) =   1
                l(5) =   2
                l(6) =   2
     Q(r) pseudized with  8 coefficients,  rinner =    1.400   1.400   1.400
                                                       1.400   1.400

     PseudoPot. # 2 for C  read from file:
     /home/549/hxw549/Short/pseudopotentials/C.star1s-pbe-mt_gipaw.UPF
     MD5 check sum: ef0cb3dee31bd9e4ba2a832a2c716264
     Pseudo is Norm-conserving, Zval =  5.0
     Generated by new atomic code, or converted to UPF format
     Using radial grid of 1073 points,  1 beta functions with: 
                l(1) =   0

     PseudoPot. # 3 for C  read from file:
     /home/549/hxw549/Short/pseudopotentials/C.pbe-mt_gipaw.UPF
     MD5 check sum: 5ac2f21f2c440b14befe521540822c15
     Pseudo is Norm-conserving, Zval =  4.0
     Generated by new atomic code, or converted to UPF format
     Using radial grid of 1073 points,  1 beta functions with: 
                l(1) =   0

     PseudoPot. # 4 for H  read from file:
     /home/549/hxw549/Short/pseudopotentials/H.pbe-van_ak.UPF
     MD5 check sum: 077eb6d537518a38cb46c6de387227b7
     Pseudo is Ultrasoft, Zval =  1.0
     Generated by new atomic code, or converted to UPF format
     Using radial grid of  615 points,  1 beta functions with: 
                l(1) =   0
     Q(r) pseudized with  8 coefficients,  rinner =    0.800

     atomic species   valence    mass     pseudopotential
        Cu            11.00    63.54600     Cu( 1.00)
        C_h            5.00    12.01070     C ( 1.00)
        C              4.00    12.01070     C ( 1.00)
        H              1.00     1.00783     H ( 1.00)

     No symmetry found



   Cartesian axes

     site n.     atom                  positions (alat units)
         1           Cu  tau(   1) = (   0.0005942  -0.0038463   0.9930871  )
         2           Cu  tau(   2) = (   0.2511630   0.2244508   0.9942371  )
         3           Cu  tau(   3) = (   0.5007811  -0.0044706   0.9933156  )
         4           Cu  tau(   4) = (   0.7505207   0.2245418   0.9940835  )
         5           Cu  tau(   5) = (   0.0008481   0.4562049   0.9956409  )
         6           Cu  tau(   6) = (   0.2506786   0.6900795   0.9976618  )
         7           Cu  tau(   7) = (   0.5008632   0.4564016   0.9956302  )
         8           Cu  tau(   8) = (   0.7509606   0.6899328   0.9972468  )
         9           Cu  tau(   9) = (   0.0010626   0.9239011   0.9978053  )
        10           Cu  tau(  10) = (   0.2506086   1.1579934   0.9970288  )
        11           Cu  tau(  11) = (   0.5007037   0.9239065   0.9982690  )
        12           Cu  tau(  12) = (   0.7509822   1.1580641   0.9967192  )
        13           Cu  tau(  13) = (   0.0007618   1.3923352   0.9946266  )
        14           Cu  tau(  14) = (   0.2511320   1.6244682   0.9931181  )
        15           Cu  tau(  15) = (   0.5008944   1.3922557   0.9946286  )
        16           Cu  tau(  16) = (   0.7504689   1.6245618   0.9928784  )
        17           Cu  tau(  17) = (   0.0006403   1.8529676   0.9923519  )
        18           Cu  tau(  18) = (   0.2502663   2.0793525   0.9921530  )
        19           Cu  tau(  19) = (   0.5006837   1.8534625   0.9923857  )
        20           Cu  tau(  20) = (   0.7509333   2.0791621   0.9926036  )
        21           Cu  tau(  21) = (   0.0008436   0.2226903   1.2439799  )
        22           Cu  tau(  22) = (   0.2508004  -0.0053476   1.2453895  )
        23           Cu  tau(  23) = (   0.5008992   0.2231066   1.2437588  )
        24           Cu  tau(  24) = (   0.7506478  -0.0047299   1.2459640  )
        25           Cu  tau(  25) = (   0.0008489   0.6881471   1.2427947  )
        26           Cu  tau(  26) = (   0.2509174   0.4537933   1.2424126  )
        27           Cu  tau(  27) = (   0.5014493   0.6879078   1.2426873  )
        28           Cu  tau(  28) = (   0.7510800   0.4540268   1.2428095  )
        29           Cu  tau(  29) = (   0.0008866   1.1607300   1.2418123  )
        30           Cu  tau(  30) = (   0.2504606   0.9243917   1.2433168  )
        31           Cu  tau(  31) = (   0.5012960   1.1608479   1.2417939  )
        32           Cu  tau(  32) = (   0.7514211   0.9242728   1.2422531  )
        33           Cu  tau(  33) = (   0.0008238   1.6260289   1.2427661  )
        34           Cu  tau(  34) = (   0.2508668   1.3949963   1.2411065  )
        35           Cu  tau(  35) = (   0.5008273   1.6259522   1.2425316  )
        36           Cu  tau(  36) = (   0.7510233   1.3949321   1.2413170  )
        37           Cu  tau(  37) = (   0.0002797   2.0789654   1.2472520  )
        38           Cu  tau(  38) = (   0.2506780   1.8539880   1.2445803  )
        39           Cu  tau(  39) = (   0.5009511   2.0786742   1.2465668  )
        40           Cu  tau(  40) = (   0.7506849   1.8531565   1.2454973  )
        41           Cu  tau(  41) = (   0.0004902  -0.0048640   1.5012899  )
        42           Cu  tau(  42) = (   0.2509479   0.2213919   1.4948764  )
        43           Cu  tau(  43) = (   0.5008633  -0.0055096   1.4998236  )
        44           Cu  tau(  44) = (   0.7507049   0.2224039   1.4962002  )
        45           Cu  tau(  45) = (   0.0008858   0.4521035   1.4909719  )
        46           Cu  tau(  46) = (   0.2508978   0.6868072   1.4865842  )
        47           Cu  tau(  47) = (   0.5015522   0.4518694   1.4903810  )
        48           Cu  tau(  48) = (   0.7514726   0.6871259   1.4876615  )
        49           Cu  tau(  49) = (   0.0002500   0.9250368   1.4863019  )
        50           Cu  tau(  50) = (   0.2505897   1.1628075   1.4859838  )
        51           Cu  tau(  51) = (   0.5009744   0.9248361   1.4856989  )
        52           Cu  tau(  52) = (   0.7515423   1.1627813   1.4863707  )
        53           Cu  tau(  53) = (   0.0008363   1.3971227   1.4898823  )
        54           Cu  tau(  54) = (   0.2508389   1.6273910   1.4937434  )
        55           Cu  tau(  55) = (   0.5014752   1.3979066   1.4886943  )
        56           Cu  tau(  56) = (   0.7508714   1.6259248   1.4956944  )
        57           Cu  tau(  57) = (   0.0004376   1.8527965   1.5010687  )
        58           Cu  tau(  58) = (   0.2504027   2.0785939   1.5029371  )
        59           Cu  tau(  59) = (   0.5009858   1.8533152   1.5000881  )
        60           Cu  tau(  60) = (   0.7509970   2.0786638   1.5031194  )
        61           Cu  tau(  61) = (   0.0005135   0.2248349   1.7497996  )
        62           Cu  tau(  62) = (   0.2501688  -0.0032339   1.7566496  )
        63           Cu  tau(  63) = (   0.5014742   0.2227743   1.7482991  )
        64           Cu  tau(  64) = (   0.7513585  -0.0030754   1.7572858  )
        65           Cu  tau(  65) = (   0.0000215   0.6870712   1.7299070  )
        66           Cu  tau(  66) = (   0.2511009   0.4509547   1.7369529  )
        67           Cu  tau(  67) = (   0.5011158   0.6873251   1.7301161  )
        68           Cu  tau(  68) = (   0.7509595   0.4537932   1.7402830  )
        69           Cu  tau(  69) = (  -0.0003510   1.1635795   1.7301589  )
        70           Cu  tau(  70) = (   0.2492962   0.9254838   1.7262694  )
        71           Cu  tau(  71) = (   0.5010931   1.1645368   1.7281440  )
        72           Cu  tau(  72) = (   0.7500918   0.9261363   1.7284522  )
        73           Cu  tau(  73) = (   0.0004784   1.6236149   1.7503063  )
        74           Cu  tau(  74) = (   0.2505399   1.3989206   1.7362958  )
        75           Cu  tau(  75) = (   0.5017544   1.6243122   1.7491481  )
        76           Cu  tau(  76) = (   0.7514313   1.3951350   1.7410358  )
        77           Cu  tau(  77) = (   0.0004742   2.0783503   1.7607120  )
        78           Cu  tau(  78) = (   0.2504192   1.8508274   1.7564756  )
        79           Cu  tau(  79) = (   0.5010106   2.0787662   1.7584609  )
        80           Cu  tau(  80) = (   0.7513912   1.8507985   1.7573143  )
        81           Cu  tau(  81) = (   0.0008813   0.0026029   2.0105797  )
        82           Cu  tau(  82) = (   0.2519774   0.2322381   2.0016112  )
        83           Cu  tau(  83) = (   0.5009841  -0.0002499   2.0097966  )
        84           Cu  tau(  84) = (   0.7498649   0.2319461   2.0026418  )
        85           Cu  tau(  85) = (  -0.0012443   0.4602900   1.9907264  )
        86           Cu  tau(  86) = (   0.2447511   0.6860828   1.9647703  )
        87           Cu  tau(  87) = (   0.5020074   0.4610094   1.9864182  )
        88           Cu  tau(  88) = (   0.7551572   0.6927395   1.9742647  )
        89           Cu  tau(  89) = (   0.0001840   0.9258909   1.9694068  )
        90           Cu  tau(  90) = (   0.2448855   1.1650488   1.9657380  )
        91           Cu  tau(  91) = (   0.5029455   0.9323233   1.9496787  )
        92           Cu  tau(  92) = (   0.7546301   1.1577145   1.9787635  )
        93           Cu  tau(  93) = (  -0.0008328   1.3888834   1.9925616  )
        94           Cu  tau(  94) = (   0.2520653   1.6166694   2.0024762  )
        95           Cu  tau(  95) = (   0.5010134   1.3858075   1.9896408  )
        96           Cu  tau(  96) = (   0.7496504   1.6159218   2.0035855  )
        97           Cu  tau(  97) = (   0.0005533   1.8454381   2.0118807  )
        98           Cu  tau(  98) = (   0.2497981   2.0783156   2.0123703  )
        99           Cu  tau(  99) = (   0.5015435   1.8482404   2.0091037  )
       100           Cu  tau( 100) = (   0.7518512   2.0787787   2.0132458  )
       101           C   tau( 101) = (  -0.0003126   0.1006325   2.4740383  )
       102           C   tau( 102) = (  -0.0003775   0.2920325   2.5081418  )
       103           C   tau( 103) = (   0.1663980   0.0036286   2.4620667  )
       104           C   tau( 104) = (   0.1663498   0.3875619   2.5287554  )
       105           C   tau( 105) = (   0.3329568   0.1006649   2.4741495  )
       106           C   tau( 106) = (   0.3329888   0.2921582   2.5077789  )
       107           C_h tau( 107) = (   0.4997204   0.0036301   2.4626464  )
       108           C   tau( 108) = (   0.4994819   0.3878807   2.5283181  )
       109           C   tau( 109) = (   0.6664286   0.1006943   2.4742667  )
       110           C   tau( 110) = (   0.6662607   0.2923989   2.5068094  )
       111           C   tau( 111) = (   0.8330134   0.0037573   2.4607979  )
       112           C   tau( 112) = (   0.8329291   0.3878381   2.5270081  )
       113           C   tau( 113) = (  -0.0004818   0.6734409   2.5851986  )
       114           C   tau( 114) = (  -0.0002469   0.8665147   2.6029464  )
       115           C   tau( 115) = (   0.1665021   0.5772827   2.5711435  )
       116           C   tau( 116) = (   0.1664542   0.9638089   2.6091331  )
       117           C   tau( 117) = (   0.3326642   0.6726237   2.5966217  )
       118           C   tau( 118) = (   0.3324550   0.8658708   2.6237839  )
       119           C   tau( 119) = (   0.4993534   0.5773360   2.5728227  )
       120           C   tau( 120) = (   0.4998971   0.9649202   2.6219659  )
       121           C   tau( 121) = (   0.6661760   0.6737708   2.5875107  )
       122           C   tau( 122) = (   0.6665804   0.8667296   2.6107608  )
       123           C   tau( 123) = (   0.8328401   0.5779267   2.5667895  )
       124           C   tau( 124) = (   0.8330747   0.9640677   2.6024886  )
       125           C   tau( 125) = (  -0.0000737   1.2522501   2.5628112  )
       126           C   tau( 126) = (  -0.0001253   1.4422912   2.5224834  )
       127           C   tau( 127) = (   0.1666321   1.1566227   2.5840568  )
       128           C   tau( 128) = (   0.1665763   1.5380253   2.5039308  )
       129           C   tau( 129) = (   0.3332648   1.2530529   2.5690923  )
       130           C   tau( 130) = (   0.3332880   1.4426743   2.5261218  )
       131           C   tau( 131) = (   0.4999030   1.1576825   2.5919202  )
       132           C   tau( 132) = (   0.4998036   1.5383355   2.5061839  )
       133           C   tau( 133) = (   0.6663241   1.2529384   2.5671493  )
       134           C   tau( 134) = (   0.6664542   1.4427271   2.5254651  )
       135           C   tau( 135) = (   0.8332378   1.1569421   2.5820745  )
       136           C   tau( 136) = (   0.8331711   1.5381531   2.5038020  )
       137           C   tau( 137) = (  -0.0001042   1.8267606   2.4581975  )
       138           C   tau( 138) = (  -0.0001516   2.0211056   2.4468364  )
       139           C   tau( 139) = (   0.1666301   1.7298093   2.4723584  )
       140           C   tau( 140) = (   0.1664718   2.1188427   2.4491755  )
       141           C   tau( 141) = (   0.3331974   1.8269638   2.4626428  )
       142           C   tau( 142) = (   0.3331985   2.0211166   2.4504279  )
       143           C   tau( 143) = (   0.4998554   1.7299413   2.4736692  )
       144           C   tau( 144) = (   0.4997837   2.1189131   2.4508552  )
       145           C   tau( 145) = (   0.6664794   1.8269319   2.4609715  )
       146           C   tau( 146) = (   0.6664253   2.0211530   2.4491533  )
       147           C   tau( 147) = (   0.8330798   1.7297223   2.4708304  )
       148           C   tau( 148) = (   0.8330937   2.1189094   2.4468884  )
       149           H   tau( 149) = (   0.4446619   0.9035800   2.3768416  )
       150           C   tau( 150) = (   0.3968788   0.8859315   2.2396702  )
       151           H   tau( 151) = (   0.5360793   0.8733752   2.1781091  )
       152           H   tau( 152) = (   0.3176552   0.7592170   2.2348797  )
       153           H   tau( 153) = (   0.3152415   1.0076446   2.2117415  )

     number of k points=     6  gaussian smearing, width (Ry)=  0.1000
                       cart. coord. in units 2pi/alat
        k(    1) = (   0.0000000   0.0000000   0.0000000), wk =   0.2500000
        k(    2) = (   0.0000000  -0.2165064   0.0000000), wk =   0.2500000
        k(    3) = (   0.2500000   0.0000000   0.0000000), wk =   0.5000000
        k(    4) = (   0.2500000  -0.2165064   0.0000000), wk =   0.5000000
        k(    5) = (  -0.5000000   0.0000000   0.0000000), wk =   0.2500000
        k(    6) = (  -0.5000000  -0.2165064   0.0000000), wk =   0.2500000

     Dense  grid:  2050409 G-vectors     FFT dimensions: (  80, 192, 270)

     Largest allocated arrays     est. size (Mb)     dimensions
        Kohn-Sham Wavefunctions        54.80 Mb     (    4604,  780)
        NL pseudopotentials           130.18 Mb     (    4604, 1853)
        Each V/rho on FFT grid          1.17 Mb     (   76800)
        Each G-vector array             0.28 Mb     (   36616)
        G-vector shells                 0.14 Mb     (   17932)
     Largest temporary arrays     est. size (Mb)     dimensions
        Auxiliary wavefunctions       219.18 Mb     (    4604, 3120)
        Each subspace H/S matrix        5.94 Mb     (     624,  624)
        Each <psi_i|beta_j> matrix     22.05 Mb     (    1853,  780)
        Arrays for rho mixing           9.38 Mb     (   76800,    8)

     Initial potential from superposition of free atoms
     Check: negative starting charge=   -0.001557

     starting charge 1274.31748, renormalised to 1300.00000

     negative rho (up, down):  1.588E-03 0.000E+00
     Starting wfc are 1296 randomized atomic wfcs

     total cpu time spent up to now is      106.4 secs

     Self-consistent Calculation

     iteration #  1     ecut=    80.00 Ry     beta=0.70
     Davidson diagonalization with overlap
     c_bands:  4 eigenvalues not converged
     c_bands:  4 eigenvalues not converged
     c_bands:  3 eigenvalues not converged
     c_bands:  5 eigenvalues not converged
     c_bands:  5 eigenvalues not converged
     ethr =  1.00E-04,  avg # of iterations = 40.8

     negative rho (up, down):  2.417E+01 0.000E+00

     total cpu time spent up to now is     2347.2 secs

     total energy              =  -10111.68536172 Ry
     Harris-Foulkes estimate   =  -18289.45501633 Ry
     estimated scf accuracy    <  211517.33974572 Ry

     iteration #  2     ecut=    80.00 Ry     beta=0.70
     Davidson diagonalization with overlap
     ethr =  1.00E-02,  avg # of iterations = 14.2

     negative rho (up, down):  3.271E+01 0.000E+00

     total cpu time spent up to now is     3361.2 secs

     total energy              =  -11717.44282184 Ry
     Harris-Foulkes estimate   =  -13800.43266258 Ry
     estimated scf accuracy    <   39403.53567412 Ry

     iteration #  3     ecut=    80.00 Ry     beta=0.70
     Davidson diagonalization with overlap
     ethr =  1.00E-02,  avg # of iterations = 27.2

     negative rho (up, down):  2.936E+01 0.000E+00

     total cpu time spent up to now is     4648.4 secs

     total energy              =  -11968.61787462 Ry
     Harris-Foulkes estimate   =  -13777.07722249 Ry
     estimated scf accuracy    <    6353.51581494 Ry

     iteration #  4     ecut=    80.00 Ry     beta=0.70
     Davidson diagonalization with overlap
     ethr =  1.00E-02,  avg # of iterations =  4.2

     negative rho (up, down):  2.079E+01 0.000E+00

     total cpu time spent up to now is     5132.5 secs

     total energy              =  -12820.63984219 Ry
     Harris-Foulkes estimate   =  -13028.90109880 Ry
     estimated scf accuracy    <    1682.37476700 Ry

     iteration #  5     ecut=    80.00 Ry     beta=0.70
     Davidson diagonalization with overlap
     ethr =  1.00E-02,  avg # of iterations =  3.8

     negative rho (up, down):  1.852E+01 0.000E+00

     total cpu time spent up to now is     5411.4 secs

     total energy              =  -12844.60240320 Ry
     Harris-Foulkes estimate   =  -12950.42769122 Ry
     estimated scf accuracy    <    3719.46398638 Ry

     iteration #  6     ecut=    80.00 Ry     beta=0.70
     Davidson diagonalization with overlap
     ethr =  1.00E-02,  avg # of iterations =  3.2

     negative rho (up, down):  1.548E+01 0.000E+00

     total cpu time spent up to now is     5633.2 secs

     total energy              =  -12824.42105563 Ry
     Harris-Foulkes estimate   =  -12894.52054363 Ry
     estimated scf accuracy    <     854.36097902 Ry

     iteration #  7     ecut=    80.00 Ry     beta=0.70
     Davidson diagonalization with overlap
     ethr =  1.00E-02,  avg # of iterations =  3.0

     negative rho (up, down):  9.507E+00 0.000E+00

     total cpu time spent up to now is     5832.4 secs

     total energy              =  -12814.70907388 Ry
     Harris-Foulkes estimate   =  -12861.88643416 Ry
     estimated scf accuracy    <     449.75958169 Ry

     iteration #  8     ecut=    80.00 Ry     beta=0.70
     Davidson diagonalization with overlap
     ethr =  1.00E-02,  avg # of iterations =  1.0

     negative rho (up, down):  6.566E+00 0.000E+00

     total cpu time spent up to now is     5998.7 secs

     total energy              =  -12794.56713741 Ry
     Harris-Foulkes estimate   =  -12821.48067336 Ry
     estimated scf accuracy    <     304.89604527 Ry

     iteration #  9     ecut=    80.00 Ry     beta=0.70
     Davidson diagonalization with overlap
     ethr =  1.00E-02,  avg # of iterations =  1.0

     negative rho (up, down):  5.429E+00 0.000E+00

     total cpu time spent up to now is     6165.4 secs

     total energy              =  -12786.55308468 Ry
     Harris-Foulkes estimate   =  -12800.37140083 Ry
     estimated scf accuracy    <     298.75058603 Ry

     iteration # 10     ecut=    80.00 Ry     beta=0.70
     Davidson diagonalization with overlap
     ethr =  1.00E-02,  avg # of iterations =  1.0

     negative rho (up, down):  2.660E+00 0.000E+00

     total cpu time spent up to now is     6332.3 secs

     total energy              =  -12766.30748714 Ry
     Harris-Foulkes estimate   =  -12789.93885781 Ry
     estimated scf accuracy    <     193.35826679 Ry

     iteration # 11     ecut=    80.00 Ry     beta=0.70
     Davidson diagonalization with overlap
     ethr =  1.00E-02,  avg # of iterations =  1.0

     negative rho (up, down):  1.297E+00 0.000E+00

     total cpu time spent up to now is     6498.9 secs

     total energy              =  -12751.31363323 Ry
     Harris-Foulkes estimate   =  -12772.52858542 Ry
     estimated scf accuracy    <     235.31582533 Ry

     iteration # 12     ecut=    80.00 Ry     beta=0.70
     Davidson diagonalization with overlap
     ethr =  1.00E-02,  avg # of iterations =  2.0

     negative rho (up, down):  6.489E-01 0.000E+00

     total cpu time spent up to now is     6678.3 secs

     total energy              =  -12742.90637365 Ry
     Harris-Foulkes estimate   =  -12761.81156286 Ry
     estimated scf accuracy    <     130.84289769 Ry

     iteration # 13     ecut=    80.00 Ry     beta=0.70
     Davidson diagonalization with overlap
     ethr =  1.00E-02,  avg # of iterations =  1.0

     negative rho (up, down):  2.323E+00 0.000E+00

     total cpu time spent up to now is     6846.4 secs

     total energy              =  -12735.64911754 Ry
     Harris-Foulkes estimate   =  -12748.09410123 Ry
     estimated scf accuracy    <      80.04002879 Ry

     iteration # 14     ecut=    80.00 Ry     beta=0.70
     Davidson diagonalization with overlap
     ethr =  6.16E-03,  avg # of iterations =  1.0

     negative rho (up, down):  1.550E+00 0.000E+00

     total cpu time spent up to now is     7013.5 secs

     total energy              =  -12737.79495546 Ry
     Harris-Foulkes estimate   =  -12740.32560354 Ry
     estimated scf accuracy    <      56.14461832 Ry

     iteration # 15     ecut=    80.00 Ry     beta=0.70
     Davidson diagonalization with overlap
     ethr =  4.32E-03,  avg # of iterations =  1.0

     negative rho (up, down):  6.495E-01 0.000E+00

     total cpu time spent up to now is     7182.2 secs

     total energy              =  -12732.72678456 Ry
     Harris-Foulkes estimate   =  -12738.54082702 Ry
     estimated scf accuracy    <      45.40743982 Ry

     iteration # 16     ecut=    80.00 Ry     beta=0.70
     Davidson diagonalization with overlap
     ethr =  3.49E-03,  avg # of iterations =  1.0

     negative rho (up, down):  5.064E+00 0.000E+00

     total cpu time spent up to now is     7348.5 secs

     total energy              =  -12724.76173726 Ry
     Harris-Foulkes estimate   =  -12735.86826132 Ry
     estimated scf accuracy    <      93.19732740 Ry

     iteration # 17     ecut=    80.00 Ry     beta=0.70
     Davidson diagonalization with overlap
     ethr =  3.49E-03,  avg # of iterations =  2.0

     negative rho (up, down):  6.247E+00 0.000E+00

     total cpu time spent up to now is     7530.9 secs

     total energy              =  -12728.24319276 Ry
     Harris-Foulkes estimate   =  -12730.47564545 Ry
     estimated scf accuracy    <      31.84180999 Ry

     iteration # 18     ecut=    80.00 Ry     beta=0.70
     Davidson diagonalization with overlap
     ethr =  2.45E-03,  avg # of iterations =  4.0

     negative rho (up, down):  4.287E+00 0.000E+00

     total cpu time spent up to now is     7732.3 secs

     total energy              =  -12728.26060779 Ry
     Harris-Foulkes estimate   =  -12729.92482227 Ry
     estimated scf accuracy    <      10.26423303 Ry

     iteration # 19     ecut=    80.00 Ry     beta=0.70
     Davidson diagonalization with overlap
     ethr =  7.90E-04,  avg # of iterations =  7.7

     negative rho (up, down):  4.290E+00 0.000E+00

     total cpu time spent up to now is     7981.3 secs

     total energy              =  -12728.03564365 Ry
     Harris-Foulkes estimate   =  -12728.61471908 Ry
     estimated scf accuracy    <       9.31460088 Ry

     iteration # 20     ecut=    80.00 Ry     beta=0.70
     Davidson diagonalization with overlap
     ethr =  7.17E-04,  avg # of iterations =  1.2

     negative rho (up, down):  2.527E+00 0.000E+00

     total cpu time spent up to now is     8151.0 secs

     total energy              =  -12726.55678275 Ry
     Harris-Foulkes estimate   =  -12728.25701897 Ry
     estimated scf accuracy    <       7.02168437 Ry

     iteration # 21     ecut=    80.00 Ry     beta=0.70
     Davidson diagonalization with overlap
     ethr =  5.40E-04,  avg # of iterations =  2.8

     negative rho (up, down):  1.236E+00 0.000E+00

     total cpu time spent up to now is     8339.6 secs

     total energy              =  -12725.42754033 Ry
     Harris-Foulkes estimate   =  -12726.67029643 Ry
     estimated scf accuracy    <       5.28214922 Ry

     iteration # 22     ecut=    80.00 Ry     beta=0.70
     Davidson diagonalization with overlap
     ethr =  4.06E-04,  avg # of iterations =  4.7

     negative rho (up, down):  6.501E-01 0.000E+00

     total cpu time spent up to now is     8550.7 secs

     total energy              =  -12724.19527640 Ry
     Harris-Foulkes estimate   =  -12725.59449707 Ry
     estimated scf accuracy    <       5.87488968 Ry

     iteration # 23     ecut=    80.00 Ry     beta=0.70
     Davidson diagonalization with overlap
     ethr =  4.06E-04,  avg # of iterations =  1.2

     negative rho (up, down):  7.664E-01 0.000E+00

     total cpu time spent up to now is     8719.3 secs

     total energy              =  -12723.83128645 Ry
     Harris-Foulkes estimate   =  -12724.36478848 Ry
     estimated scf accuracy    <       6.66767881 Ry

     iteration # 24     ecut=    80.00 Ry     beta=0.70
     Davidson diagonalization with overlap
     ethr =  4.06E-04,  avg # of iterations =  4.2

     negative rho (up, down):  9.763E-01 0.000E+00

     total cpu time spent up to now is     8924.5 secs

     total energy              =  -12723.39659818 Ry
     Harris-Foulkes estimate   =  -12723.96311763 Ry
     estimated scf accuracy    <       2.68072833 Ry

     iteration # 25     ecut=    80.00 Ry     beta=0.70
     Davidson diagonalization with overlap
     ethr =  2.06E-04,  avg # of iterations =  9.2

     negative rho (up, down):  1.082E+00 0.000E+00

     total cpu time spent up to now is     9210.9 secs

     total energy              =  -12723.18867082 Ry
     Harris-Foulkes estimate   =  -12723.51750178 Ry
     estimated scf accuracy    <       1.16410825 Ry

     iteration # 26     ecut=    80.00 Ry     beta=0.70
     Davidson diagonalization with overlap
     ethr =  8.95E-05,  avg # of iterations =  7.0

     negative rho (up, down):  9.376E-01 0.000E+00

     total cpu time spent up to now is     9464.2 secs

     total energy              =  -12723.15697004 Ry
     Harris-Foulkes estimate   =  -12723.25435439 Ry
     estimated scf accuracy    <       0.46387165 Ry

     iteration # 27     ecut=    80.00 Ry     beta=0.70
     Davidson diagonalization with overlap
     ethr =  3.57E-05,  avg # of iterations =  7.7

     negative rho (up, down):  6.610E-01 0.000E+00

     total cpu time spent up to now is     9725.0 secs

     total energy              =  -12723.08757762 Ry
     Harris-Foulkes estimate   =  -12723.18133491 Ry
     estimated scf accuracy    <       0.33261955 Ry

     iteration # 28     ecut=    80.00 Ry     beta=0.70
     Davidson diagonalization with overlap
     ethr =  2.56E-05,  avg # of iterations =  7.3

     negative rho (up, down):  3.841E-01 0.000E+00

     total cpu time spent up to now is     9987.9 secs

     total energy              =  -12723.07594453 Ry
     Harris-Foulkes estimate   =  -12723.10832054 Ry
     estimated scf accuracy    <       0.11550170 Ry

     iteration # 29     ecut=    80.00 Ry     beta=0.70
     Davidson diagonalization with overlap
     ethr =  8.88E-06,  avg # of iterations = 11.8

     negative rho (up, down):  1.745E-01 0.000E+00

     total cpu time spent up to now is    10314.5 secs

     total energy              =  -12723.07252298 Ry
     Harris-Foulkes estimate   =  -12723.08585074 Ry
     estimated scf accuracy    <       0.04404635 Ry

     iteration # 30     ecut=    80.00 Ry     beta=0.70
     Davidson diagonalization with overlap
     c_bands:  2 eigenvalues not converged
     c_bands:  1 eigenvalues not converged
     c_bands:  1 eigenvalues not converged
     ethr =  3.39E-06,  avg # of iterations = 17.3

     negative rho (up, down):  1.068E-01 0.000E+00

     total cpu time spent up to now is    10730.0 secs

     total energy              =  -12723.07271908 Ry
     Harris-Foulkes estimate   =  -12723.07665207 Ry
     estimated scf accuracy    <       0.01201020 Ry

     iteration # 31     ecut=    80.00 Ry     beta=0.70
     Davidson diagonalization with overlap
     c_bands:  1 eigenvalues not converged
     ethr =  9.24E-07,  avg # of iterations = 16.3

     negative rho (up, down):  4.703E-02 0.000E+00

     total cpu time spent up to now is    11111.6 secs

     total energy              =  -12723.07210926 Ry
     Harris-Foulkes estimate   =  -12723.07403478 Ry
     estimated scf accuracy    <       0.00536393 Ry

     iteration # 32     ecut=    80.00 Ry     beta=0.70
     Davidson diagonalization with overlap
     c_bands:  1 eigenvalues not converged
     c_bands:  2 eigenvalues not converged
     c_bands:  1 eigenvalues not converged
     ethr =  4.13E-07,  avg # of iterations = 13.8

     negative rho (up, down):  3.933E-02 0.000E+00

     total cpu time spent up to now is    11462.4 secs

     total energy              =  -12723.07234464 Ry
     Harris-Foulkes estimate   =  -12723.07260615 Ry
     estimated scf accuracy    <       0.00160440 Ry

     iteration # 33     ecut=    80.00 Ry     beta=0.70
     Davidson diagonalization with overlap
     c_bands:  1 eigenvalues not converged
     ethr =  1.23E-07,  avg # of iterations = 10.0

     negative rho (up, down):  1.898E-02 0.000E+00

     total cpu time spent up to now is    11748.8 secs

     total energy              =  -12723.07212131 Ry
     Harris-Foulkes estimate   =  -12723.07256421 Ry
     estimated scf accuracy    <       0.00080373 Ry

     iteration # 34     ecut=    80.00 Ry     beta=0.70
     Davidson diagonalization with overlap
     c_bands:  2 eigenvalues not converged
     ethr =  6.18E-08,  avg # of iterations = 12.2

     negative rho (up, down):  1.279E-02 0.000E+00

     total cpu time spent up to now is    12072.9 secs

     total energy              =  -12723.07218066 Ry
     Harris-Foulkes estimate   =  -12723.07219441 Ry
     estimated scf accuracy    <       0.00022243 Ry

     iteration # 35     ecut=    80.00 Ry     beta=0.70
     Davidson diagonalization with overlap
     ethr =  1.71E-08,  avg # of iterations =  8.8

     negative rho (up, down):  7.214E-03 0.000E+00

     total cpu time spent up to now is    12346.8 secs

     total energy              =  -12723.07209077 Ry
     Harris-Foulkes estimate   =  -12723.07219930 Ry
     estimated scf accuracy    <       0.00009847 Ry

     iteration # 36     ecut=    80.00 Ry     beta=0.70
     Davidson diagonalization with overlap
     c_bands:  2 eigenvalues not converged
     ethr =  7.57E-09,  avg # of iterations = 14.2

     negative rho (up, down):  5.431E-03 0.000E+00

     total cpu time spent up to now is    12690.4 secs

     total energy              =  -12723.07206260 Ry
     Harris-Foulkes estimate   =  -12723.07209821 Ry
     estimated scf accuracy    <       0.00005787 Ry

     iteration # 37     ecut=    80.00 Ry     beta=0.70
     Davidson diagonalization with overlap
     ethr =  4.45E-09,  avg # of iterations =  7.8

     negative rho (up, down):  2.140E-03 0.000E+00

     total cpu time spent up to now is    12944.5 secs

     total energy              =  -12723.07201827 Ry
     Harris-Foulkes estimate   =  -12723.07206559 Ry
     estimated scf accuracy    <       0.00002491 Ry

     iteration # 38     ecut=    80.00 Ry     beta=0.70
     Davidson diagonalization with overlap
     c_bands:  1 eigenvalues not converged
     ethr =  1.92E-09,  avg # of iterations = 11.3

     negative rho (up, down):  1.486E-03 0.000E+00

     total cpu time spent up to now is    13246.2 secs

     total energy              =  -12723.07201588 Ry
     Harris-Foulkes estimate   =  -12723.07201998 Ry
     estimated scf accuracy    <       0.00000882 Ry

     iteration # 39     ecut=    80.00 Ry     beta=0.70
     Davidson diagonalization with overlap
     ethr =  6.79E-10,  avg # of iterations =  2.3

     negative rho (up, down):  1.490E-03 0.000E+00

     total cpu time spent up to now is    13434.4 secs

     total energy              =  -12723.07201849 Ry
     Harris-Foulkes estimate   =  -12723.07201675 Ry
     estimated scf accuracy    <       0.00000323 Ry

     iteration # 40     ecut=    80.00 Ry     beta=0.70
     Davidson diagonalization with overlap
     ethr =  2.49E-10,  avg # of iterations =  2.7

     negative rho (up, down):  1.458E-03 0.000E+00

     total cpu time spent up to now is    13633.6 secs

     total energy              =  -12723.07201918 Ry
     Harris-Foulkes estimate   =  -12723.07201898 Ry
     estimated scf accuracy    <       0.00000184 Ry

     iteration # 41     ecut=    80.00 Ry     beta=0.70
     Davidson diagonalization with overlap
     ethr =  1.42E-10,  avg # of iterations =  2.0

     negative rho (up, down):  1.606E-03 0.000E+00

     total cpu time spent up to now is    13819.1 secs

     total energy              =  -12723.07202006 Ry
     Harris-Foulkes estimate   =  -12723.07201936 Ry
     estimated scf accuracy    <       0.00000034 Ry

     iteration # 42     ecut=    80.00 Ry     beta=0.70
     Davidson diagonalization with overlap
     ethr =  2.62E-11,  avg # of iterations =  3.0

     negative rho (up, down):  1.675E-03 0.000E+00

     total cpu time spent up to now is    14027.7 secs

     total energy              =  -12723.07202008 Ry
     Harris-Foulkes estimate   =  -12723.07202011 Ry
     estimated scf accuracy    <       0.00000014 Ry

     iteration # 43     ecut=    80.00 Ry     beta=0.70
     Davidson diagonalization with overlap
     ethr =  1.09E-11,  avg # of iterations =  2.3

     negative rho (up, down):  1.683E-03 0.000E+00

     total cpu time spent up to now is    14216.0 secs

     total energy              =  -12723.07202009 Ry
     Harris-Foulkes estimate   =  -12723.07202009 Ry
     estimated scf accuracy    <       0.00000005 Ry

     iteration # 44     ecut=    80.00 Ry     beta=0.70
     Davidson diagonalization with overlap
     ethr =  3.81E-12,  avg # of iterations =  2.0

     negative rho (up, down):  1.689E-03 0.000E+00

     total cpu time spent up to now is    14399.2 secs

     total energy              =  -12723.07202008 Ry
     Harris-Foulkes estimate   =  -12723.07202010 Ry
     estimated scf accuracy    <       0.00000001 Ry

     iteration # 45     ecut=    80.00 Ry     beta=0.70
     Davidson diagonalization with overlap
     ethr =  1.13E-12,  avg # of iterations =  3.0

     negative rho (up, down):  1.666E-03 0.000E+00

     total cpu time spent up to now is    14614.5 secs

     End of self-consistent calculation

          k = 0.0000 0.0000 0.0000 (256287 PWs)   bands (ev):

   -16.9146 -15.8180 -15.6791 -15.0374 -14.6685 -14.4021 -14.2985 -13.8462
   -13.7740 -13.7300 -13.7140 -13.1046 -12.9614 -12.7642 -12.7502 -12.7284
   -12.6997 -11.3363 -11.1897 -11.1537 -11.0357 -10.9866 -10.7583  -9.9708
    -9.4555  -9.4343  -9.2749  -9.2127  -8.5933  -8.4003  -8.2929  -8.1960
    -7.7223  -7.5144  -7.4577  -7.2867  -7.2104  -7.1978  -7.1672  -7.1176
    -6.0278  -6.0258  -5.9059  -5.7874  -5.6822  -5.6252  -5.5761  -5.5570
    -5.5433  -5.3753  -5.3718  -4.8474  -4.7214  -4.5544  -4.5372  -4.4037
    -4.3702  -4.2927  -4.2548  -4.1474  -4.0310  -3.8884  -3.8735  -3.8267
    -3.7227  -3.6251  -3.5440  -3.3285  -3.3230  -3.3054  -3.2845  -3.2717
    -3.2509  -3.1233  -3.1026  -3.0940  -2.9159  -2.9024  -2.8993  -2.8929
    -2.8894  -2.8735  -2.8603  -2.7037  -2.6672  -2.6087  -2.5773  -2.5669
    -2.4994  -2.4639  -2.4450  -2.4149  -2.3947  -2.3537  -2.2536  -2.1865
    -2.1812  -2.1797  -2.1606  -2.0885  -2.0851  -2.0602  -2.0579  -2.0549
    -2.0526  -2.0295  -1.9279  -1.9275  -1.9037  -1.9024  -1.8865  -1.7742
    -1.7544  -1.6810  -1.6416  -1.6377  -1.6355  -1.6310  -1.6281  -1.6219
    -1.6149  -1.5963  -1.5835  -1.5550  -1.5532  -1.5439  -1.5285  -1.5178
    -1.5064  -1.4805  -1.4734  -1.4707  -1.4663  -1.4571  -1.4467  -1.4330
    -1.4290  -1.4184  -1.4179  -1.3750  -1.3690  -1.3554  -1.3161  -1.2840
    -1.2557  -1.2215  -1.2035  -1.1968  -1.1904  -1.1881  -1.1790  -1.1766
    -1.1587  -1.1462  -1.1208  -1.1141  -1.0962  -1.0944  -1.0766  -1.0549
    -0.9784  -0.9647  -0.9620  -0.9559  -0.9513  -0.9448  -0.9412  -0.9401
    -0.9361  -0.9329  -0.9271  -0.9264  -0.9220  -0.9030  -0.8961  -0.8927
    -0.8907  -0.8878  -0.8541  -0.8486  -0.8480  -0.8256  -0.8249  -0.8161
    -0.8045  -0.7971  -0.7836  -0.7723  -0.7706  -0.7664  -0.7628  -0.7574
    -0.7537  -0.7534  -0.7517  -0.7495  -0.7462  -0.7440  -0.7418  -0.7394
    -0.7362  -0.7313  -0.7300  -0.6620  -0.6036  -0.5985  -0.5971  -0.5963
    -0.5915  -0.5902  -0.5556  -0.5459  -0.5439  -0.5411  -0.5406  -0.5307
    -0.5262  -0.5212  -0.5134  -0.5003  -0.4969  -0.4787  -0.4695  -0.4679
    -0.4630  -0.4594  -0.4585  -0.4561  -0.4467  -0.4437  -0.4388  -0.3938
    -0.3914  -0.3884  -0.3593  -0.3553  -0.3529  -0.3309  -0.3281  -0.3251
    -0.3242  -0.3211  -0.3196  -0.3169  -0.3167  -0.3105  -0.3097  -0.3077
    -0.3054  -0.3028  -0.3021  -0.2936  -0.2855  -0.2821  -0.2631  -0.2483
    -0.2417  -0.2400  -0.2203  -0.2178  -0.2121  -0.1976  -0.1948  -0.1908
    -0.1857  -0.1721  -0.1718  -0.1690  -0.1620  -0.1593  -0.1525  -0.1506
    -0.1397  -0.1386  -0.1336  -0.1309  -0.1299  -0.1203  -0.1168  -0.1143
    -0.1081  -0.0948  -0.0946  -0.0916  -0.0899  -0.0880  -0.0864  -0.0651
    -0.0470  -0.0412  -0.0371  -0.0297  -0.0270   0.0033   0.0057   0.0199
     0.0217   0.0252   0.0283   0.0381   0.0400   0.0462   0.0530   0.0558
     0.0595   0.0690   0.0708   0.0756   0.0932   0.0966   0.1038   0.1050
     0.1108   0.1174   0.1189   0.1274   0.1320   0.1356   0.1357   0.1499
     0.1503   0.1535   0.1557   0.1597   0.1703   0.1722   0.1843   0.1881
     0.1913   0.1942   0.2042   0.2097   0.2238   0.2300   0.2509   0.2549
     0.2589   0.2607   0.2617   0.2688   0.2802   0.2986   0.3006   0.3072
     0.3168   0.3235   0.3469   0.3562   0.3638   0.3776   0.3782   0.3870
     0.3942   0.3995   0.4005   0.4206   0.4223   0.4302   0.4418   0.4537
     0.4565   0.4641   0.4658   0.4687   0.4748   0.4826   0.4827   0.4921
     0.5052   0.5107   0.5157   0.5198   0.5324   0.5345   0.5512   0.5569
     0.5580   0.5608   0.5706   0.5747   0.5779   0.5857   0.5896   0.5927
     0.5995   0.6096   0.6180   0.6213   0.6250   0.6295   0.6412   0.6416
     0.6453   0.6466   0.6477   0.6504   0.6537   0.6578   0.6585   0.6660
     0.6731   0.6756   0.6874   0.6901   0.6925   0.7025   0.7096   0.7200
     0.7268   0.7287   0.7377   0.7423   0.7475   0.7508   0.7549   0.7622
     0.7662   0.7668   0.7696   0.7704   0.7719   0.7749   0.7785   0.7864
     0.7881   0.7905   0.8000   0.8046   0.8108   0.8145   0.8173   0.8201
     0.8284   0.8315   0.8318   0.8396   0.8476   0.8488   0.8555   0.8569
     0.8605   0.8643   0.8837   0.8893   0.8936   0.9012   0.9166   0.9191
     0.9374   0.9403   0.9417   0.9463   0.9505   0.9531   0.9582   0.9608
     0.9694   0.9721   0.9773   0.9804   0.9847   0.9849   0.9968   1.0028
     1.0083   1.0118   1.0122   1.0170   1.0213   1.0252   1.0271   1.0291
     1.0365   1.0489   1.0687   1.0716   1.0763   1.0781   1.0870   1.0896
     1.0904   1.0953   1.0998   1.1034   1.1103   1.1122   1.1148   1.1180
     1.1226   1.1251   1.1274   1.1295   1.1312   1.1331   1.1424   1.1450
     1.1550   1.1606   1.1647   1.1716   1.1753   1.1781   1.1841   1.1847
     1.1909   1.1920   1.1944   1.1953   1.1976   1.2028   1.2045   1.2089
     1.2115   1.2158   1.2189   1.2238   1.2245   1.2270   1.2359   1.2498
     1.2524   1.2536   1.2612   1.2618   1.2710   1.2768   1.2846   1.2932
     1.2951   1.2968   1.3090   1.3126   1.3249   1.3255   1.3266   1.3288
     1.3306   1.3360   1.3430   1.3541   1.3553   1.3569   1.3577   1.3607
     1.3617   1.3635   1.3683   1.3723   1.3745   1.3788   1.3810   1.3894
     1.3922   1.3964   1.3967   1.3974   1.3983   1.4010   1.4069   1.4105
     1.4111   1.4135   1.4196   1.4219   1.4253   1.4292   1.4307   1.4330
     1.4378   1.4466   1.4471   1.4559   1.4642   1.4736   1.4814   1.4830
     1.4850   1.4854   1.4986   1.5006   1.5030   1.5033   1.5077   1.5098
     1.5123   1.5144   1.5159   1.5183   1.5198   1.5207   1.5267   1.5381
     1.5409   1.5457   1.5477   1.5487   1.5570   1.5575   1.5593   1.5604
     1.5685   1.5784   1.5887   1.5922   1.5985   1.6037   1.6317   1.6342
     1.6389   1.6415   1.6460   1.6553   1.6711   1.6766   1.7021   1.7035
     1.7102   1.7115   1.7140   1.7219   1.7241   1.7409   1.7415   1.7695
     2.0090   2.0397   2.1395   2.1468   2.1736   2.2443   2.2808   2.2814
     2.2839   2.2854   2.2949   2.3038   2.3076   2.3105   2.4253   2.4259
     2.4991   2.5063   2.5347   2.5519   2.5749   2.6437   2.7580   2.7787
     2.7990   2.8134   2.9974   3.1071   3.2649   3.2814   3.3637   3.5289
     3.5536   3.8335   3.8428   3.8661   3.8821   3.9115   3.9224   3.9307
     3.9633   3.9939   4.0179   4.0450   4.0817   4.0884   4.0923   4.0935
     4.1085   4.1889   4.2185   4.2408   4.3533   4.5507   4.6809   4.8446
     5.0310   5.1552   5.1703   5.2161   5.2546   5.3254   5.3797   5.4018
     5.6076   5.6251   5.8301   5.8428   6.0044   6.0071   6.2193   6.2278
     6.3778   6.4249   6.4614   6.4866   6.5220   6.5817   6.6095   6.6372
     6.6834   6.7132   6.8106   6.8734   6.9132   6.9448   6.9682   6.9791
     7.0072   7.0573   7.0745   7.1226   7.1682   7.2099   7.3804   7.4394
     7.4529   7.5152   7.5434   7.6936   7.7180   7.7670   7.8412   8.0108
     8.0392   8.0734   8.1100   8.1404   8.1825   8.2021   8.3021   8.3269
     8.3487   8.3665   8.3903   8.4190   8.4312   8.5336   8.5633   8.6008
     8.6114   8.6154   8.6393   8.6756   8.7401   8.7523   8.7643   8.8290
     8.8564   8.8673   8.9044   8.9612   9.0193   9.0424   9.0553   9.0669
     9.1539   9.1739   9.2734   9.3828   9.4100   9.4238   9.4693   9.5035
     9.5344   9.5884   9.6494   9.6782   9.6870   9.9181  10.0187  10.0289
    10.0695  10.1274  10.1288  10.1502

          k = 0.0000-0.2165 0.0000 (256176 PWs)   bands (ev):

   -16.9143 -15.8845 -15.4928 -15.2606 -14.6925 -14.2896 -13.9597 -13.9119
   -13.8797 -13.8575 -13.4421 -13.3699 -13.3182 -13.2883 -12.2522 -12.0702
   -12.0172 -11.9428 -11.8461 -11.7656 -10.7930 -10.3260 -10.2182 -10.2127
   -10.0554  -9.1613  -9.0913  -8.9398  -8.7762  -8.6055  -8.5701  -8.0108
    -7.9028  -7.8071  -7.7614  -7.1482  -7.0026  -6.6308  -6.6134  -6.5478
    -6.5237  -6.4915  -6.4638  -5.9474  -5.8473  -5.7760  -5.7666  -5.2178
    -5.0913  -4.9082  -4.8163  -4.8075  -4.7477  -4.7282  -4.6710  -4.6359
    -4.5946  -4.4782  -4.3731  -4.3529  -4.2933  -4.0333  -3.7838  -3.7256
    -3.6676  -3.5185  -3.4316  -3.4201  -3.2326  -3.1954  -3.1866  -3.1829
    -3.1767  -3.1258  -3.0265  -2.9614  -2.9229  -2.9082  -2.8425  -2.8178
    -2.7704  -2.7587  -2.6631  -2.6320  -2.6015  -2.5715  -2.5602  -2.5539
    -2.5033  -2.4783  -2.4760  -2.4696  -2.4666  -2.3554  -2.3276  -2.3119
    -2.3038  -2.2890  -2.1996  -2.1707  -2.1557  -2.0788  -2.0765  -2.0457
    -2.0252  -2.0211  -2.0164  -2.0002  -1.8828  -1.8826  -1.8644  -1.8642
    -1.8160  -1.7714  -1.7206  -1.6856  -1.6809  -1.6713  -1.6654  -1.6613
    -1.6437  -1.6395  -1.6388  -1.6217  -1.6103  -1.5673  -1.5614  -1.5604
    -1.5566  -1.5529  -1.5510  -1.5349  -1.4098  -1.4079  -1.3747  -1.3543
    -1.2768  -1.2685  -1.2467  -1.2328  -1.2248  -1.2208  -1.2016  -1.1993
    -1.1936  -1.1881  -1.1835  -1.1826  -1.1748  -1.1710  -1.1613  -1.1577
    -1.1469  -1.1369  -1.1336  -1.1299  -1.1164  -1.1140  -1.1090  -1.1025
    -1.0948  -1.0713  -1.0494  -1.0436  -0.9963  -0.9885  -0.9866  -0.9830
    -0.9747  -0.9597  -0.9587  -0.9530  -0.9518  -0.9168  -0.9117  -0.9035
    -0.8925  -0.8865  -0.8747  -0.8745  -0.8710  -0.8703  -0.8399  -0.8376
    -0.8338  -0.8313  -0.8257  -0.8166  -0.8080  -0.8026  -0.7871  -0.7807
    -0.7505  -0.7473  -0.7402  -0.7333  -0.7223  -0.7200  -0.7176  -0.7024
    -0.6911  -0.6862  -0.6829  -0.6638  -0.6599  -0.6551  -0.6522  -0.6394
    -0.5887  -0.5856  -0.5429  -0.5422  -0.5300  -0.5275  -0.5180  -0.5161
    -0.5138  -0.5135  -0.5116  -0.5114  -0.4920  -0.4737  -0.4505  -0.4467
    -0.4419  -0.4406  -0.4370  -0.4346  -0.4337  -0.4303  -0.4287  -0.3985
    -0.3972  -0.3909  -0.3897  -0.3777  -0.3705  -0.3653  -0.3625  -0.3585
    -0.3532  -0.3524  -0.3493  -0.3094  -0.3037  -0.3013  -0.2994  -0.2739
    -0.2704  -0.2377  -0.2277  -0.2242  -0.2238  -0.2207  -0.2206  -0.2179
    -0.2156  -0.2136  -0.2090  -0.1926  -0.1830  -0.1659  -0.1647  -0.1615
    -0.1603  -0.1596  -0.1513  -0.1487  -0.1477  -0.1434  -0.1261  -0.1250
    -0.1204  -0.1179  -0.1066  -0.1050  -0.1031  -0.1024  -0.0974  -0.0892
    -0.0886  -0.0682  -0.0678  -0.0602  -0.0570  -0.0539  -0.0501  -0.0403
    -0.0388  -0.0290  -0.0199  -0.0133  -0.0059   0.0053   0.0065   0.0088
     0.0109   0.0190   0.0259   0.0265   0.0330   0.0484   0.0560   0.0604
     0.0654   0.0736   0.0793   0.0866   0.0926   0.0952   0.0993   0.1088
     0.1154   0.1176   0.1281   0.1319   0.1398   0.1492   0.1498   0.1538
     0.1579   0.1633   0.1744   0.1782   0.1904   0.1913   0.1957   0.2021
     0.2041   0.2153   0.2199   0.2255   0.2263   0.2343   0.2367   0.2434
     0.2459   0.2479   0.2733   0.2782   0.2809   0.2866   0.2918   0.3017
     0.3046   0.3129   0.3197   0.3235   0.3346   0.3423   0.3633   0.3766
     0.3904   0.3926   0.4037   0.4186   0.4281   0.4410   0.4496   0.4622
     0.4637   0.4795   0.4854   0.4897   0.5005   0.5090   0.5108   0.5136
     0.5217   0.5255   0.5279   0.5319   0.5400   0.5455   0.5505   0.5536
     0.5645   0.5693   0.5717   0.5774   0.5811   0.5830   0.5854   0.5878
     0.5928   0.5969   0.6008   0.6087   0.6114   0.6125   0.6175   0.6194
     0.6196   0.6253   0.6296   0.6306   0.6371   0.6410   0.6432   0.6514
     0.6557   0.6573   0.6593   0.6682   0.6690   0.6753   0.6808   0.6856
     0.6926   0.6936   0.6969   0.6983   0.7140   0.7215   0.7230   0.7271
     0.7313   0.7374   0.7441   0.7447   0.7509   0.7557   0.7613   0.7629
     0.7721   0.7750   0.7776   0.7778   0.7787   0.7865   0.7932   0.7998
     0.8097   0.8256   0.8305   0.8347   0.8373   0.8444   0.8472   0.8503
     0.8537   0.8643   0.8797   0.8802   0.8803   0.8813   0.8848   0.8866
     0.9174   0.9205   0.9643   0.9656   0.9716   0.9762   0.9824   0.9911
     0.9912   0.9957   0.9967   1.0039   1.0051   1.0070   1.0080   1.0108
     1.0131   1.0180   1.0191   1.0213   1.0231   1.0291   1.0372   1.0415
     1.0425   1.0481   1.0486   1.0499   1.0540   1.0552   1.0575   1.0591
     1.0665   1.0673   1.0691   1.0711   1.0782   1.0807   1.0820   1.0885
     1.0923   1.0941   1.1043   1.1065   1.1110   1.1129   1.1185   1.1216
     1.1227   1.1240   1.1257   1.1307   1.1308   1.1330   1.1389   1.1396
     1.1704   1.1721   1.1752   1.1790   1.2089   1.2109   1.2131   1.2278
     1.2452   1.2495   1.2535   1.2599   1.2607   1.2654   1.2667   1.2713
     1.2744   1.2794   1.2815   1.2851   1.2857   1.2886   1.2901   1.2915
     1.2932   1.2964   1.3011   1.3030   1.3060   1.3093   1.3119   1.3137
     1.3155   1.3197   1.3232   1.3294   1.3302   1.3322   1.3452   1.3483
     1.3515   1.3541   1.3552   1.3634   1.3670   1.3747   1.3756   1.3791
     1.3820   1.3897   1.3912   1.3961   1.4012   1.4039   1.4088   1.4159
     1.4183   1.4198   1.4201   1.4234   1.4386   1.4494   1.4498   1.4575
     1.4619   1.4648   1.4661   1.4677   1.4683   1.4711   1.4731   1.4790
     1.4805   1.4817   1.4913   1.4932   1.5138   1.5153   1.5190   1.5230
     1.5306   1.5317   1.5321   1.5337   1.5358   1.5422   1.5451   1.5535
     1.5565   1.5672   1.5705   1.5755   1.5781   1.5788   1.5815   1.5841
     1.5952   1.5960   1.5977   1.5987   1.6006   1.6206   1.6493   1.6502
     1.6529   1.6652   1.6663   1.6759   1.7303   1.7435   1.7469   1.8145
     1.8459   1.8469   1.8492   1.8503   1.8597   1.8731   1.8810   1.9054
     1.9064   1.9104   1.9196   1.9300   1.9548   1.9574   2.0621   2.2840
     2.3003   2.3439   2.4261   2.4272   2.4957   2.5065   2.5733   2.5826
     2.5993   2.6150   2.6433   2.6645   2.6674   2.6689   2.7566   2.7731
     2.7999   2.8004   2.8553   2.9241   3.0076   3.0088   3.2133   3.2359
     3.2522   3.2534   3.2601   3.4694   3.7494   3.7586   3.8731   4.0056
     4.0084   4.1463   4.1630   4.2467   4.2796   4.3123   4.3269   4.3564
     4.3942   4.3990   4.4275   4.4965   4.5124   4.6085   4.6992   4.9372
     5.1709   5.1820   5.2048   5.3243   5.4138   5.4227   5.4294   5.4427
     5.4668   5.5094   5.6853   5.8372   5.9120   6.0605   6.0925   6.1209
     6.2318   6.2454   6.2609   6.2752   6.4188   6.4411   6.5216   6.6095
     6.7230   6.7331   6.7681   6.8116   6.8864   6.9832   7.0410   7.1072
     7.1166   7.1315   7.1385   7.1578   7.2428   7.2596   7.3248   7.3401
     7.3591   7.4020   7.4271   7.5263   7.6201   7.7061   7.7727   7.8457
     7.9048   7.9350   8.1652   8.1714   8.2078   8.2179   8.3459   8.3973
     8.4336   8.4379   8.4470   8.4655   8.5000   8.6267   8.6300   8.6838
     8.7243   8.7351   8.7425   8.7584   8.7684   8.8140   8.8317   8.8939
     8.9822   9.0126   9.0580   9.1008   9.1052   9.1707   9.2051   9.2810
     9.3337   9.3361   9.3537   9.3697   9.3857   9.4028   9.4261   9.4922
     9.4945   9.5041   9.5848   9.5899   9.6271   9.7739   9.8177   9.8723
     9.8985   9.9739   9.9779  10.0142

          k = 0.2500 0.0000 0.0000 (256240 PWs)   bands (ev):

   -16.8647 -15.7114 -15.5568 -15.2709 -14.7279 -14.6027 -14.5523 -14.5116
   -13.7215 -13.5738 -13.3857 -12.8811 -12.8260 -12.6994 -12.6365 -11.9985
   -11.8822 -11.7639 -11.7106 -10.9832 -10.7996 -10.7758 -10.4104 -10.2571
   -10.0992  -9.8466  -9.5876  -9.5495  -9.1148  -8.8610  -8.7724  -8.4174
    -7.6928  -7.4771  -7.4145  -7.2471  -7.2130  -7.1098  -6.7240  -6.6081
    -5.9856  -5.8670  -5.7267  -5.6862  -5.6043  -5.5353  -5.2039  -5.1991
    -5.1546  -5.0086  -4.7105  -4.6280  -4.5758  -4.3874  -4.3043  -4.2858
    -4.2613  -4.2262  -4.1365  -4.1103  -4.0482  -3.9652  -3.8936  -3.8620
    -3.8529  -3.7526  -3.7283  -3.6948  -3.6426  -3.5294  -3.5050  -3.3599
    -3.3538  -3.3414  -3.3101  -3.1676  -3.1302  -3.1274  -3.0927  -3.0802
    -2.9852  -2.9589  -2.9217  -2.9151  -2.8000  -2.7804  -2.6941  -2.6923
    -2.6180  -2.5778  -2.5317  -2.4519  -2.3894  -2.2935  -2.2672  -2.2068
    -2.2018  -2.1465  -2.1080  -2.0610  -1.9973  -1.9953  -1.9841  -1.9738
    -1.9450  -1.8400  -1.8148  -1.7976  -1.7551  -1.7132  -1.7049  -1.7031
    -1.7000  -1.6997  -1.6961  -1.6916  -1.6758  -1.6610  -1.6543  -1.6235
    -1.5880  -1.5503  -1.5365  -1.5329  -1.5263  -1.4960  -1.4798  -1.4738
    -1.4733  -1.4698  -1.4621  -1.4607  -1.4481  -1.4303  -1.4154  -1.4080
    -1.4056  -1.3985  -1.3913  -1.2740  -1.2547  -1.2280  -1.2211  -1.2179
    -1.1907  -1.1562  -1.1545  -1.1498  -1.1414  -1.1382  -1.1246  -1.1209
    -1.1039  -1.0942  -1.0917  -1.0885  -1.0801  -1.0779  -1.0731  -1.0488
    -1.0403  -1.0380  -1.0325  -1.0185  -1.0121  -1.0046  -1.0034  -0.9892
    -0.9823  -0.9588  -0.9435  -0.9292  -0.9280  -0.9254  -0.9189  -0.9171
    -0.9125  -0.9108  -0.9051  -0.9032  -0.9022  -0.8998  -0.8945  -0.8887
    -0.8833  -0.8774  -0.8716  -0.8677  -0.8643  -0.8628  -0.8500  -0.8453
    -0.8082  -0.7906  -0.7818  -0.7601  -0.7534  -0.7261  -0.7247  -0.7145
    -0.7122  -0.6936  -0.6889  -0.6852  -0.6764  -0.6691  -0.6484  -0.6456
    -0.6391  -0.6310  -0.6238  -0.6109  -0.6020  -0.5176  -0.5157  -0.4990
    -0.4882  -0.4797  -0.4779  -0.4750  -0.4675  -0.4586  -0.4564  -0.4547
    -0.4525  -0.4372  -0.4303  -0.4265  -0.4199  -0.4167  -0.4053  -0.3942
    -0.3926  -0.3869  -0.3847  -0.3832  -0.3790  -0.3746  -0.3728  -0.3670
    -0.3500  -0.3279  -0.3158  -0.3124  -0.3062  -0.2970  -0.2947  -0.2934
    -0.2753  -0.2734  -0.2671  -0.2628  -0.2582  -0.2528  -0.2506  -0.2484
    -0.2192  -0.2133  -0.2125  -0.1987  -0.1979  -0.1939  -0.1917  -0.1873
    -0.1772  -0.1760  -0.1724  -0.1687  -0.1588  -0.1577  -0.1531  -0.1379
    -0.1199  -0.1073  -0.1056  -0.1031  -0.1000  -0.0990  -0.0886  -0.0850
    -0.0826  -0.0790  -0.0733  -0.0721  -0.0474  -0.0399  -0.0336  -0.0262
    -0.0239  -0.0208  -0.0149  -0.0058   0.0041   0.0117   0.0239   0.0371
     0.0428   0.0475   0.0626   0.0660   0.0683   0.0701   0.0819   0.0854
     0.0893   0.0919   0.1047   0.1073   0.1111   0.1143   0.1161   0.1187
     0.1235   0.1249   0.1289   0.1315   0.1413   0.1420   0.1454   0.1610
     0.1673   0.1696   0.1851   0.1912   0.1962   0.2033   0.2080   0.2109
     0.2163   0.2189   0.2208   0.2314   0.2336   0.2397   0.2458   0.2578
     0.2607   0.2866   0.2980   0.3132   0.3178   0.3295   0.3355   0.3477
     0.3557   0.3620   0.3636   0.3719   0.3742   0.3758   0.3786   0.3833
     0.3877   0.3900   0.3934   0.3968   0.4172   0.4189   0.4233   0.4253
     0.4291   0.4400   0.4433   0.4504   0.4599   0.4641   0.4696   0.4747
     0.4786   0.4814   0.4986   0.5048   0.5098   0.5195   0.5226   0.5328
     0.5382   0.5402   0.5426   0.5474   0.5484   0.5564   0.5625   0.5667
     0.5733   0.5759   0.5851   0.5866   0.5904   0.5963   0.5974   0.6001
     0.6050   0.6076   0.6212   0.6290   0.6361   0.6411   0.6444   0.6483
     0.6510   0.6555   0.6567   0.6627   0.6656   0.6692   0.6798   0.6814
     0.6876   0.6914   0.6985   0.7031   0.7139   0.7195   0.7220   0.7258
     0.7274   0.7327   0.7357   0.7424   0.7454   0.7473   0.7496   0.7581
     0.7603   0.7836   0.7862   0.7908   0.8010   0.8091   0.8197   0.8294
     0.8323   0.8372   0.8413   0.8432   0.8509   0.8518   0.8567   0.8603
     0.8687   0.8752   0.8771   0.8794   0.8819   0.9091   0.9139   0.9163
     0.9246   0.9332   0.9371   0.9389   0.9408   0.9439   0.9507   0.9565
     0.9674   0.9695   0.9716   0.9752   0.9758   0.9804   0.9873   0.9922
     0.9962   0.9991   1.0007   1.0070   1.0121   1.0219   1.0283   1.0376
     1.0402   1.0571   1.0576   1.0696   1.0729   1.0747   1.0841   1.0902
     1.0935   1.0943   1.0995   1.1007   1.1019   1.1050   1.1072   1.1106
     1.1119   1.1149   1.1236   1.1261   1.1283   1.1337   1.1355   1.1369
     1.1418   1.1445   1.1505   1.1525   1.1584   1.1605   1.1660   1.1706
     1.1753   1.1767   1.1824   1.1888   1.1935   1.1949   1.1991   1.2015
     1.2034   1.2065   1.2077   1.2103   1.2130   1.2166   1.2183   1.2232
     1.2289   1.2405   1.2434   1.2487   1.2586   1.2745   1.2757   1.2777
     1.2803   1.2827   1.2907   1.2989   1.3043   1.3090   1.3194   1.3318
     1.3360   1.3386   1.3393   1.3423   1.3444   1.3461   1.3487   1.3584
     1.3595   1.3612   1.3670   1.3709   1.3747   1.3755   1.3811   1.3855
     1.3875   1.3914   1.3932   1.3980   1.3992   1.4033   1.4050   1.4103
     1.4113   1.4127   1.4152   1.4218   1.4286   1.4325   1.4351   1.4372
     1.4467   1.4494   1.4583   1.4657   1.4711   1.4753   1.4828   1.4888
     1.4973   1.4978   1.4983   1.4992   1.5012   1.5062   1.5152   1.5167
     1.5177   1.5186   1.5222   1.5263   1.5278   1.5313   1.5356   1.5369
     1.5424   1.5434   1.5477   1.5527   1.5594   1.5607   1.5644   1.5679
     1.5689   1.5733   1.5780   1.5814   1.5878   1.5880   1.5914   1.5975
     1.6021   1.6117   1.6310   1.6426   1.6508   1.6631   1.6667   1.7032
     1.7057   1.7089   1.7170   1.7231   1.7336   1.8004   1.8128   1.8459
     1.8501   1.8895   1.9105   1.9209   2.0834   2.1066   2.1140   2.1190
     2.1235   2.1449   2.1590   2.2272   2.2465   2.2510   2.4128   2.6288
     2.6335   2.6410   2.6773   3.0079   3.0613   3.0619   3.2518   3.2810
     3.2849   3.3014   3.3025   3.3271   3.4055   3.4949   3.5784   3.6123
     3.6876   3.7044   3.7552   3.7641   3.7690   3.8059   3.8526   3.9009
     3.9158   3.9569   4.0098   4.0181   4.0798   4.3084   4.3393   4.3545
     4.4064   4.5868   4.6638   4.7638   4.8584   4.8989   4.9055   5.0578
     5.2760   5.2839   5.2999   5.3174   5.4369   5.4605   5.4736   5.4947
     5.5178   5.5624   5.5928   5.5948   5.6295   5.6539   5.6993   5.7088
     5.8551   5.9400   6.0014   6.0561   6.0825   6.0977   6.1144   6.1513
     6.6342   6.6720   6.7211   6.7475   6.8081   6.8211   6.8515   6.9530
     6.9795   7.0006   7.0365   7.0689   7.1006   7.1220   7.1375   7.1502
     7.1669   7.1950   7.2888   7.3174   7.4878   7.5576   7.5988   7.6327
     7.6650   7.6918   7.7322   7.7970   8.0158   8.0482   8.0911   8.1102
     8.1332   8.1813   8.2149   8.2314   8.2771   8.3009   8.3325   8.3530
     8.4046   8.5034   8.5096   8.5628   8.6884   8.7195   8.9655   8.9895
     9.0156   9.0251   9.0396   9.1007   9.1191   9.1459   9.1669   9.1847
     9.2329   9.2459   9.2961   9.3005   9.3372   9.4744   9.4959   9.5079
     9.5204   9.5408   9.5947   9.6414   9.7448   9.7519   9.7771   9.8058
     9.8446   9.8731   9.9012   9.9930

          k = 0.2500-0.2165 0.0000 (256316 PWs)   bands (ev):

   -16.8645 -15.7606 -15.4725 -15.1450 -15.0649 -14.7712 -14.3078 -14.1635
   -13.8977 -13.7456 -13.3392 -12.8860 -12.8451 -12.7877 -12.3763 -12.2588
   -11.8532 -11.7055 -11.1572 -11.0699 -10.9737 -10.8385 -10.7362 -10.5820
   -10.1919  -9.4806  -9.4162  -9.0904  -9.0280  -8.7873  -8.7278  -8.3526
    -8.2666  -8.1159  -8.0603  -6.9407  -6.7100  -6.5250  -6.3211  -6.2610
    -6.1523  -6.0203  -5.9705  -5.8229  -5.7858  -5.5991  -5.5883  -5.0867
    -4.9062  -4.7547  -4.6875  -4.6417  -4.5967  -4.5654  -4.5130  -4.4526
    -4.3097  -4.2712  -4.2288  -4.1680  -4.1507  -4.0074  -3.9103  -3.8443
    -3.7960  -3.7038  -3.6391  -3.5246  -3.4573  -3.4421  -3.3720  -3.3410
    -3.3204  -3.2825  -3.2630  -3.2146  -3.1709  -3.0972  -3.0507  -3.0013
    -2.9080  -2.8934  -2.8268  -2.8180  -2.8049  -2.7944  -2.7900  -2.7059
    -2.6706  -2.5817  -2.5740  -2.4987  -2.4577  -2.3984  -2.2131  -2.2052
    -2.1591  -2.1238  -2.0784  -2.0716  -2.0700  -2.0461  -2.0340  -1.9824
    -1.9135  -1.9080  -1.9043  -1.8640  -1.8321  -1.7593  -1.7479  -1.7164
    -1.7154  -1.7024  -1.6676  -1.6557  -1.6198  -1.6109  -1.6082  -1.6063
    -1.5919  -1.5826  -1.5808  -1.5771  -1.5746  -1.5726  -1.5692  -1.5662
    -1.5511  -1.5012  -1.4918  -1.4662  -1.4462  -1.4070  -1.3663  -1.3626
    -1.2965  -1.2866  -1.2358  -1.2296  -1.1981  -1.1899  -1.1829  -1.1788
    -1.1707  -1.1685  -1.1607  -1.1558  -1.1500  -1.1478  -1.1407  -1.1398
    -1.1333  -1.1240  -1.1168  -1.1131  -1.1045  -1.0994  -1.0863  -1.0731
    -1.0689  -1.0655  -1.0483  -1.0393  -1.0372  -1.0311  -1.0131  -1.0101
    -1.0074  -1.0039  -0.9734  -0.9574  -0.9486  -0.9438  -0.9245  -0.9232
    -0.9144  -0.9043  -0.9002  -0.8924  -0.8801  -0.8744  -0.8688  -0.8636
    -0.8622  -0.8559  -0.8542  -0.8475  -0.8355  -0.8323  -0.8191  -0.8149
    -0.8139  -0.7975  -0.7646  -0.7634  -0.7396  -0.7124  -0.7108  -0.7062
    -0.6716  -0.6571  -0.6523  -0.6500  -0.6391  -0.6250  -0.6201  -0.6176
    -0.6076  -0.6057  -0.6040  -0.5975  -0.5822  -0.5483  -0.5459  -0.5350
    -0.5187  -0.5167  -0.5108  -0.4956  -0.4849  -0.4806  -0.4719  -0.4708
    -0.4510  -0.4498  -0.4452  -0.4306  -0.4262  -0.4097  -0.4059  -0.4011
    -0.3966  -0.3917  -0.3887  -0.3830  -0.3759  -0.3403  -0.3369  -0.3290
    -0.3259  -0.3197  -0.3131  -0.3094  -0.3056  -0.3040  -0.2865  -0.2828
    -0.2811  -0.2774  -0.2697  -0.2686  -0.2670  -0.2546  -0.2502  -0.2449
    -0.2408  -0.2341  -0.2219  -0.2203  -0.2178  -0.2097  -0.1983  -0.1930
    -0.1844  -0.1828  -0.1753  -0.1720  -0.1525  -0.1514  -0.1482  -0.1460
    -0.1445  -0.1324  -0.1159  -0.1050  -0.0971  -0.0957  -0.0857  -0.0826
    -0.0524  -0.0465  -0.0391  -0.0233  -0.0153  -0.0139  -0.0121  -0.0089
    -0.0043  -0.0034   0.0056   0.0085   0.0168   0.0211   0.0273   0.0299
     0.0415   0.0449   0.0559   0.0610   0.0664   0.0766   0.0778   0.0832
     0.0840   0.0856   0.0899   0.0930   0.0972   0.0995   0.1046   0.1051
     0.1085   0.1123   0.1209   0.1231   0.1272   0.1289   0.1507   0.1560
     0.1618   0.1631   0.1748   0.1760   0.1870   0.1936   0.2015   0.2154
     0.2185   0.2324   0.2345   0.2387   0.2442   0.2502   0.2526   0.2570
     0.2614   0.2659   0.2723   0.2729   0.2775   0.2954   0.3090   0.3158
     0.3256   0.3319   0.3492   0.3582   0.3683   0.3718   0.3734   0.3807
     0.3831   0.3954   0.4008   0.4072   0.4102   0.4157   0.4239   0.4313
     0.4341   0.4402   0.4422   0.4455   0.4639   0.4672   0.4711   0.4735
     0.4805   0.4855   0.4865   0.4965   0.5044   0.5090   0.5101   0.5148
     0.5184   0.5228   0.5344   0.5484   0.5522   0.5564   0.5677   0.5760
     0.5780   0.5792   0.5839   0.5916   0.5989   0.6039   0.6069   0.6129
     0.6196   0.6226   0.6281   0.6410   0.6662   0.6719   0.6782   0.6805
     0.6808   0.6859   0.6896   0.6964   0.6986   0.7004   0.7026   0.7072
     0.7096   0.7120   0.7192   0.7271   0.7333   0.7369   0.7433   0.7473
     0.7530   0.7538   0.7606   0.7621   0.7659   0.7716   0.7739   0.7766
     0.7818   0.7849   0.7899   0.7904   0.7935   0.7966   0.7985   0.8001
     0.8067   0.8114   0.8167   0.8216   0.8234   0.8379   0.8463   0.8492
     0.8508   0.8579   0.8807   0.8855   0.8956   0.9009   0.9042   0.9122
     0.9159   0.9187   0.9278   0.9292   0.9345   0.9358   0.9365   0.9383
     0.9419   0.9460   0.9475   0.9491   0.9518   0.9542   0.9690   0.9754
     0.9891   0.9905   0.9970   0.9983   1.0016   1.0036   1.0098   1.0126
     1.0143   1.0195   1.0231   1.0342   1.0409   1.0474   1.0524   1.0569
     1.0593   1.0655   1.0818   1.0920   1.0937   1.0993   1.1047   1.1078
     1.1303   1.1346   1.1404   1.1461   1.1611   1.1638   1.1681   1.1697
     1.1720   1.1768   1.1804   1.1852   1.1865   1.1882   1.1897   1.1912
     1.1923   1.1952   1.1973   1.2018   1.2061   1.2089   1.2144   1.2251
     1.2316   1.2328   1.2366   1.2407   1.2420   1.2470   1.2501   1.2532
     1.2608   1.2627   1.2652   1.2702   1.2727   1.2751   1.2802   1.2834
     1.2851   1.2886   1.2914   1.2963   1.3002   1.3052   1.3079   1.3105
     1.3127   1.3144   1.3156   1.3171   1.3261   1.3303   1.3345   1.3413
     1.3452   1.3516   1.3525   1.3625   1.3638   1.3697   1.3722   1.3748
     1.3838   1.3888   1.3965   1.4020   1.4045   1.4110   1.4152   1.4187
     1.4198   1.4232   1.4284   1.4344   1.4373   1.4409   1.4441   1.4504
     1.4517   1.4557   1.4573   1.4610   1.4702   1.4706   1.4753   1.4767
     1.4841   1.4873   1.4921   1.4958   1.4990   1.5003   1.5012   1.5029
     1.5046   1.5066   1.5155   1.5172   1.5216   1.5226   1.5251   1.5333
     1.5382   1.5404   1.5440   1.5455   1.5469   1.5521   1.5602   1.5644
     1.5658   1.5707   1.5891   1.5906   1.5944   1.5983   1.6046   1.6099
     1.6195   1.6293   1.6318   1.6336   1.6498   1.6645   1.6650   1.7189
     1.7207   1.7348   1.7555   1.8014   1.8052   1.8099   1.8222   1.8244
     1.8264   1.8460   1.8574   1.8604   1.8656   1.8737   2.0498   2.1015
     2.2064   2.2089   2.2376   2.2410   2.3281   2.3940   2.6637   2.6671
     2.7976   2.8009   2.8382   2.8474   2.8664   2.8723   2.9006   2.9383
     3.0230   3.0654   3.0683   3.1878   3.5118   3.5257   3.5693   3.6044
     3.6458   3.7844   3.9019   3.9086   3.9236   3.9653   4.0421   4.0579
     4.0827   4.1665   4.1724   4.2431   4.2460   4.4498   4.4518   4.5468
     4.5534   4.6087   4.7125   4.7254   4.7441   4.7553   4.8544   4.8745
     4.9635   5.0014   5.0432   5.1073   5.1090   5.2427   5.3270   5.3598
     5.3946   5.5010   5.5079   5.5426   5.6029   5.6542   5.8183   5.8308
     5.8358   5.8533   5.9552   6.1341   6.2263   6.2977   6.4649   6.4909
     6.6465   6.6508   6.6793   6.7512   6.7913   6.8150   6.8395   6.9530
     6.9760   7.0227   7.0468   7.1121   7.2134   7.2173   7.2831   7.2933
     7.3052   7.3177   7.3744   7.3985   7.4621   7.5001   7.5243   7.5689
     7.6443   7.7070   7.7647   7.7853   7.8291   7.8605   7.8847   8.0477
     8.1365   8.2507   8.2729   8.3717   8.4216   8.5366   8.5500   8.5728
     8.5962   8.6174   8.6256   8.6721   8.7159   8.7443   8.7904   8.8070
     8.8128   8.8724   8.9070   8.9304   9.0232   9.0490   9.1030   9.1443
     9.1657   9.1964   9.2404   9.2623   9.2735   9.2984   9.3177   9.3428
     9.3845   9.4276   9.4492   9.4945   9.5006   9.5640   9.6566   9.6745
     9.8503   9.9083   9.9437   9.9560

          k =-0.5000 0.0000 0.0000 (256496 PWs)   bands (ev):

   -16.8057 -15.6045 -15.3423 -15.2274 -15.1869 -15.1409 -14.4238 -14.2555
   -14.1187 -14.0901 -12.8609 -12.5806 -12.4176 -12.3477 -12.0820 -12.0434
   -11.5121 -11.4633 -11.4139 -11.3735 -10.8817 -10.8381 -10.7854 -10.6722
   -10.5046  -9.9522  -9.9396  -9.6978  -9.3609  -8.8197  -8.7991  -8.6235
    -8.6071  -7.5383  -7.3508  -7.3155  -7.1618  -7.0766  -7.0603  -5.9415
    -5.8924  -5.4676  -5.2021  -5.1970  -4.9343  -4.8322  -4.7193  -4.6954
    -4.6932  -4.6884  -4.5475  -4.5387  -4.4999  -4.4457  -4.3882  -4.3624
    -4.3395  -4.3105  -4.2626  -4.2466  -4.2228  -4.1896  -4.0915  -4.0878
    -4.0059  -3.9776  -3.7622  -3.7181  -3.6635  -3.6048  -3.5562  -3.5137
    -3.3988  -3.3120  -3.3101  -3.3083  -3.3030  -3.2981  -3.2219  -3.1664
    -3.1471  -3.1290  -3.0914  -3.0681  -3.0577  -2.7400  -2.6036  -2.5924
    -2.5651  -2.5481  -2.5398  -2.5323  -2.5258  -2.5116  -2.5091  -2.4735
    -2.2853  -2.2693  -2.2444  -2.2143  -2.1282  -1.9548  -1.9425  -1.7959
    -1.7827  -1.7824  -1.7816  -1.7795  -1.7767  -1.7696  -1.6927  -1.6892
    -1.6853  -1.6062  -1.5815  -1.5549  -1.5538  -1.5516  -1.5503  -1.5416
    -1.5094  -1.5058  -1.4996  -1.4946  -1.4321  -1.4201  -1.4132  -1.4037
    -1.3898  -1.3315  -1.3254  -1.3232  -1.3208  -1.3156  -1.3143  -1.2773
    -1.2696  -1.2592  -1.2531  -1.2503  -1.2496  -1.2485  -1.2455  -1.2367
    -1.2308  -1.2206  -1.2164  -1.2046  -1.2032  -1.1991  -1.1877  -1.1825
    -1.1700  -1.1676  -1.1670  -1.1648  -1.1150  -1.1137  -1.1082  -1.0896
    -1.0874  -1.0830  -1.0780  -1.0721  -1.0691  -1.0460  -1.0411  -1.0352
    -1.0264  -1.0192  -1.0137  -1.0110  -0.9996  -0.9977  -0.9805  -0.9788
    -0.9720  -0.9710  -0.9152  -0.9096  -0.8915  -0.8889  -0.8839  -0.8812
    -0.8653  -0.8616  -0.8584  -0.8558  -0.8334  -0.8329  -0.8284  -0.8268
    -0.8205  -0.8184  -0.8164  -0.8160  -0.8134  -0.8002  -0.7933  -0.7337
    -0.7317  -0.7295  -0.7260  -0.7246  -0.7008  -0.6966  -0.6214  -0.6164
    -0.6118  -0.6113  -0.6055  -0.5945  -0.5773  -0.5715  -0.5701  -0.5659
    -0.5624  -0.5521  -0.5328  -0.5212  -0.5135  -0.5058  -0.5001  -0.4969
    -0.4966  -0.4958  -0.4937  -0.4867  -0.4843  -0.4751  -0.4730  -0.3635
    -0.3618  -0.3603  -0.3491  -0.3477  -0.3381  -0.3323  -0.3249  -0.3183
    -0.3158  -0.3148  -0.3145  -0.3129  -0.3002  -0.2855  -0.2770  -0.2737
    -0.2730  -0.2497  -0.2417  -0.2401  -0.2321  -0.2308  -0.2280  -0.2140
    -0.2112  -0.2064  -0.2059  -0.2034  -0.2019  -0.1992  -0.1951  -0.1894
    -0.1874  -0.1591  -0.1560  -0.1468  -0.1427  -0.1191  -0.1175  -0.1154
    -0.1132  -0.0741  -0.0656  -0.0634  -0.0603  -0.0588  -0.0494  -0.0486
    -0.0424  -0.0351  -0.0309  -0.0120  -0.0085   0.0047   0.0073   0.0111
     0.0210   0.0253   0.0505   0.0518   0.0620   0.0644   0.0657   0.0680
     0.0692   0.0720   0.0754   0.0769   0.0789   0.0824   0.1127   0.1373
     0.1461   0.1481   0.1503   0.1547   0.1590   0.1607   0.1635   0.1644
     0.1653   0.1690   0.1709   0.1740   0.1765   0.1789   0.1797   0.1852
     0.1857   0.1924   0.1985   0.1990   0.2034   0.2072   0.2134   0.2152
     0.2177   0.2191   0.2214   0.2238   0.2312   0.2323   0.2346   0.2500
     0.2517   0.2571   0.2600   0.2759   0.2786   0.2841   0.2852   0.3004
     0.3353   0.3473   0.3610   0.3649   0.3781   0.3798   0.3837   0.3878
     0.4036   0.4066   0.4089   0.4130   0.4202   0.4376   0.4382   0.4413
     0.4466   0.4479   0.4580   0.4648   0.4707   0.4760   0.4795   0.4811
     0.4837   0.4867   0.4893   0.4938   0.4958   0.4981   0.4997   0.5053
     0.5064   0.5097   0.5274   0.5505   0.5744   0.5788   0.5803   0.5905
     0.5943   0.6013   0.6078   0.6105   0.6154   0.6181   0.6210   0.6242
     0.6274   0.6318   0.6334   0.6370   0.6416   0.6431   0.6445   0.6481
     0.6515   0.6556   0.6576   0.6580   0.6608   0.6647   0.6768   0.6812
     0.6849   0.6961   0.7038   0.7105   0.7196   0.7255   0.7276   0.7286
     0.7315   0.7336   0.7372   0.7382   0.7393   0.7454   0.7457   0.7484
     0.7533   0.7544   0.7563   0.7634   0.7652   0.7808   0.7850   0.8055
     0.8083   0.8129   0.8135   0.8219   0.8243   0.8264   0.8310   0.8393
     0.8545   0.8560   0.8605   0.8645   0.8681   0.8781   0.8841   0.8901
     0.8999   0.9028   0.9119   0.9159   0.9181   0.9208   0.9213   0.9242
     0.9282   0.9338   0.9370   0.9394   0.9411   0.9432   0.9474   0.9540
     0.9583   0.9612   0.9764   0.9785   0.9795   0.9809   0.9832   0.9956
     0.9968   0.9976   1.0047   1.0070   1.0198   1.0218   1.0265   1.0283
     1.0568   1.0836   1.0879   1.0934   1.0993   1.1020   1.1033   1.1059
     1.1126   1.1180   1.1241   1.1293   1.1429   1.1463   1.1495   1.1524
     1.1671   1.1686   1.1764   1.1781   1.1882   1.1917   1.1941   1.1973
     1.1978   1.1980   1.2016   1.2064   1.2087   1.2139   1.2149   1.2208
     1.2216   1.2233   1.2244   1.2301   1.2325   1.2352   1.2382   1.2391
     1.2421   1.2444   1.2451   1.2546   1.2582   1.2623   1.2894   1.2900
     1.2917   1.2936   1.2978   1.2999   1.3113   1.3138   1.3173   1.3181
     1.3193   1.3200   1.3249   1.3260   1.3267   1.3289   1.3317   1.3322
     1.3399   1.3473   1.3691   1.3740   1.3776   1.3792   1.3822   1.3830
     1.3848   1.3851   1.3884   1.3922   1.3950   1.3953   1.3969   1.4013
     1.4080   1.4123   1.4154   1.4163   1.4178   1.4196   1.4239   1.4249
     1.4268   1.4312   1.4365   1.4378   1.4390   1.4410   1.4455   1.4464
     1.4478   1.4508   1.4582   1.4603   1.4843   1.4862   1.4870   1.4883
     1.4936   1.4953   1.4979   1.5006   1.5057   1.5110   1.5165   1.5187
     1.5189   1.5248   1.5272   1.5286   1.5305   1.5405   1.5433   1.5444
     1.5479   1.5536   1.5681   1.5703   1.5717   1.5737   1.5745   1.5773
     1.5870   1.5879   1.5930   1.5957   1.5966   1.5997   1.6078   1.6137
     1.6331   1.6481   1.6526   1.6596   1.6718   1.6852   1.6876   1.6891
     1.7015   1.7146   2.0643   2.0737   2.0915   2.1152   2.2569   2.2767
     2.3146   2.3201   2.3715   2.3723   2.3753   2.3770   2.5876   2.6090
     2.6409   2.8046   2.9039   2.9120   2.9141   2.9523   3.2632   3.2679
     3.2746   3.2792   3.5239   3.5461   3.7290   3.7496   3.7650   3.8077
     3.9595   3.9720   3.9848   4.0013   4.0695   4.0957   4.1398   4.1580
     4.1588   4.2018   4.2303   4.6080   4.6349   4.6703   4.7290   4.7591
     4.8308   4.8741   4.9007   4.9237   4.9346   4.9502   5.0787   5.0871
     5.0961   5.1067   5.1110   5.1242   5.1313   5.1348   5.1527   5.1869
     5.3058   5.4237   5.4575   5.4716   5.4960   5.5185   5.5495   5.5611
     5.5778   5.6300   5.9249   5.9759   5.9917   6.0246   6.0322   6.0427
     6.0520   6.0781   6.0867   6.1176   6.2258   6.2633   6.3219   6.4301
     6.5030   6.6283   6.7040   6.7511   7.0362   7.0547   7.0916   7.1010
     7.1297   7.2288   7.4959   7.5453   7.5663   7.6137   7.6351   7.6441
     7.6516   7.7028   7.8025   7.8314   7.8619   7.9025   7.9311   7.9350
     7.9540   7.9889   8.0160   8.0394   8.0683   8.0769   8.1079   8.1741
     8.1940   8.4730   8.6419   8.6685   8.6993   8.7617   8.8255   8.8443
     8.8487   8.8554   8.9903   9.0128   9.0211   9.0248   9.0666   9.0954
     9.1372   9.3093   9.3262   9.3635   9.4132   9.4355   9.4443   9.4538
     9.4997   9.5188   9.5225   9.5259   9.5269   9.5616   9.5817   9.6208
     9.6514   9.7130   9.9182   9.9394

          k =-0.5000-0.2165 0.0000 (256328 PWs)   bands (ev):

   -16.8056 -15.5800 -15.4167 -15.3609 -14.9979 -14.8259 -14.7458 -14.7032
   -13.7106 -13.4735 -13.3343 -13.2994 -12.3161 -12.0668 -11.6349 -11.5891
   -11.5658 -11.4362 -11.3662 -11.2576 -11.1746 -11.1466 -11.0227 -11.0005
   -10.7470  -9.6991  -9.6751  -9.3959  -9.3441  -8.9360  -8.5726  -8.4806
    -8.4249  -7.9748  -7.9395  -7.7080  -7.6820  -6.2722  -5.9880  -5.8611
    -5.6746  -5.5497  -5.3398  -5.0847  -5.0763  -5.0656  -5.0618  -5.0615
    -4.9678  -4.9642  -4.8171  -4.5683  -4.5596  -4.5119  -4.3057  -4.1750
    -4.1206  -4.1014  -4.0840  -4.0678  -4.0576  -4.0352  -3.9965  -3.9844
    -3.8758  -3.8595  -3.8556  -3.8235  -3.7654  -3.6500  -3.6033  -3.5937
    -3.4710  -3.4383  -3.4181  -3.3894  -3.3195  -3.3111  -3.2811  -3.2011
    -3.1452  -3.1318  -3.1184  -3.0876  -2.7351  -2.6888  -2.6433  -2.5352
    -2.4933  -2.4771  -2.4754  -2.4741  -2.4719  -2.4601  -2.4295  -2.3851
    -2.3073  -2.2391  -2.1650  -2.1010  -1.9738  -1.9727  -1.9713  -1.9694
    -1.9630  -1.9533  -1.9420  -1.8788  -1.8483  -1.7986  -1.7539  -1.7125
    -1.7025  -1.7024  -1.6949  -1.6884  -1.5010  -1.4947  -1.4919  -1.4848
    -1.4191  -1.4064  -1.4038  -1.4010  -1.3977  -1.3946  -1.3790  -1.3745
    -1.3434  -1.3399  -1.3286  -1.3268  -1.3119  -1.3054  -1.2927  -1.2850
    -1.2810  -1.2801  -1.2765  -1.2743  -1.2722  -1.2603  -1.2590  -1.2576
    -1.2541  -1.2139  -1.2117  -1.1976  -1.1896  -1.1818  -1.1730  -1.1650
    -1.1166  -1.1147  -1.1092  -1.1073  -1.0942  -1.0886  -1.0856  -1.0808
    -1.0695  -1.0632  -1.0526  -1.0499  -1.0468  -1.0438  -1.0417  -1.0333
    -1.0289  -1.0240  -1.0228  -1.0153  -1.0078  -0.9985  -0.9927  -0.9839
    -0.9800  -0.9746  -0.9702  -0.9657  -0.9639  -0.9445  -0.9421  -0.9352
    -0.9296  -0.9280  -0.9269  -0.9229  -0.9200  -0.8333  -0.7909  -0.7823
    -0.7726  -0.7710  -0.7645  -0.7633  -0.7618  -0.7610  -0.7562  -0.7501
    -0.6946  -0.6882  -0.6832  -0.6813  -0.6744  -0.6740  -0.6607  -0.6589
    -0.6566  -0.6554  -0.6514  -0.6500  -0.6121  -0.6064  -0.6043  -0.6019
    -0.6005  -0.5923  -0.5845  -0.5781  -0.5745  -0.5700  -0.5298  -0.5274
    -0.4880  -0.4748  -0.4665  -0.4595  -0.4371  -0.4342  -0.4327  -0.4320
    -0.4078  -0.4067  -0.3989  -0.3973  -0.3578  -0.3566  -0.3527  -0.3511
    -0.3375  -0.3362  -0.3251  -0.3213  -0.3079  -0.3005  -0.2984  -0.2942
    -0.2919  -0.2803  -0.2793  -0.2753  -0.2259  -0.2219  -0.2133  -0.2046
    -0.2022  -0.2001  -0.1786  -0.1744  -0.1610  -0.1599  -0.1544  -0.1530
    -0.1528  -0.1497  -0.1446  -0.1359  -0.1198  -0.0915  -0.0870  -0.0835
    -0.0785  -0.0775  -0.0724  -0.0702  -0.0654  -0.0561  -0.0540  -0.0520
    -0.0502  -0.0332  -0.0323  -0.0312  -0.0262  -0.0197  -0.0174  -0.0114
    -0.0055   0.0029   0.0046   0.0109   0.0134   0.0292   0.0400   0.0621
     0.0683   0.0688   0.0724   0.1048   0.1167   0.1262   0.1357   0.1418
     0.1419   0.1424   0.1464   0.1543   0.1606   0.1661   0.1729   0.1761
     0.1789   0.1817   0.1851   0.1889   0.1906   0.1956   0.1978   0.1989
     0.2029   0.2040   0.2083   0.2095   0.2115   0.2127   0.2144   0.2170
     0.2237   0.2375   0.2395   0.2478   0.2532   0.2585   0.2594   0.2623
     0.2665   0.2792   0.2817   0.2825   0.2938   0.2975   0.3072   0.3224
     0.3275   0.3340   0.3398   0.3417   0.3473   0.3634   0.3794   0.3888
     0.4003   0.4044   0.4052   0.4367   0.4385   0.4457   0.4505   0.4563
     0.4591   0.4698   0.4839   0.4842   0.4851   0.4875   0.4960   0.4984
     0.5024   0.5054   0.5157   0.5202   0.5340   0.5417   0.5460   0.5473
     0.5517   0.5575   0.5590   0.5605   0.5609   0.5623   0.5634   0.5664
     0.5726   0.5828   0.5877   0.5884   0.5912   0.5951   0.5994   0.6029
     0.6199   0.6221   0.6298   0.6388   0.6407   0.6493   0.6501   0.6554
     0.6566   0.6611   0.6660   0.6693   0.6749   0.6757   0.6769   0.6786
     0.7023   0.7057   0.7062   0.7089   0.7096   0.7117   0.7131   0.7168
     0.7173   0.7242   0.7288   0.7421   0.7553   0.7587   0.7644   0.7672
     0.7678   0.7722   0.7790   0.7856   0.7862   0.7905   0.7923   0.7956
     0.8123   0.8148   0.8167   0.8197   0.8217   0.8219   0.8271   0.8300
     0.8350   0.8376   0.8415   0.8477   0.8529   0.8609   0.8633   0.8659
     0.8732   0.8938   0.8996   0.9046   0.9078   0.9111   0.9233   0.9364
     0.9381   0.9402   0.9496   0.9540   0.9574   0.9596   0.9605   0.9662
     0.9930   1.0011   1.0110   1.0144   1.0250   1.0322   1.0325   1.0377
     1.0470   1.0600   1.0621   1.0687   1.0712   1.0736   1.0753   1.0784
     1.0829   1.0946   1.0960   1.1007   1.1103   1.1153   1.1175   1.1195
     1.1210   1.1239   1.1262   1.1271   1.1290   1.1311   1.1316   1.1345
     1.1376   1.1409   1.1422   1.1457   1.1476   1.1495   1.1522   1.1601
     1.1631   1.1657   1.1688   1.1704   1.1739   1.1770   1.1812   1.1898
     1.1939   1.1980   1.2050   1.2072   1.2106   1.2119   1.2183   1.2237
     1.2249   1.2259   1.2287   1.2326   1.2687   1.2772   1.2784   1.2797
     1.2819   1.2838   1.2873   1.2905   1.2908   1.2938   1.2963   1.2998
     1.3021   1.3051   1.3071   1.3097   1.3106   1.3126   1.3136   1.3529
     1.3608   1.3612   1.3622   1.3639   1.3647   1.3655   1.3665   1.3693
     1.3698   1.3725   1.3769   1.3840   1.4129   1.4146   1.4180   1.4195
     1.4259   1.4290   1.4345   1.4354   1.4381   1.4408   1.4412   1.4423
     1.4438   1.4448   1.4454   1.4481   1.4491   1.4493   1.4533   1.4561
     1.4585   1.4638   1.4656   1.4731   1.4750   1.4805   1.4813   1.4823
     1.4831   1.4852   1.4880   1.4929   1.4969   1.4976   1.5061   1.5203
     1.5228   1.5236   1.5259   1.5273   1.5288   1.5439   1.5459   1.5478
     1.5578   1.5607   1.5645   1.5824   1.5833   1.5845   1.5867   1.5925
     1.6134   1.6150   1.6171   1.6184   1.6496   1.6517   1.6567   1.6606
     1.6620   1.6673   1.6680   1.6768   1.6852   1.6906   1.6958   1.7013
     1.7027   1.7064   1.7086   1.7847   1.9111   1.9148   1.9186   1.9364
     2.3024   2.3071   2.3854   2.4909   2.6291   2.6364   2.6377   2.6591
     2.8277   2.8326   2.8531   2.8586   3.0658   3.0959   3.1206   3.2839
     3.5374   3.5400   3.5404   3.5408   3.6836   3.6876   3.7169   3.7636
     4.0134   4.0158   4.0183   4.0215   4.1639   4.1832   4.2371   4.2638
     4.2906   4.3099   4.3122   4.3156   4.3798   4.5526   4.5651   4.6103
     4.6552   4.7431   4.7520   4.7751   4.7926   4.9736   5.0825   5.1557
     5.1669   5.1874   5.1971   5.2092   5.2258   5.2347   5.2447   5.2648
     5.2654   5.2995   5.3374   5.3763   5.4235   5.4348   5.5082   5.5224
     5.6145   5.6218   5.7405   5.7754   5.7856   5.7914   5.8127   5.8207
     5.8304   5.9706   6.0139   6.0489   6.7044   6.7241   6.9874   7.0253
     7.0440   7.0542   7.0669   7.0891   7.1001   7.1155   7.1350   7.1497
     7.1773   7.1887   7.2495   7.2595   7.3516   7.3908   7.4140   7.4602
     7.4799   7.5055   7.5406   7.6590   7.7942   7.8886   7.8975   7.9408
     8.0602   8.1238   8.1574   8.1913   8.2101   8.2312   8.2503   8.2805
     8.3258   8.4110   8.4195   8.5152   8.8775   8.8864   8.8965   8.8977
     8.9331   8.9567   8.9719   8.9744   9.0065   9.0349   9.0621   9.0754
     9.1207   9.1241   9.1749   9.1855   9.2778   9.3013   9.3229   9.3461
     9.3798   9.4006   9.4228   9.4280   9.4430   9.4807   9.5202   9.6111
     9.7037   9.7848   9.9436   9.9535

     the Fermi energy is     3.4029 ev

!    total energy              =  -12723.07202010 Ry
     Harris-Foulkes estimate   =  -12723.07202009 Ry
     estimated scf accuracy    <          8.2E-09 Ry

     The total energy is the sum of the following terms:

     one-electron contribution =  -99704.34610033 Ry
     hartree contribution      =   51221.73963496 Ry
     xc contribution           =   -4452.96950009 Ry
     ewald contribution        =   40218.68347647 Ry
     Dispersion Correction     =      -2.81045542 Ry
     smearing contrib. (-TS)   =      -3.36907568 Ry

     convergence has been achieved in  45 iterations

     Writing output data file gc.save
 
     init_run     :     99.16s CPU    106.20s WALL (       1 calls)
     electrons    :  13586.07s CPU  14508.61s WALL (       1 calls)

     Called by init_run:
     wfcinit      :     96.74s CPU    103.45s WALL (       1 calls)
     potinit      :      0.42s CPU      0.43s WALL (       1 calls)

     Called by electrons:
     c_bands      :  12594.34s CPU  13417.91s WALL (      45 calls)
     sum_band     :    837.45s CPU    910.70s WALL (      45 calls)
     v_of_rho     :      3.06s CPU      3.65s WALL (      46 calls)
     newd         :      8.49s CPU     14.43s WALL (      46 calls)
     mix_rho      :    142.63s CPU    161.51s WALL (      45 calls)

     Called by c_bands:
     init_us_2    :     37.46s CPU     38.09s WALL (     546 calls)
     cegterg      :  12429.60s CPU  13247.05s WALL (     282 calls)

     Called by sum_band:
     sum_band:bec :      4.79s CPU      5.46s WALL (     270 calls)
     addusdens    :      8.31s CPU     14.24s WALL (      45 calls)

     Called by *egterg:
     h_psi        :   4402.92s CPU   4754.98s WALL (    2125 calls)
     s_psi        :   1065.64s CPU   1078.57s WALL (    2125 calls)
     g_psi        :     11.38s CPU     11.39s WALL (    1837 calls)
     cdiaghg      :   3770.69s CPU   3922.25s WALL (    2112 calls)

     Called by h_psi:
     add_vuspsi   :   1071.48s CPU   1086.95s WALL (    2125 calls)

     General routines
     calbec       :   1496.61s CPU   1507.41s WALL (    2395 calls)
     fft          :      3.57s CPU      4.05s WALL (     597 calls)
     ffts         :     82.62s CPU     93.84s WALL (   22014 calls)
     fftw         :   2501.29s CPU   2778.55s WALL ( 1387496 calls)
     davcio       :      0.28s CPU      3.40s WALL (       6 calls)
 
     Parallel routines
     fft_scatter  :   1608.90s CPU   1760.81s WALL ( 1410107 calls)
 
     PWSCF        :     3h48m CPU        4h 3m WALL

 
   This run was terminated on:  13: 7: 8   1May2017            

=------------------------------------------------------------------------------=
   JOB DONE.
=------------------------------------------------------------------------------=
