mpirun: INFO: switching to OpenMPI runtime version 1.10.2

     Program PWSCF v.5.4.0 starts on 16Sep2017 at 18: 4:38 

     This program is part of the open-source Quantum ESPRESSO suite
     for quantum simulation of materials; please cite
         "P. Giannozzi et al., J. Phys.:Condens. Matter 21 395502 (2009);
          URL http://www.quantum-espresso.org", 
     in publications or presentations arising from this work. More details at
     http://www.quantum-espresso.org/quote

     Parallel version (MPI & OpenMP), running on      28 processor cores
     Number of MPI processes:                28
     Threads/MPI process:                     1
     R & G space division:  proc/nbgrp/npool/nimage =      28
     Waiting for input...
     Reading input from standard input
Warning: card &IONS ignored
Warning: card / ignored

     Current dimensions of program PWSCF are:
     Max number of different atomic species (ntypx) = 10
     Max number of k-points (npk) =  40000
     Max angular momentum in pseudopotentials (lmaxx) =  3
     WARNING: atomic wfc #  2 for atom type 4 has zero norm
     WARNING: atomic wfc #  4 for atom type 4 has zero norm
     WARNING: atomic wfc #  5 for atom type 4 has zero norm

     -------------------------------------
     Parameters for Dispersion Correction:
     -------------------------------------
       atom      VdW radius       C_6     

        Cu         2.952        374.666
        C_h        2.744         60.710
        C          2.744         60.710
        O          2.536         24.284
        H          1.892          4.857

     Subspace diagonalization in iterative solution of the eigenvalue problem:
     one sub-group per band group will be used
     scalapack distributed-memory algorithm (size of sub-group:  3*  3 procs)

 
     Parallelization info
     --------------------
     sticks:   dense  smooth     PW     G-vecs:    dense   smooth      PW
     Min         408     408    108                73226    73226    9928
     Max         410     410    109                73231    73231    9931
     Sum       11433   11433   3039              2050409  2050409  278033
 


     bravais-lattice index     =            0
     lattice parameter (alat)  =      13.9425  a.u.
     unit-cell volume          =   21209.0878 (a.u.)^3
     number of atoms/cell      =          139
     number of atomic types    =            5
     number of electrons       =      1242.00
     number of Kohn-Sham states=          745
     kinetic-energy cutoff     =      80.0000  Ry
     charge density cutoff     =     320.0000  Ry
     convergence threshold     =      1.0E-08
     mixing beta               =       0.7000
     number of iterations used =            8  local-TF  mixing
     Exchange-correlation      =  SLA  PW   PBE  PBE ( 1  4  3  4 0 0)

     celldm(1)=  13.942539  celldm(2)=   0.000000  celldm(3)=   0.000000
     celldm(4)=   0.000000  celldm(5)=   0.000000  celldm(6)=   0.000000

     crystal axes: (cart. coord. in units of alat)
               a(1) = (   1.000000   0.000000   0.000000 )  
               a(2) = (   0.000000   2.309401   0.000000 )  
               a(3) = (   0.000000   0.000000   3.388418 )  

     reciprocal axes: (cart. coord. in units 2 pi/alat)
               b(1) = (  1.000000  0.000000  0.000000 )  
               b(2) = (  0.000000  0.433013  0.000000 )  
               b(3) = (  0.000000  0.000000  0.295123 )  


     PseudoPot. # 1 for Cu read from file:
     /home/549/hxw549/Short/pseudopotentials/Cu.pbe-n-van_ak.UPF
     MD5 check sum: 601f7c30f7467666bec936e0661ce3e1
     Pseudo is Ultrasoft + core correction, Zval = 11.0
     Generated by new atomic code, or converted to UPF format
     Using radial grid of  867 points,  6 beta functions with: 
                l(1) =   0
                l(2) =   0
                l(3) =   1
                l(4) =   1
                l(5) =   2
                l(6) =   2
     Q(r) pseudized with  8 coefficients,  rinner =    1.400   1.400   1.400
                                                       1.400   1.400

     PseudoPot. # 2 for C  read from file:
     /home/549/hxw549/Short/pseudopotentials/C.star1s-pbe-mt_gipaw.UPF
     MD5 check sum: ef0cb3dee31bd9e4ba2a832a2c716264
     Pseudo is Norm-conserving, Zval =  5.0
     Generated by new atomic code, or converted to UPF format
     Using radial grid of 1073 points,  1 beta functions with: 
                l(1) =   0

     PseudoPot. # 3 for C  read from file:
     /home/549/hxw549/Short/pseudopotentials/C.pbe-mt_gipaw.UPF
     MD5 check sum: 5ac2f21f2c440b14befe521540822c15
     Pseudo is Norm-conserving, Zval =  4.0
     Generated by new atomic code, or converted to UPF format
     Using radial grid of 1073 points,  1 beta functions with: 
                l(1) =   0

     PseudoPot. # 4 for O  read from file:
     /home/549/hxw549/Short/pseudopotentials/O.pbe-van_gipaw.UPF
     MD5 check sum: 5ce2a047509d4f331db576c963e74b29
     Pseudo is Ultrasoft, Zval =  6.0
     Generated by new atomic code, or converted to UPF format
     Using radial grid of 1095 points,  4 beta functions with: 
                l(1) =   0
                l(2) =   0
                l(3) =   1
                l(4) =   1
     Q(r) pseudized with 0 coefficients 


     PseudoPot. # 5 for H  read from file:
     /home/549/hxw549/Short/pseudopotentials/H.pbe-van_ak.UPF
     MD5 check sum: 077eb6d537518a38cb46c6de387227b7
     Pseudo is Ultrasoft, Zval =  1.0
     Generated by new atomic code, or converted to UPF format
     Using radial grid of  615 points,  1 beta functions with: 
                l(1) =   0
     Q(r) pseudized with  8 coefficients,  rinner =    0.800

     atomic species   valence    mass     pseudopotential
        Cu            11.00    63.54600     Cu( 1.00)
        C_h            5.00    12.01070     C ( 1.00)
        C              4.00    12.01070     C ( 1.00)
        O              6.00    15.99940     O ( 1.00)
        H              1.00     1.00783     H ( 1.00)

     No symmetry found



   Cartesian axes

     site n.     atom                  positions (alat units)
         1           Cu  tau(   1) = (  -0.0010640  -0.0023908   1.0046138  )
         2           Cu  tau(   2) = (   0.2492312   0.2287438   1.0043535  )
         3           Cu  tau(   3) = (   0.4997213  -0.0020557   1.0044178  )
         4           Cu  tau(   4) = (   0.7494458   0.2297361   1.0044330  )
         5           Cu  tau(   5) = (  -0.0003137   0.4611849   1.0049174  )
         6           Cu  tau(   6) = (   0.2493451   0.6933339   1.0051902  )
         7           Cu  tau(   7) = (   0.4989850   0.4609350   1.0047007  )
         8           Cu  tau(   8) = (   0.7493025   0.6926311   1.0049004  )
         9           Cu  tau(   9) = (  -0.0009524   0.9253608   1.0047609  )
        10           Cu  tau(  10) = (   0.2493354   1.1572557   1.0045765  )
        11           Cu  tau(  11) = (   0.4995584   0.9253176   1.0049044  )
        12           Cu  tau(  12) = (   0.7492457   1.1577467   1.0049301  )
        13           Cu  tau(  13) = (  -0.0007607   1.3884523   1.0051980  )
        14           Cu  tau(  14) = (   0.2492853   1.6181647   1.0059253  )
        15           Cu  tau(  15) = (   0.4993115   1.3886309   1.0054232  )
        16           Cu  tau(  16) = (   0.7492725   1.6184104   1.0057216  )
        17           Cu  tau(  17) = (  -0.0005173   1.8474410   1.0056666  )
        18           Cu  tau(  18) = (   0.2493732   2.0771941   1.0049712  )
        19           Cu  tau(  19) = (   0.4991007   1.8472417   1.0058485  )
        20           Cu  tau(  20) = (   0.7492518   2.0762819   1.0054449  )
        21           Cu  tau(  21) = (  -0.0009628   0.2289347   1.2519010  )
        22           Cu  tau(  22) = (   0.2489710  -0.0022349   1.2533118  )
        23           Cu  tau(  23) = (   0.4989967   0.2289318   1.2519859  )
        24           Cu  tau(  24) = (   0.7490469  -0.0016894   1.2526627  )
        25           Cu  tau(  25) = (  -0.0009870   0.6931250   1.2520313  )
        26           Cu  tau(  26) = (   0.2490671   0.4602952   1.2521070  )
        27           Cu  tau(  27) = (   0.4990229   0.6927300   1.2520111  )
        28           Cu  tau(  28) = (   0.7489647   0.4607580   1.2524746  )
        29           Cu  tau(  29) = (  -0.0010398   1.1572051   1.2525916  )
        30           Cu  tau(  30) = (   0.2490028   0.9259700   1.2519533  )
        31           Cu  tau(  31) = (   0.4990907   1.1572486   1.2527904  )
        32           Cu  tau(  32) = (   0.7490506   0.9253261   1.2514892  )
        33           Cu  tau(  33) = (  -0.0010799   1.6180392   1.2552412  )
        34           Cu  tau(  34) = (   0.2490387   1.3874055   1.2537251  )
        35           Cu  tau(  35) = (   0.4990463   1.6181047   1.2558878  )
        36           Cu  tau(  36) = (   0.7489693   1.3879951   1.2542289  )
        37           Cu  tau(  37) = (  -0.0009952   2.0772742   1.2548392  )
        38           Cu  tau(  38) = (   0.2490000   1.8482620   1.2554079  )
        39           Cu  tau(  39) = (   0.4989851   2.0775805   1.2544442  )
        40           Cu  tau(  40) = (   0.7489314   1.8476310   1.2563228  )
        41           Cu  tau(  41) = (  -0.0012033  -0.0009002   1.5028346  )
        42           Cu  tau(  42) = (   0.2488076   0.2280811   1.5019068  )
        43           Cu  tau(  43) = (   0.4983360  -0.0012160   1.5030626  )
        44           Cu  tau(  44) = (   0.7482862   0.2282454   1.5017748  )
        45           Cu  tau(  45) = (  -0.0015433   0.4596013   1.4997607  )
        46           Cu  tau(  46) = (   0.2486489   0.6933466   1.4985181  )
        47           Cu  tau(  47) = (   0.4986141   0.4593638   1.5006040  )
        48           Cu  tau(  48) = (   0.7484418   0.6939650   1.4999225  )
        49           Cu  tau(  49) = (  -0.0015404   0.9257492   1.5004063  )
        50           Cu  tau(  50) = (   0.2484450   1.1571046   1.5030467  )
        51           Cu  tau(  51) = (   0.4986878   0.9253575   1.5000131  )
        52           Cu  tau(  52) = (   0.7486901   1.1560980   1.5017044  )
        53           Cu  tau(  53) = (  -0.0011572   1.3870323   1.5040793  )
        54           Cu  tau(  54) = (   0.2484867   1.6171270   1.5041129  )
        55           Cu  tau(  55) = (   0.4984038   1.3866792   1.5045243  )
        56           Cu  tau(  56) = (   0.7485057   1.6168076   1.5059139  )
        57           Cu  tau(  57) = (  -0.0010914   1.8476653   1.5064678  )
        58           Cu  tau(  58) = (   0.2484724   2.0779001   1.5067307  )
        59           Cu  tau(  59) = (   0.4979889   1.8491510   1.5064335  )
        60           Cu  tau(  60) = (   0.7485533   2.0792749   1.5047190  )
        61           Cu  tau(  61) = (  -0.0019222   0.2289416   1.7514670  )
        62           Cu  tau(  62) = (   0.2486960  -0.0003758   1.7563792  )
        63           Cu  tau(  63) = (   0.4980501   0.2266587   1.7544323  )
        64           Cu  tau(  64) = (   0.7476580  -0.0005336   1.7552543  )
        65           Cu  tau(  65) = (  -0.0024978   0.6919427   1.7449505  )
        66           Cu  tau(  66) = (   0.2489494   0.4620369   1.7451989  )
        67           Cu  tau(  67) = (   0.4986401   0.6929206   1.7462139  )
        68           Cu  tau(  68) = (   0.7471573   0.4612677   1.7462891  )
        69           Cu  tau(  69) = (  -0.0022490   1.1551077   1.7522669  )
        70           Cu  tau(  70) = (   0.2479337   0.9232175   1.7482809  )
        71           Cu  tau(  71) = (   0.4979930   1.1537702   1.7510653  )
        72           Cu  tau(  72) = (   0.7481522   0.9264039   1.7517944  )
        73           Cu  tau(  73) = (  -0.0013438   1.6160444   1.7569223  )
        74           Cu  tau(  74) = (   0.2473888   1.3887366   1.7563479  )
        75           Cu  tau(  75) = (   0.4967195   1.6179955   1.7540683  )
        76           Cu  tau(  76) = (   0.7489944   1.3843056   1.7536950  )
        77           Cu  tau(  77) = (  -0.0014346   2.0803638   1.7543298  )
        78           Cu  tau(  78) = (   0.2477692   1.8439700   1.7574531  )
        79           Cu  tau(  79) = (   0.4973971   2.0816154   1.7572255  )
        80           Cu  tau(  80) = (   0.7477757   1.8484657   1.7520294  )
        81           Cu  tau(  81) = (  -0.0006906   0.0016644   2.0048429  )
        82           Cu  tau(  82) = (   0.2476176   0.2382039   1.9922077  )
        83           Cu  tau(  83) = (   0.4958204  -0.0008510   2.0180479  )
        84           Cu  tau(  84) = (   0.7476787   0.2351869   1.9930299  )
        85           Cu  tau(  85) = (  -0.0033193   0.4642546   1.9916281  )
        86           Cu  tau(  86) = (   0.2481683   0.6899900   1.9920284  )
        87           Cu  tau(  87) = (   0.4986928   0.4639115   1.9938652  )
        88           Cu  tau(  88) = (   0.7471334   0.6917038   1.9924937  )
        89           Cu  tau(  89) = (  -0.0016118   0.9180049   1.9910334  )
        90           Cu  tau(  90) = (   0.2473558   1.1518387   1.9952740  )
        91           Cu  tau(  91) = (   0.4965321   0.9197123   1.9936536  )
        92           Cu  tau(  92) = (   0.7455861   1.1534598   2.0079317  )
        93           Cu  tau(  93) = (  -0.0047623   1.3820067   2.0006047  )
        94           Cu  tau(  94) = (   0.2456251   1.6195374   2.0182367  )
        95           Cu  tau(  95) = (   0.4997626   1.3852378   1.9910704  )
        96           Cu  tau(  96) = (   0.7467821   1.6174470   2.0002908  )
        97           Cu  tau(  97) = (  -0.0069666   1.8498164   2.0011514  )
        98           Cu  tau(  98) = (   0.2462826   2.0740046   2.0003043  )
        99           Cu  tau(  99) = (   0.5007068   1.8487305   2.0023364  )
       100           Cu  tau( 100) = (   0.7483286   2.0781054   2.0000404  )
       101           C   tau( 101) = (   0.0029054   0.0872648   2.3682851  )
       102           C   tau( 102) = (   0.0029640   0.2822904   2.3806890  )
       103           C   tau( 103) = (   0.1695057  -0.0063212   2.3579075  )
       104           C   tau( 104) = (   0.1695706   0.3786582   2.3836558  )
       105           C   tau( 105) = (   0.3353655   0.0874796   2.3551009  )
       106           C   tau( 106) = (   0.3357967   0.2820207   2.3707387  )
       107           C   tau( 107) = (   0.5029335  -0.0056998   2.3294250  )
       108           C   tau( 108) = (   0.5027383   0.3790160   2.3743544  )
       109           C   tau( 109) = (   0.6704159   0.0878548   2.3547576  )
       110           C   tau( 110) = (   0.6699918   0.2824373   2.3703235  )
       111           C   tau( 111) = (   0.8361923  -0.0061260   2.3575369  )
       112           C   tau( 112) = (   0.8366011   0.3789160   2.3834557  )
       113           C   tau( 113) = (   0.0039914   0.6692637   2.3901638  )
       114           C   tau( 114) = (   0.0047886   0.8628183   2.3799876  )
       115           C   tau( 115) = (   0.1700523   0.5725106   2.3894660  )
       116           C   tau( 116) = (   0.1708227   0.9620580   2.3728989  )
       117           C   tau( 117) = (   0.3364157   0.6704142   2.3869740  )
       118           C   tau( 118) = (   0.3366336   0.8645112   2.3824567  )
       119           C   tau( 119) = (   0.5028532   0.5725996   2.3841996  )
       120           C   tau( 120) = (   0.5032938   0.9615900   2.3764364  )
       121           C   tau( 121) = (   0.6696582   0.6692635   2.3853739  )
       122           C   tau( 122) = (   0.6697515   0.8627502   2.3802298  )
       123           C   tau( 123) = (   0.8368768   0.5727868   2.3885314  )
       124           C   tau( 124) = (   0.8372862   0.9564921   2.3724215  )
       125           C   tau( 125) = (   0.0012861   1.2460736   2.3404574  )
       126           C   tau( 126) = (   0.1696514   1.1576429   2.3549811  )
       127           C_h tau( 127) = (   0.3379386   1.2570092   2.3615588  )
       128           C   tau( 128) = (   0.5046058   1.1563742   2.3655392  )
       129           C   tau( 129) = (   0.6721374   1.2425272   2.3358865  )
       130           C   tau( 130) = (   0.8374497   1.1482468   2.3484453  )
       131           H   tau( 131) = (   0.1694449  -0.1543018   2.3509582  )
       132           H   tau( 132) = (   0.5033915  -0.1534829   2.3385532  )
       133           H   tau( 133) = (   0.8366981  -0.1541085   2.3501637  )
       134           H   tau( 134) = (  -0.0054473   1.3935197   2.3405423  )
       135           H   tau( 135) = (   0.6793985   1.3888379   2.3243999  )
       136           C   tau( 136) = (   0.3363181   1.4541569   2.3637881  )
       137           O   tau( 137) = (   0.2171155   1.5576896   2.2915398  )
       138           O   tau( 138) = (   0.4734734   1.5386774   2.4557375  )
       139           H   tau( 139) = (   0.4604717   1.6689179   2.4276426  )

     number of k points=     6  gaussian smearing, width (Ry)=  0.1000
                       cart. coord. in units 2pi/alat
        k(    1) = (   0.0000000   0.0000000   0.0000000), wk =   0.2500000
        k(    2) = (   0.0000000  -0.2165064   0.0000000), wk =   0.2500000
        k(    3) = (   0.2500000   0.0000000   0.0000000), wk =   0.5000000
        k(    4) = (   0.2500000  -0.2165064   0.0000000), wk =   0.5000000
        k(    5) = (  -0.5000000   0.0000000   0.0000000), wk =   0.2500000
        k(    6) = (  -0.5000000  -0.2165064   0.0000000), wk =   0.2500000

     Dense  grid:  2050409 G-vectors     FFT dimensions: (  80, 192, 270)

     Largest allocated arrays     est. size (Mb)     dimensions
        Kohn-Sham Wavefunctions       104.25 Mb     (    9171,  745)
        NL pseudopotentials           259.31 Mb     (    9171, 1853)
        Each V/rho on FFT grid          2.34 Mb     (  153600)
        Each G-vector array             0.56 Mb     (   73230)
        G-vector shells                 0.27 Mb     (   35784)
     Largest temporary arrays     est. size (Mb)     dimensions
        Auxiliary wavefunctions       417.02 Mb     (    9171, 2980)
        Each subspace H/S matrix       15.05 Mb     (     993,  993)
        Each <psi_i|beta_j> matrix     21.06 Mb     (    1853,  745)
        Arrays for rho mixing          18.75 Mb     (  153600,    8)

     Initial potential from superposition of free atoms
     Check: negative starting charge=   -0.002132

     starting charge 1225.31748, renormalised to 1242.00000

     negative rho (up, down):  2.161E-03 0.000E+00
     Starting wfc are 1162 randomized atomic wfcs

     total cpu time spent up to now is      180.6 secs

     Self-consistent Calculation

     iteration #  1     ecut=    80.00 Ry     beta=0.70
     Davidson diagonalization with overlap
     c_bands:  1 eigenvalues not converged
     c_bands:  1 eigenvalues not converged
     ethr =  1.00E-04,  avg # of iterations = 20.0

     negative rho (up, down):  2.658E+01 0.000E+00

     total cpu time spent up to now is     3192.7 secs

     total energy              =   -8599.86613761 Ry
     Harris-Foulkes estimate   =  -15094.05047033 Ry
     estimated scf accuracy    <  145643.47844577 Ry

     iteration #  2     ecut=    80.00 Ry     beta=0.70
     Davidson diagonalization with overlap
     c_bands:  1 eigenvalues not converged
     ethr =  1.00E-02,  avg # of iterations = 13.2

     negative rho (up, down):  1.929E+01 0.000E+00

     total cpu time spent up to now is     4846.3 secs

     total energy              =  -12637.97257894 Ry
     Harris-Foulkes estimate   =  -13210.42803974 Ry
     estimated scf accuracy    <    1711.74458531 Ry

     iteration #  3     ecut=    80.00 Ry     beta=0.70
     Davidson diagonalization with overlap
     ethr =  1.00E-02,  avg # of iterations =  4.8

     negative rho (up, down):  1.671E+01 0.000E+00

     total cpu time spent up to now is     5483.3 secs

     total energy              =  -12722.58193623 Ry
     Harris-Foulkes estimate   =  -12783.73954713 Ry
     estimated scf accuracy    <    1252.48580440 Ry

     iteration #  4     ecut=    80.00 Ry     beta=0.70
     Davidson diagonalization with overlap
     ethr =  1.00E-02,  avg # of iterations =  4.0

     negative rho (up, down):  1.437E+01 0.000E+00

     total cpu time spent up to now is     5874.0 secs

     total energy              =  -12696.32737101 Ry
     Harris-Foulkes estimate   =  -12747.06841733 Ry
     estimated scf accuracy    <     842.01176650 Ry

     iteration #  5     ecut=    80.00 Ry     beta=0.70
     Davidson diagonalization with overlap
     ethr =  1.00E-02,  avg # of iterations =  3.7

     negative rho (up, down):  9.262E+00 0.000E+00

     total cpu time spent up to now is     6269.9 secs

     total energy              =  -12673.67156118 Ry
     Harris-Foulkes estimate   =  -12734.64262321 Ry
     estimated scf accuracy    <     580.28610640 Ry

     iteration #  6     ecut=    80.00 Ry     beta=0.70
     Davidson diagonalization with overlap
     ethr =  1.00E-02,  avg # of iterations =  5.2

     negative rho (up, down):  7.362E+00 0.000E+00

     total cpu time spent up to now is     6704.6 secs

     total energy              =  -12678.33210544 Ry
     Harris-Foulkes estimate   =  -12725.89135003 Ry
     estimated scf accuracy    <     527.06186217 Ry

     iteration #  7     ecut=    80.00 Ry     beta=0.70
     Davidson diagonalization with overlap
     ethr =  1.00E-02,  avg # of iterations =  2.8

     negative rho (up, down):  6.496E+00 0.000E+00

     total cpu time spent up to now is     7049.9 secs

     total energy              =  -12677.31122678 Ry
     Harris-Foulkes estimate   =  -12698.82931693 Ry
     estimated scf accuracy    <     377.21027845 Ry

     iteration #  8     ecut=    80.00 Ry     beta=0.70
     Davidson diagonalization with overlap
     ethr =  1.00E-02,  avg # of iterations =  1.0

     negative rho (up, down):  5.310E+00 0.000E+00

     total cpu time spent up to now is     7356.8 secs

     total energy              =  -12663.11405895 Ry
     Harris-Foulkes estimate   =  -12680.53290458 Ry
     estimated scf accuracy    <     271.46833770 Ry

     iteration #  9     ecut=    80.00 Ry     beta=0.70
     Davidson diagonalization with overlap
     ethr =  1.00E-02,  avg # of iterations =  1.0

     negative rho (up, down):  1.436E+00 0.000E+00

     total cpu time spent up to now is     7664.1 secs

     total energy              =  -12623.52412322 Ry
     Harris-Foulkes estimate   =  -12664.65013163 Ry
     estimated scf accuracy    <     183.49346393 Ry

     iteration # 10     ecut=    80.00 Ry     beta=0.70
     Davidson diagonalization with overlap
     ethr =  1.00E-02,  avg # of iterations =  2.0

     negative rho (up, down):  1.797E+00 0.000E+00

     total cpu time spent up to now is     7995.0 secs

     total energy              =  -12647.71730193 Ry
     Harris-Foulkes estimate   =  -12636.56828943 Ry
     estimated scf accuracy    <     546.03253534 Ry

     iteration # 11     ecut=    80.00 Ry     beta=0.70
     Davidson diagonalization with overlap
     ethr =  1.00E-02,  avg # of iterations =  2.5

     negative rho (up, down):  1.731E+00 0.000E+00

     total cpu time spent up to now is     8332.8 secs

     total energy              =  -12659.24419749 Ry
     Harris-Foulkes estimate   =  -12666.71606339 Ry
     estimated scf accuracy    <    2085.90049351 Ry

     iteration # 12     ecut=    80.00 Ry     beta=0.70
     Davidson diagonalization with overlap
     ethr =  1.00E-02,  avg # of iterations =  1.0

     negative rho (up, down):  1.290E+00 0.000E+00

     total cpu time spent up to now is     8641.6 secs

     total energy              =  -12671.11735995 Ry
     Harris-Foulkes estimate   =  -12660.29341515 Ry
     estimated scf accuracy    <    1803.04885515 Ry

     iteration # 13     ecut=    80.00 Ry     beta=0.70
     Davidson diagonalization with overlap
     ethr =  1.00E-02,  avg # of iterations =  4.0

     negative rho (up, down):  1.366E+00 0.000E+00

     total cpu time spent up to now is     9022.8 secs

     total energy              =  -12688.78542739 Ry
     Harris-Foulkes estimate   =  -12685.01053689 Ry
     estimated scf accuracy    <    1359.13477260 Ry

     iteration # 14     ecut=    80.00 Ry     beta=0.70
     Davidson diagonalization with overlap
     ethr =  1.00E-02,  avg # of iterations =  1.0

     negative rho (up, down):  1.622E+00 0.000E+00

     total cpu time spent up to now is     9333.9 secs

     total energy              =  -12714.96925194 Ry
     Harris-Foulkes estimate   =  -12692.14461947 Ry
     estimated scf accuracy    <    1375.02579883 Ry

     iteration # 15     ecut=    80.00 Ry     beta=0.70
     Davidson diagonalization with overlap
     ethr =  1.00E-02,  avg # of iterations =  1.0

     negative rho (up, down):  1.311E+00 0.000E+00

     total cpu time spent up to now is     9641.9 secs

     total energy              =  -12655.30864288 Ry
     Harris-Foulkes estimate   =  -12716.76562340 Ry
     estimated scf accuracy    <    1474.97121321 Ry

     iteration # 16     ecut=    80.00 Ry     beta=0.70
     Davidson diagonalization with overlap
     ethr =  1.00E-02,  avg # of iterations =  3.0

     negative rho (up, down):  1.142E+00 0.000E+00

     total cpu time spent up to now is     9989.0 secs

     total energy              =  -12583.74653708 Ry
     Harris-Foulkes estimate   =  -12660.60678262 Ry
     estimated scf accuracy    <    1630.20099669 Ry

     iteration # 17     ecut=    80.00 Ry     beta=0.70
     Davidson diagonalization with overlap
     ethr =  1.00E-02,  avg # of iterations =  3.0

     negative rho (up, down):  6.231E-01 0.000E+00

     total cpu time spent up to now is    10465.1 secs

     total energy              =  -12620.84435618 Ry
     Harris-Foulkes estimate   =  -12634.35594665 Ry
     estimated scf accuracy    <     336.73942049 Ry

     iteration # 18     ecut=    80.00 Ry     beta=0.70
     Davidson diagonalization with overlap
     ethr =  1.00E-02,  avg # of iterations =  3.0

     negative rho (up, down):  5.798E-01 0.000E+00

     total cpu time spent up to now is    10829.5 secs

     total energy              =  -12625.37024041 Ry
     Harris-Foulkes estimate   =  -12645.87896093 Ry
     estimated scf accuracy    <     230.41542762 Ry

     iteration # 19     ecut=    80.00 Ry     beta=0.70
     Davidson diagonalization with overlap
     ethr =  1.00E-02,  avg # of iterations =  2.0

     negative rho (up, down):  7.470E-01 0.000E+00

     total cpu time spent up to now is    11156.4 secs

     total energy              =  -12619.04141544 Ry
     Harris-Foulkes estimate   =  -12634.63418979 Ry
     estimated scf accuracy    <     207.11629758 Ry

     iteration # 20     ecut=    80.00 Ry     beta=0.70
     Davidson diagonalization with overlap
     ethr =  1.00E-02,  avg # of iterations =  2.0

     negative rho (up, down):  6.067E-01 0.000E+00

     total cpu time spent up to now is    11483.2 secs

     total energy              =  -12610.63283615 Ry
     Harris-Foulkes estimate   =  -12623.85241212 Ry
     estimated scf accuracy    <     126.67306581 Ry

     iteration # 21     ecut=    80.00 Ry     beta=0.70
     Davidson diagonalization with overlap
     ethr =  1.00E-02,  avg # of iterations =  2.0

     negative rho (up, down):  5.534E-01 0.000E+00

     total cpu time spent up to now is    11809.5 secs

     total energy              =  -12602.37987361 Ry
     Harris-Foulkes estimate   =  -12612.71526445 Ry
     estimated scf accuracy    <      89.73478236 Ry

     iteration # 22     ecut=    80.00 Ry     beta=0.70
     Davidson diagonalization with overlap
     ethr =  7.23E-03,  avg # of iterations =  1.0

     negative rho (up, down):  9.111E-01 0.000E+00

     total cpu time spent up to now is    12118.6 secs

     total energy              =  -12590.69750251 Ry
     Harris-Foulkes estimate   =  -12604.62720836 Ry
     estimated scf accuracy    <     105.85631107 Ry

     iteration # 23     ecut=    80.00 Ry     beta=0.70
     Davidson diagonalization with overlap
     ethr =  7.23E-03,  avg # of iterations =  2.0

     negative rho (up, down):  1.087E+00 0.000E+00

     total cpu time spent up to now is    12444.1 secs

     total energy              =  -12591.11225895 Ry
     Harris-Foulkes estimate   =  -12597.67099752 Ry
     estimated scf accuracy    <     120.69740367 Ry

     iteration # 24     ecut=    80.00 Ry     beta=0.70
     Davidson diagonalization with overlap
     ethr =  7.23E-03,  avg # of iterations =  1.0

     negative rho (up, down):  2.563E+00 0.000E+00

     total cpu time spent up to now is    12752.6 secs

     total energy              =  -12592.13681432 Ry
     Harris-Foulkes estimate   =  -12594.98675836 Ry
     estimated scf accuracy    <      46.44307713 Ry

     iteration # 25     ecut=    80.00 Ry     beta=0.70
     Davidson diagonalization with overlap
     ethr =  3.74E-03,  avg # of iterations =  1.0

     negative rho (up, down):  3.712E+00 0.000E+00

     total cpu time spent up to now is    13062.6 secs

     total energy              =  -12586.94062483 Ry
     Harris-Foulkes estimate   =  -12592.82579212 Ry
     estimated scf accuracy    <      24.05056415 Ry

     iteration # 26     ecut=    80.00 Ry     beta=0.70
     Davidson diagonalization with overlap
     ethr =  1.94E-03,  avg # of iterations =  4.7

     negative rho (up, down):  1.793E+00 0.000E+00

     total cpu time spent up to now is    13504.4 secs

     total energy              =  -12586.09879461 Ry
     Harris-Foulkes estimate   =  -12589.43574441 Ry
     estimated scf accuracy    <      15.96342272 Ry

     iteration # 27     ecut=    80.00 Ry     beta=0.70
     Davidson diagonalization with overlap
     ethr =  1.29E-03,  avg # of iterations =  7.7

     negative rho (up, down):  1.537E+00 0.000E+00

     total cpu time spent up to now is    13966.8 secs

     total energy              =  -12587.27159689 Ry
     Harris-Foulkes estimate   =  -12588.92779505 Ry
     estimated scf accuracy    <       9.59635424 Ry

     iteration # 28     ecut=    80.00 Ry     beta=0.70
     Davidson diagonalization with overlap
     ethr =  7.73E-04,  avg # of iterations =  2.3

     negative rho (up, down):  1.611E+00 0.000E+00

     total cpu time spent up to now is    14300.0 secs

     total energy              =  -12586.94517199 Ry
     Harris-Foulkes estimate   =  -12587.58902268 Ry
     estimated scf accuracy    <       8.39609316 Ry

     iteration # 29     ecut=    80.00 Ry     beta=0.70
     Davidson diagonalization with overlap
     ethr =  6.76E-04,  avg # of iterations =  1.2

     negative rho (up, down):  1.970E+00 0.000E+00

     total cpu time spent up to now is    14613.9 secs

     total energy              =  -12586.44009033 Ry
     Harris-Foulkes estimate   =  -12587.09558178 Ry
     estimated scf accuracy    <       7.67345504 Ry

     iteration # 30     ecut=    80.00 Ry     beta=0.70
     Davidson diagonalization with overlap
     ethr =  6.18E-04,  avg # of iterations =  4.3

     negative rho (up, down):  1.754E+00 0.000E+00

     total cpu time spent up to now is    14991.2 secs

     total energy              =  -12585.69457252 Ry
     Harris-Foulkes estimate   =  -12586.68660230 Ry
     estimated scf accuracy    <       7.88876745 Ry

     iteration # 31     ecut=    80.00 Ry     beta=0.70
     Davidson diagonalization with overlap
     ethr =  6.18E-04,  avg # of iterations =  1.3

     negative rho (up, down):  1.244E+00 0.000E+00

     total cpu time spent up to now is    15305.6 secs

     total energy              =  -12585.71305040 Ry
     Harris-Foulkes estimate   =  -12585.82563926 Ry
     estimated scf accuracy    <       8.40015857 Ry

     iteration # 32     ecut=    80.00 Ry     beta=0.70
     Davidson diagonalization with overlap
     ethr =  6.18E-04,  avg # of iterations =  4.0

     negative rho (up, down):  6.069E-01 0.000E+00

     total cpu time spent up to now is    15670.7 secs

     total energy              =  -12584.35605010 Ry
     Harris-Foulkes estimate   =  -12586.00704002 Ry
     estimated scf accuracy    <       5.09690268 Ry

     iteration # 33     ecut=    80.00 Ry     beta=0.70
     Davidson diagonalization with overlap
     ethr =  4.10E-04,  avg # of iterations =  6.2

     negative rho (up, down):  5.927E-01 0.000E+00

     total cpu time spent up to now is    16080.1 secs

     total energy              =  -12584.06642692 Ry
     Harris-Foulkes estimate   =  -12584.53401698 Ry
     estimated scf accuracy    <       3.86898103 Ry

     iteration # 34     ecut=    80.00 Ry     beta=0.70
     Davidson diagonalization with overlap
     ethr =  3.12E-04,  avg # of iterations =  2.0

     negative rho (up, down):  8.117E-01 0.000E+00

     total cpu time spent up to now is    16407.2 secs

     total energy              =  -12583.79757891 Ry
     Harris-Foulkes estimate   =  -12584.25470512 Ry
     estimated scf accuracy    <       2.30876520 Ry

     iteration # 35     ecut=    80.00 Ry     beta=0.70
     Davidson diagonalization with overlap
     ethr =  1.86E-04,  avg # of iterations =  7.2

     negative rho (up, down):  6.359E-01 0.000E+00

     total cpu time spent up to now is    16876.3 secs

     total energy              =  -12583.80314864 Ry
     Harris-Foulkes estimate   =  -12583.90381952 Ry
     estimated scf accuracy    <       0.41950926 Ry

     iteration # 36     ecut=    80.00 Ry     beta=0.70
     Davidson diagonalization with overlap
     ethr =  3.38E-05,  avg # of iterations =  7.3

     negative rho (up, down):  4.548E-01 0.000E+00

     total cpu time spent up to now is    17324.1 secs

     total energy              =  -12583.76715473 Ry
     Harris-Foulkes estimate   =  -12583.85187096 Ry
     estimated scf accuracy    <       0.52955776 Ry

     iteration # 37     ecut=    80.00 Ry     beta=0.70
     Davidson diagonalization with overlap
     ethr =  3.38E-05,  avg # of iterations =  7.0

     negative rho (up, down):  3.318E-01 0.000E+00

     total cpu time spent up to now is    17755.7 secs

     total energy              =  -12583.75603755 Ry
     Harris-Foulkes estimate   =  -12583.80553450 Ry
     estimated scf accuracy    <       0.20400079 Ry

     iteration # 38     ecut=    80.00 Ry     beta=0.70
     Davidson diagonalization with overlap
     ethr =  1.64E-05,  avg # of iterations =  7.8

     negative rho (up, down):  2.187E-01 0.000E+00

     total cpu time spent up to now is    18245.9 secs

     total energy              =  -12583.75682220 Ry
     Harris-Foulkes estimate   =  -12583.76775789 Ry
     estimated scf accuracy    <       0.07072433 Ry

     iteration # 39     ecut=    80.00 Ry     beta=0.70
     Davidson diagonalization with overlap
     ethr =  5.69E-06,  avg # of iterations =  5.7

     negative rho (up, down):  8.018E-02 0.000E+00

     total cpu time spent up to now is    18663.9 secs

     total energy              =  -12583.75161871 Ry
     Harris-Foulkes estimate   =  -12583.76042316 Ry
     estimated scf accuracy    <       0.03810741 Ry

     iteration # 40     ecut=    80.00 Ry     beta=0.70
     Davidson diagonalization with overlap
     ethr =  3.07E-06,  avg # of iterations = 11.0

     negative rho (up, down):  9.255E-02 0.000E+00

     total cpu time spent up to now is    19262.5 secs

     total energy              =  -12583.75218030 Ry
     Harris-Foulkes estimate   =  -12583.75633873 Ry
     estimated scf accuracy    <       0.02888521 Ry

     iteration # 41     ecut=    80.00 Ry     beta=0.70
     Davidson diagonalization with overlap
     ethr =  2.33E-06,  avg # of iterations =  6.8

     negative rho (up, down):  3.416E-02 0.000E+00

     total cpu time spent up to now is    19710.1 secs

     total energy              =  -12583.75203157 Ry
     Harris-Foulkes estimate   =  -12583.75512949 Ry
     estimated scf accuracy    <       0.01164981 Ry

     iteration # 42     ecut=    80.00 Ry     beta=0.70
     Davidson diagonalization with overlap
     ethr =  9.38E-07,  avg # of iterations = 13.0

     negative rho (up, down):  1.180E-02 0.000E+00

     total cpu time spent up to now is    20323.9 secs

     total energy              =  -12583.75230912 Ry
     Harris-Foulkes estimate   =  -12583.75293585 Ry
     estimated scf accuracy    <       0.00420881 Ry

     iteration # 43     ecut=    80.00 Ry     beta=0.70
     Davidson diagonalization with overlap
     ethr =  3.39E-07,  avg # of iterations =  7.7

     negative rho (up, down):  5.119E-03 0.000E+00

     total cpu time spent up to now is    20788.0 secs

     total energy              =  -12583.75211813 Ry
     Harris-Foulkes estimate   =  -12583.75245585 Ry
     estimated scf accuracy    <       0.00180378 Ry

     iteration # 44     ecut=    80.00 Ry     beta=0.70
     Davidson diagonalization with overlap
     ethr =  1.45E-07,  avg # of iterations =  7.5

     negative rho (up, down):  4.963E-04 0.000E+00

     total cpu time spent up to now is    21247.1 secs

     total energy              =  -12583.75229507 Ry
     Harris-Foulkes estimate   =  -12583.75230266 Ry
     estimated scf accuracy    <       0.00145876 Ry

     iteration # 45     ecut=    80.00 Ry     beta=0.70
     Davidson diagonalization with overlap
     ethr =  1.17E-07,  avg # of iterations = 10.5

     negative rho (up, down):  1.095E-03 0.000E+00

     total cpu time spent up to now is    21788.8 secs

     total energy              =  -12583.75255009 Ry
     Harris-Foulkes estimate   =  -12583.75239507 Ry
     estimated scf accuracy    <       0.00032409 Ry

     iteration # 46     ecut=    80.00 Ry     beta=0.70
     Davidson diagonalization with overlap
     ethr =  2.61E-08,  avg # of iterations = 11.0

     negative rho (up, down):  2.395E-03 0.000E+00

     total cpu time spent up to now is    22335.9 secs

     total energy              =  -12583.75265763 Ry
     Harris-Foulkes estimate   =  -12583.75257889 Ry
     estimated scf accuracy    <       0.00007717 Ry

     iteration # 47     ecut=    80.00 Ry     beta=0.70
     Davidson diagonalization with overlap
     ethr =  6.21E-09,  avg # of iterations =  7.7

     negative rho (up, down):  1.655E-03 0.000E+00

     total cpu time spent up to now is    22798.6 secs

     total energy              =  -12583.75267438 Ry
     Harris-Foulkes estimate   =  -12583.75266370 Ry
     estimated scf accuracy    <       0.00004292 Ry

     iteration # 48     ecut=    80.00 Ry     beta=0.70
     Davidson diagonalization with overlap
     ethr =  3.46E-09,  avg # of iterations =  2.3

     negative rho (up, down):  3.090E-03 0.000E+00

     total cpu time spent up to now is    23147.0 secs

     total energy              =  -12583.75269957 Ry
     Harris-Foulkes estimate   =  -12583.75267774 Ry
     estimated scf accuracy    <       0.00001992 Ry

     iteration # 49     ecut=    80.00 Ry     beta=0.70
     Davidson diagonalization with overlap
     ethr =  1.60E-09,  avg # of iterations =  7.0

     negative rho (up, down):  2.832E-03 0.000E+00

     total cpu time spent up to now is    23598.7 secs

     total energy              =  -12583.75270215 Ry
     Harris-Foulkes estimate   =  -12583.75270177 Ry
     estimated scf accuracy    <       0.00001105 Ry

     iteration # 50     ecut=    80.00 Ry     beta=0.70
     Davidson diagonalization with overlap
     ethr =  8.89E-10,  avg # of iterations =  4.7

     negative rho (up, down):  2.535E-03 0.000E+00

     total cpu time spent up to now is    23995.3 secs

     total energy              =  -12583.75270170 Ry
     Harris-Foulkes estimate   =  -12583.75270297 Ry
     estimated scf accuracy    <       0.00000287 Ry

     iteration # 51     ecut=    80.00 Ry     beta=0.70
     Davidson diagonalization with overlap
     ethr =  2.31E-10,  avg # of iterations =  3.0

     negative rho (up, down):  2.682E-03 0.000E+00

     total cpu time spent up to now is    24365.4 secs

     total energy              =  -12583.75270213 Ry
     Harris-Foulkes estimate   =  -12583.75270201 Ry
     estimated scf accuracy    <       0.00000097 Ry

     iteration # 52     ecut=    80.00 Ry     beta=0.70
     Davidson diagonalization with overlap
     ethr =  7.78E-11,  avg # of iterations =  2.3

     negative rho (up, down):  2.395E-03 0.000E+00

     total cpu time spent up to now is    24723.7 secs

     total energy              =  -12583.75270224 Ry
     Harris-Foulkes estimate   =  -12583.75270225 Ry
     estimated scf accuracy    <       0.00000044 Ry

     iteration # 53     ecut=    80.00 Ry     beta=0.70
     Davidson diagonalization with overlap
     ethr =  3.51E-11,  avg # of iterations =  2.8

     negative rho (up, down):  2.344E-03 0.000E+00

     total cpu time spent up to now is    25091.8 secs

     total energy              =  -12583.75270247 Ry
     Harris-Foulkes estimate   =  -12583.75270230 Ry
     estimated scf accuracy    <       0.00000019 Ry

     iteration # 54     ecut=    80.00 Ry     beta=0.70
     Davidson diagonalization with overlap
     ethr =  1.51E-11,  avg # of iterations =  3.0

     negative rho (up, down):  2.371E-03 0.000E+00

     total cpu time spent up to now is    25454.0 secs

     total energy              =  -12583.75270254 Ry
     Harris-Foulkes estimate   =  -12583.75270248 Ry
     estimated scf accuracy    <       0.00000006 Ry

     iteration # 55     ecut=    80.00 Ry     beta=0.70
     Davidson diagonalization with overlap
     ethr =  5.04E-12,  avg # of iterations =  3.0

     negative rho (up, down):  2.349E-03 0.000E+00

     total cpu time spent up to now is    25824.5 secs

     total energy              =  -12583.75270259 Ry
     Harris-Foulkes estimate   =  -12583.75270255 Ry
     estimated scf accuracy    <       0.00000003 Ry

     iteration # 56     ecut=    80.00 Ry     beta=0.70
     Davidson diagonalization with overlap
     ethr =  2.08E-12,  avg # of iterations =  2.0

     negative rho (up, down):  2.357E-03 0.000E+00

     total cpu time spent up to now is    26171.9 secs

     total energy              =  -12583.75270261 Ry
     Harris-Foulkes estimate   =  -12583.75270259 Ry
     estimated scf accuracy    <       0.00000001 Ry

     iteration # 57     ecut=    80.00 Ry     beta=0.70
     Davidson diagonalization with overlap
     ethr =  1.18E-12,  avg # of iterations =  3.0

     negative rho (up, down):  2.353E-03 0.000E+00

     total cpu time spent up to now is    26524.1 secs

     End of self-consistent calculation

          k = 0.0000 0.0000 0.0000 (256287 PWs)   bands (ev):

   -21.4978 -18.9405 -17.0827 -16.4230 -15.6905 -14.8818 -14.7395 -14.5015
   -14.2216 -14.0418 -13.5226 -13.3480 -12.7944 -12.2554 -12.1570 -11.4003
   -10.7506 -10.5002  -9.6122  -9.4956  -9.4446  -9.0551  -8.8064  -8.2617
    -8.0240  -7.9409  -7.6824  -7.5341  -7.0430  -6.9426  -6.7821  -6.5017
    -6.3602  -6.1682  -5.9878  -5.9587  -5.9331  -5.7288  -5.6999  -5.6194
    -5.3440  -5.2917  -5.0547  -4.9472  -4.7440  -4.5916  -4.4830  -4.4668
    -4.3644  -4.3127  -4.0528  -3.8967  -3.8829  -3.8777  -3.7860  -3.7086
    -3.6209  -3.5394  -3.5029  -3.4944  -3.4865  -3.4818  -3.4794  -3.4770
    -3.4267  -3.3022  -3.2701  -3.2126  -3.1740  -3.1028  -3.0950  -3.0517
    -3.0345  -2.8940  -2.8334  -2.8106  -2.8052  -2.7305  -2.6859  -2.6744
    -2.6695  -2.6322  -2.6311  -2.6270  -2.6268  -2.5962  -2.5356  -2.5032
    -2.5017  -2.4937  -2.4915  -2.4332  -2.4001  -2.3725  -2.3320  -2.3137
    -2.2540  -2.2272  -2.2168  -2.2095  -2.1919  -2.1648  -2.1544  -2.1344
    -2.1302  -2.1234  -2.0988  -2.0625  -2.0566  -2.0458  -2.0421  -2.0387
    -2.0245  -2.0058  -1.9935  -1.9906  -1.9821  -1.9394  -1.9270  -1.9227
    -1.8903  -1.8780  -1.8597  -1.8304  -1.7998  -1.7842  -1.7752  -1.7466
    -1.7375  -1.7286  -1.6974  -1.6896  -1.6878  -1.6736  -1.6706  -1.6655
    -1.6443  -1.6398  -1.6032  -1.5824  -1.5318  -1.5294  -1.5213  -1.5181
    -1.5120  -1.5077  -1.5038  -1.5029  -1.5007  -1.4993  -1.4919  -1.4837
    -1.4817  -1.4756  -1.4680  -1.4513  -1.4314  -1.4184  -1.4145  -1.4034
    -1.3984  -1.3976  -1.3947  -1.3732  -1.3495  -1.3411  -1.3373  -1.3359
    -1.3335  -1.3326  -1.3284  -1.3281  -1.3260  -1.3253  -1.3249  -1.3224
    -1.3194  -1.3171  -1.3146  -1.3002  -1.2953  -1.2614  -1.2546  -1.1750
    -1.1669  -1.1621  -1.1606  -1.1561  -1.1480  -1.1275  -1.1201  -1.1172
    -1.1058  -1.0935  -1.0823  -1.0813  -1.0760  -1.0693  -1.0600  -1.0423
    -1.0414  -1.0379  -1.0352  -1.0333  -1.0317  -1.0244  -1.0173  -0.9756
    -0.9671  -0.9631  -0.9213  -0.9198  -0.9120  -0.9078  -0.9046  -0.9023
    -0.8960  -0.8896  -0.8844  -0.8817  -0.8809  -0.8800  -0.8793  -0.8766
    -0.8733  -0.8652  -0.8634  -0.8617  -0.8586  -0.8437  -0.8288  -0.8268
    -0.8150  -0.7899  -0.7786  -0.7706  -0.7700  -0.7582  -0.7553  -0.7455
    -0.7451  -0.7383  -0.7378  -0.7355  -0.7288  -0.7252  -0.7217  -0.7198
    -0.7032  -0.7019  -0.7002  -0.6967  -0.6948  -0.6910  -0.6897  -0.6888
    -0.6870  -0.6789  -0.6718  -0.6680  -0.6623  -0.6595  -0.6492  -0.6258
    -0.6166  -0.6056  -0.5964  -0.5922  -0.5860  -0.5824  -0.5664  -0.5601
    -0.5547  -0.5454  -0.5427  -0.5412  -0.5388  -0.5378  -0.5354  -0.5169
    -0.5082  -0.4949  -0.4899  -0.4883  -0.4829  -0.4803  -0.4760  -0.4616
    -0.4557  -0.4511  -0.4476  -0.4451  -0.4405  -0.4374  -0.4345  -0.4303
    -0.4291  -0.4234  -0.4175  -0.4164  -0.4148  -0.4132  -0.4100  -0.3951
    -0.3922  -0.3791  -0.3749  -0.3719  -0.3483  -0.3393  -0.3212  -0.3111
    -0.2939  -0.2811  -0.2768  -0.2615  -0.2474  -0.2467  -0.2446  -0.2425
    -0.2347  -0.2319  -0.2268  -0.2161  -0.2104  -0.2012  -0.1991  -0.1975
    -0.1863  -0.1759  -0.1480  -0.1455  -0.1396  -0.1344  -0.1341  -0.1301
    -0.1203  -0.1080  -0.1053  -0.1001  -0.0973  -0.0912  -0.0842  -0.0646
    -0.0577  -0.0543  -0.0486  -0.0391  -0.0376  -0.0321  -0.0230  -0.0031
     0.0033   0.0092   0.0115   0.0164   0.0243   0.0262   0.0288   0.0306
     0.0359   0.0411   0.0495   0.0511   0.0527   0.0553   0.0585   0.0634
     0.0660   0.0666   0.0689   0.0714   0.0761   0.0836   0.0914   0.0941
     0.0967   0.1176   0.1205   0.1269   0.1286   0.1342   0.1403   0.1478
     0.1646   0.1691   0.1704   0.1740   0.1757   0.1770   0.1784   0.1902
     0.1934   0.1972   0.2043   0.2088   0.2102   0.2122   0.2147   0.2163
     0.2245   0.2272   0.2379   0.2438   0.2470   0.2514   0.2598   0.2629
     0.2633   0.2721   0.2723   0.2748   0.2779   0.2795   0.2847   0.2867
     0.3003   0.3258   0.3275   0.3348   0.3368   0.3387   0.3454   0.3460
     0.3476   0.3754   0.3777   0.3820   0.3883   0.3996   0.4008   0.4079
     0.4115   0.4165   0.4180   0.4196   0.4251   0.4267   0.4346   0.4412
     0.4450   0.4478   0.4528   0.4559   0.4615   0.4653   0.4718   0.4796
     0.4812   0.4945   0.4977   0.5013   0.5068   0.5174   0.5217   0.5233
     0.5285   0.5298   0.5333   0.5351   0.5388   0.5403   0.5476   0.5517
     0.5531   0.5594   0.5629   0.5676   0.5704   0.5759   0.5797   0.5861
     0.5953   0.5983   0.6040   0.6048   0.6121   0.6202   0.6235   0.6246
     0.6324   0.6337   0.6390   0.6405   0.6422   0.6439   0.6535   0.6548
     0.6589   0.6603   0.6728   0.6801   0.6893   0.6995   0.7121   0.7144
     0.7237   0.7249   0.7284   0.7308   0.7339   0.7360   0.7429   0.7435
     0.7468   0.7548   0.7563   0.7585   0.7601   0.7654   0.7684   0.7735
     0.7778   0.7807   0.7839   0.7885   0.7938   0.7956   0.7983   0.8008
     0.8049   0.8066   0.8117   0.8140   0.8182   0.8216   0.8266   0.8291
     0.8322   0.8347   0.8363   0.8368   0.8392   0.8408   0.8459   0.8635
     0.8681   0.8735   0.8742   0.8772   0.8803   0.8879   0.8894   0.9044
     0.9077   0.9123   0.9138   0.9263   0.9290   0.9315   0.9338   0.9344
     0.9388   0.9430   0.9463   0.9501   0.9526   0.9548   0.9584   0.9604
     0.9660   0.9697   0.9713   0.9738   0.9811   0.9853   0.9874   0.9902
     0.9948   0.9966   0.9989   1.0048   1.0079   1.0144   1.0403   1.0459
     1.0511   1.0799   1.0809   1.0822   1.0855   1.0944   1.1038   1.1058
     1.1200   1.1297   1.1316   1.1473   1.1531   1.1559   1.1645   1.1652
     1.1672   1.1704   1.1885   1.3509   1.4025   1.4797   1.5683   1.6173
     1.6488   1.6915   1.7155   1.7287   1.7321   1.7350   1.7415   1.7510
     1.7653   1.7833   1.8132   1.9245   1.9751   1.9884   1.9979   2.0038
     2.0139   2.0336   2.0573   2.2311   2.2517   2.2638   2.3127   2.6691
     2.7735   3.0166   3.0832   3.1286   3.2957   3.3332   3.3600   3.3698
     3.3864   3.4083   3.4489   3.4652   3.4908   3.5129   3.5233   3.5276
     3.5490   3.5549   3.6197   3.6799   3.7488   3.7623   3.7895   3.8953
     4.0379   4.0866   4.3036   4.4369   4.5821   4.7143   4.8124   4.8452
     4.9896   5.1799   5.1903   5.2648   5.3487   5.3844   5.4272   5.4730
     5.6700   5.7405   5.8048   5.8574   5.9328   5.9800   6.0162   6.0265
     6.0797   6.1980   6.2286   6.2519   6.2885   6.2968   6.3186   6.4481
     6.5136   6.5638   6.5893   6.6510   6.6981   6.8665   6.8749   6.9792
     7.0000   7.0371   7.1435   7.2184   7.2269   7.2743   7.2812   7.3188
     7.3954   7.5366   7.5784   7.6442   7.6837   7.7374   7.8311   7.8497
     7.8638   7.8738   7.9381   7.9507   7.9999   8.0701   8.0973   8.1142
     8.1776   8.1985   8.2324   8.2540   8.2767   8.3324   8.3407   8.3559
     8.3683   8.3825   8.4073   8.4116   8.4730   8.5070   8.5835   8.6146
     8.7236   8.7515   8.7630   8.8056   8.8594   8.8928   8.9098   9.0805
     9.1104   9.1550   9.1895   9.2231   9.2473   9.3372   9.3560   9.4198
     9.5154

          k = 0.0000-0.2165 0.0000 (256176 PWs)   bands (ev):

   -21.4978 -18.9405 -17.0827 -16.4230 -15.6906 -14.8818 -14.7395 -14.5014
   -14.2216 -14.0418 -13.5227 -13.3480 -12.7946 -12.2553 -12.1570 -11.4003
   -10.7507 -10.4994  -9.6130  -9.4960  -9.4454  -9.0550  -8.8062  -8.2616
    -8.0204  -7.9409  -7.6819  -7.5359  -7.0432  -6.9431  -6.7825  -6.4038
    -6.3673  -6.3233  -6.1608  -5.9522  -5.7317  -5.7014  -5.6071  -5.3858
    -5.3219  -5.3018  -5.2783  -5.1409  -4.8761  -4.7019  -4.5140  -4.3478
    -4.2711  -4.1227  -4.0462  -3.8607  -3.7942  -3.7885  -3.7671  -3.7626
    -3.7225  -3.6502  -3.5790  -3.5341  -3.5081  -3.5025  -3.4980  -3.4728
    -3.3318  -3.2679  -3.1089  -3.0844  -3.0683  -3.0569  -3.0553  -3.0490
    -3.0447  -3.0299  -2.9453  -2.9243  -2.8447  -2.7354  -2.7258  -2.7062
    -2.7035  -2.6474  -2.6298  -2.6257  -2.6103  -2.6036  -2.5748  -2.4911
    -2.4633  -2.4631  -2.4387  -2.4381  -2.4151  -2.3892  -2.3551  -2.3211
    -2.2716  -2.2462  -2.2311  -2.2264  -2.2190  -2.2178  -2.2019  -2.1951
    -2.1707  -2.1667  -2.1573  -2.1281  -2.1173  -2.1096  -2.0922  -1.9530
    -1.9430  -1.9346  -1.9304  -1.9088  -1.8636  -1.8507  -1.8484  -1.8097
    -1.7984  -1.7905  -1.7845  -1.7589  -1.7566  -1.7541  -1.7524  -1.7465
    -1.7400  -1.7359  -1.7225  -1.7141  -1.7037  -1.6981  -1.6912  -1.6902
    -1.6861  -1.6680  -1.6467  -1.6339  -1.6255  -1.6051  -1.5793  -1.5650
    -1.5603  -1.5311  -1.5277  -1.5261  -1.5233  -1.5019  -1.4911  -1.4729
    -1.4691  -1.4671  -1.4617  -1.4529  -1.4517  -1.4499  -1.4221  -1.4120
    -1.3994  -1.3984  -1.3970  -1.3908  -1.3863  -1.3831  -1.3701  -1.3648
    -1.3626  -1.3137  -1.3063  -1.3036  -1.2995  -1.2964  -1.2899  -1.2803
    -1.2788  -1.2657  -1.2619  -1.2549  -1.2359  -1.2342  -1.2279  -1.2179
    -1.2110  -1.1425  -1.1406  -1.1310  -1.1246  -1.1139  -1.1107  -1.1096
    -1.0901  -1.0850  -1.0818  -1.0797  -1.0781  -1.0767  -1.0576  -1.0520
    -1.0333  -1.0315  -1.0246  -1.0191  -1.0150  -1.0139  -1.0130  -1.0070
    -1.0039  -0.9843  -0.9733  -0.9619  -0.9619  -0.9481  -0.9361  -0.9294
    -0.9276  -0.9261  -0.9224  -0.9205  -0.9028  -0.8964  -0.8898  -0.8618
    -0.8474  -0.8462  -0.8367  -0.8272  -0.8267  -0.8184  -0.8078  -0.7996
    -0.7818  -0.7801  -0.7773  -0.7697  -0.7674  -0.7660  -0.7584  -0.7566
    -0.7486  -0.7400  -0.7368  -0.7318  -0.7267  -0.7249  -0.7218  -0.7213
    -0.7169  -0.7124  -0.7107  -0.7041  -0.6939  -0.6873  -0.6830  -0.6789
    -0.6786  -0.6558  -0.6314  -0.6221  -0.6208  -0.6177  -0.6156  -0.6105
    -0.6082  -0.6000  -0.5935  -0.5873  -0.5834  -0.5740  -0.5724  -0.5647
    -0.5633  -0.5592  -0.5576  -0.5564  -0.5521  -0.5488  -0.5444  -0.5240
    -0.5093  -0.5008  -0.5000  -0.4989  -0.4964  -0.4744  -0.4719  -0.4702
    -0.4692  -0.4595  -0.4550  -0.4510  -0.4496  -0.4435  -0.4361  -0.4300
    -0.4202  -0.4099  -0.4049  -0.4031  -0.4029  -0.3981  -0.3834  -0.3815
    -0.3757  -0.3678  -0.3616  -0.3603  -0.3543  -0.3442  -0.3427  -0.3288
    -0.3160  -0.3041  -0.3004  -0.2959  -0.2898  -0.2843  -0.2759  -0.2757
    -0.2671  -0.2554  -0.2503  -0.2256  -0.2152  -0.2145  -0.2072  -0.1910
    -0.1885  -0.1637  -0.1380  -0.1289  -0.1083  -0.1035  -0.0995  -0.0955
    -0.0936  -0.0890  -0.0716  -0.0632  -0.0582  -0.0493  -0.0438  -0.0416
    -0.0369  -0.0351  -0.0305  -0.0266  -0.0229  -0.0193  -0.0124  -0.0100
    -0.0071   0.0005   0.0019   0.0041   0.0091   0.0214   0.0278   0.0318
     0.0393   0.0417   0.0469   0.0494   0.0564   0.0587   0.0597   0.0600
     0.0697   0.0721   0.0761   0.0787   0.0802   0.0839   0.0900   0.0927
     0.0954   0.0988   0.1028   0.1058   0.1089   0.1116   0.1121   0.1161
     0.1250   0.1377   0.1512   0.1624   0.1680   0.1788   0.1800   0.1816
     0.1821   0.1901   0.1929   0.1972   0.2015   0.2043   0.2054   0.2065
     0.2093   0.2135   0.2337   0.2413   0.2451   0.2500   0.2524   0.2568
     0.2658   0.2679   0.2705   0.2785   0.2868   0.2924   0.2938   0.2959
     0.2986   0.3074   0.3085   0.3256   0.3361   0.3562   0.3606   0.3891
     0.4050   0.4067   0.4088   0.4110   0.4132   0.4181   0.4221   0.4249
     0.4265   0.4296   0.4351   0.4376   0.4387   0.4460   0.4467   0.4497
     0.4555   0.4580   0.4636   0.4696   0.4729   0.4748   0.4793   0.4816
     0.4845   0.4873   0.4894   0.4905   0.4908   0.4936   0.4953   0.5019
     0.5093   0.5126   0.5132   0.5147   0.5160   0.5230   0.5240   0.5322
     0.5345   0.5412   0.5455   0.5481   0.5518   0.5539   0.5567   0.5587
     0.5612   0.5627   0.5668   0.5702   0.5744   0.6012   0.6086   0.6171
     0.6464   0.6537   0.6545   0.6582   0.6655   0.6716   0.6737   0.6807
     0.6891   0.6907   0.6944   0.6991   0.7019   0.7047   0.7081   0.7121
     0.7172   0.7203   0.7216   0.7230   0.7236   0.7282   0.7290   0.7306
     0.7333   0.7368   0.7414   0.7476   0.7494   0.7537   0.7567   0.7576
     0.7609   0.7685   0.7731   0.7856   0.7882   0.7917   0.7926   0.7950
     0.7983   0.8006   0.8021   0.8125   0.8185   0.8196   0.8208   0.8250
     0.8268   0.8270   0.8361   0.8385   0.8420   0.8522   0.8538   0.8568
     0.8608   0.8708   0.8749   0.8764   0.8823   0.8961   0.9000   0.9062
     0.9068   0.9087   0.9108   0.9139   0.9161   0.9211   0.9220   0.9342
     0.9354   0.9396   0.9480   0.9487   0.9522   0.9637   0.9671   0.9706
     0.9721   0.9739   0.9745   0.9755   0.9768   1.0015   1.0034   1.0048
     1.0116   1.0158   1.0220   1.0272   1.0341   1.0404   1.0423   1.0462
     1.0509   1.0537   1.0570   1.0593   1.0723   1.1041   1.1185   1.1210
     1.1334   1.2071   1.2141   1.2369   1.2574   1.2693   1.2720   1.2814
     1.3006   1.3035   1.3059   1.3192   1.3255   1.3412   1.3437   1.3470
     1.3625   1.3708   1.3821   1.4865   1.7178   1.9300   1.9371   1.9593
     1.9774   2.0057   2.0191   2.0791   2.1015   2.1037   2.1076   2.1333
     2.1968   2.2268   2.2284   2.2481   2.3126   2.3294   2.3547   2.4440
     2.4453   2.6706   2.6882   2.6931   2.6933   2.7725   2.9524   3.0481
     3.1603   3.1955   3.2173   3.5346   3.6024   3.6401   3.6729   3.8286
     3.8636   3.8694   3.8885   3.8898   3.9600   4.1016   4.1562   4.2812
     4.3731   4.4490   4.5515   4.5876   4.6288   4.7135   4.7402   4.8316
     4.8763   4.8785   4.9001   4.9459   4.9821   5.1011   5.2338   5.6859
     5.7121   5.7515   5.8443   5.8761   5.9744   6.0538   6.0847   6.1015
     6.1409   6.1766   6.2077   6.2367   6.3347   6.4154   6.5012   6.5354
     6.5477   6.5787   6.6112   6.6344   6.6601   6.6763   6.6835   6.6916
     6.7510   6.8774   6.9243   6.9954   7.1073   7.1446   7.2084   7.2309
     7.2993   7.3480   7.6189   7.6536   7.6703   7.8020   7.8675   7.8842
     7.8971   7.9766   7.9903   8.0285   8.0908   8.1724   8.1940   8.2056
     8.2351   8.2490   8.2741   8.3007   8.3231   8.3636   8.3866   8.4040
     8.4163   8.5281   8.5677   8.5920   8.7009   8.7049   8.8342   8.8595
     8.8646   8.8869   8.9038   8.9392   8.9517   8.9857   8.9996   9.0097
     9.0905   9.1287   9.1722   9.2035   9.2434   9.3068   9.3142   9.3430
     9.4196

          k = 0.2500 0.0000 0.0000 (256240 PWs)   bands (ev):

   -21.4978 -18.9407 -17.0225 -16.3304 -15.7371 -15.4123 -15.0228 -14.4843
   -13.9963 -13.6671 -13.2943 -13.0981 -12.6050 -12.3055 -11.8059 -11.3620
   -11.1090 -10.6231 -10.3543  -9.8206  -9.5399  -9.4385  -8.9846  -8.5129
    -8.0301  -7.7141  -7.4519  -7.1629  -7.0493  -6.6601  -6.5406  -6.3208
    -6.1775  -6.0959  -5.8074  -5.7844  -5.6737  -5.5439  -5.4186  -5.2672
    -5.1541  -4.9383  -4.9120  -4.8054  -4.7356  -4.6217  -4.5635  -4.4785
    -4.4652  -4.3595  -4.3225  -4.3147  -4.2591  -4.1665  -4.1040  -4.0740
    -4.0219  -3.7991  -3.7777  -3.7263  -3.6612  -3.6448  -3.5386  -3.5062
    -3.4626  -3.3929  -3.3566  -3.2815  -3.2752  -3.2511  -3.1888  -3.1073
    -3.0762  -3.0540  -2.8770  -2.8303  -2.7905  -2.7388  -2.6209  -2.5787
    -2.5771  -2.5598  -2.5575  -2.4910  -2.4107  -2.3943  -2.3696  -2.3423
    -2.3108  -2.3067  -2.2815  -2.2802  -2.2749  -2.2692  -2.2631  -2.2517
    -2.2295  -2.2204  -2.1975  -2.1695  -2.1324  -2.1240  -2.1149  -2.0969
    -2.0842  -2.0593  -2.0576  -2.0560  -2.0530  -2.0467  -2.0235  -2.0222
    -1.9832  -1.9788  -1.9726  -1.9699  -1.9475  -1.8482  -1.8305  -1.8207
    -1.8047  -1.7901  -1.7864  -1.7458  -1.7319  -1.7259  -1.7218  -1.7164
    -1.7106  -1.6875  -1.6827  -1.6715  -1.6642  -1.6587  -1.6553  -1.6524
    -1.6398  -1.6171  -1.6137  -1.6099  -1.6047  -1.5973  -1.5917  -1.5868
    -1.5683  -1.5571  -1.5513  -1.5383  -1.5247  -1.5167  -1.5038  -1.4934
    -1.4917  -1.4869  -1.4859  -1.4842  -1.4756  -1.4690  -1.4646  -1.4613
    -1.4598  -1.4546  -1.4535  -1.4526  -1.4461  -1.4380  -1.4309  -1.4249
    -1.4153  -1.3806  -1.3790  -1.3750  -1.3364  -1.3329  -1.3289  -1.2933
    -1.2905  -1.2802  -1.2734  -1.2664  -1.2508  -1.2490  -1.2411  -1.2353
    -1.2309  -1.2289  -1.2255  -1.2178  -1.2100  -1.2016  -1.1711  -1.1493
    -1.0964  -1.0866  -1.0750  -1.0727  -1.0533  -1.0464  -1.0434  -1.0336
    -1.0306  -1.0285  -1.0249  -1.0187  -1.0143  -1.0101  -1.0075  -1.0008
    -0.9855  -0.9690  -0.9657  -0.9628  -0.9601  -0.9516  -0.9401  -0.9385
    -0.9376  -0.9333  -0.9199  -0.9010  -0.8793  -0.8763  -0.8750  -0.8697
    -0.8655  -0.8633  -0.8582  -0.8462  -0.8355  -0.8307  -0.8187  -0.8122
    -0.8097  -0.7992  -0.7844  -0.7732  -0.7725  -0.7701  -0.7685  -0.7584
    -0.7547  -0.7452  -0.7412  -0.7379  -0.7258  -0.7228  -0.7157  -0.7105
    -0.6950  -0.6872  -0.6792  -0.6761  -0.6745  -0.6675  -0.6657  -0.6590
    -0.6577  -0.6508  -0.6299  -0.6279  -0.6202  -0.6152  -0.6104  -0.5942
    -0.5904  -0.5901  -0.5753  -0.5619  -0.5490  -0.5445  -0.5423  -0.5410
    -0.5291  -0.5164  -0.5087  -0.4971  -0.4948  -0.4919  -0.4896  -0.4875
    -0.4789  -0.4759  -0.4739  -0.4725  -0.4692  -0.4681  -0.4665  -0.4632
    -0.4584  -0.4450  -0.4415  -0.4400  -0.4377  -0.4312  -0.4218  -0.4155
    -0.4090  -0.4013  -0.3968  -0.3917  -0.3716  -0.3689  -0.3624  -0.3606
    -0.3557  -0.3458  -0.3421  -0.3390  -0.3322  -0.3280  -0.3208  -0.3118
    -0.2901  -0.2858  -0.2470  -0.2323  -0.2276  -0.2232  -0.2213  -0.2143
    -0.2129  -0.2095  -0.2029  -0.2010  -0.1983  -0.1951  -0.1919  -0.1888
    -0.1853  -0.1840  -0.1781  -0.1715  -0.1674  -0.1633  -0.1582  -0.1514
    -0.1476  -0.1415  -0.1404  -0.1384  -0.1307  -0.1247  -0.1179  -0.1025
    -0.0936  -0.0726  -0.0672  -0.0626  -0.0611  -0.0512  -0.0435  -0.0377
    -0.0309  -0.0268  -0.0114  -0.0054  -0.0045  -0.0005   0.0028   0.0063
     0.0081   0.0094   0.0168   0.0192   0.0261   0.0305   0.0342   0.0401
     0.0437   0.0482   0.0553   0.0624   0.0671   0.0709   0.0750   0.0787
     0.0885   0.0958   0.0978   0.1058   0.1086   0.1117   0.1140   0.1188
     0.1226   0.1270   0.1302   0.1343   0.1387   0.1474   0.1579   0.1621
     0.1625   0.1730   0.1796   0.1843   0.1886   0.1918   0.1975   0.2052
     0.2193   0.2221   0.2369   0.2453   0.2491   0.2601   0.2615   0.2640
     0.2685   0.2775   0.2858   0.2904   0.2926   0.2970   0.3015   0.3022
     0.3040   0.3146   0.3183   0.3325   0.3364   0.3421   0.3457   0.3502
     0.3580   0.3675   0.3740   0.3778   0.3818   0.3977   0.4008   0.4022
     0.4096   0.4108   0.4134   0.4145   0.4175   0.4213   0.4252   0.4292
     0.4367   0.4464   0.4609   0.4659   0.4715   0.4814   0.4891   0.4905
     0.4995   0.5025   0.5077   0.5101   0.5113   0.5142   0.5215   0.5228
     0.5256   0.5277   0.5329   0.5375   0.5391   0.5414   0.5428   0.5432
     0.5479   0.5503   0.5562   0.5567   0.5603   0.5651   0.5715   0.5764
     0.5814   0.5878   0.5918   0.5929   0.5945   0.6000   0.6046   0.6124
     0.6172   0.6210   0.6261   0.6301   0.6336   0.6349   0.6364   0.6420
     0.6484   0.6497   0.6596   0.6630   0.6659   0.6710   0.6733   0.6812
     0.6827   0.7002   0.7060   0.7090   0.7132   0.7167   0.7281   0.7322
     0.7387   0.7491   0.7552   0.7579   0.7642   0.7677   0.7756   0.7788
     0.7804   0.7823   0.7855   0.7910   0.7968   0.8000   0.8046   0.8082
     0.8105   0.8140   0.8172   0.8196   0.8206   0.8234   0.8274   0.8302
     0.8347   0.8367   0.8401   0.8451   0.8483   0.8532   0.8563   0.8592
     0.8719   0.8742   0.8782   0.8818   0.8850   0.8883   0.8922   0.8993
     0.9025   0.9067   0.9095   0.9134   0.9158   0.9241   0.9257   0.9373
     0.9404   0.9420   0.9434   0.9464   0.9486   0.9511   0.9517   0.9566
     0.9591   0.9616   0.9649   0.9652   0.9760   0.9843   0.9865   0.9908
     0.9937   0.9964   1.0033   1.0053   1.0068   1.0105   1.0134   1.0196
     1.0245   1.0327   1.0387   1.0397   1.0509   1.0575   1.0707   1.0768
     1.0809   1.1043   1.1188   1.1425   1.1456   1.1476   1.1534   1.1934
     1.2372   1.2654   1.2837   1.2914   1.2969   1.3227   1.3361   1.3602
     1.5064   1.5511   1.5597   1.5948   1.6197   1.6455   1.6881   1.7352
     1.7884   1.8795   2.0625   2.0830   2.0873   2.1062   2.3753   2.4941
     2.5031   2.5798   2.7047   2.7218   2.7406   2.7418   2.7776   2.8707
     2.9679   2.9946   3.1040   3.1449   3.1709   3.1887   3.2146   3.2272
     3.2431   3.2813   3.3409   3.3602   3.4050   3.4558   3.5276   3.6346
     3.6935   3.7879   3.8006   3.8750   3.9539   4.2612   4.3169   4.3503
     4.3634   4.5448   4.6344   4.6659   4.7471   4.7720   4.8010   4.9076
     4.9805   5.0208   5.0350   5.0492   5.0642   5.1474   5.2145   5.2599
     5.3375   5.3703   5.4105   5.4429   5.5092   5.5307   5.5410   5.5612
     5.6592   5.6900   6.0677   6.1852   6.2208   6.2673   6.2856   6.3116
     6.4266   6.5125   6.5440   6.5647   6.5752   6.5853   6.6082   6.6883
     6.7349   6.8746   6.9101   6.9657   7.0269   7.0559   7.1295   7.1518
     7.2321   7.2825   7.3354   7.4499   7.5246   7.5459   7.5825   7.6053
     7.6257   7.6893   7.7343   7.8188   7.8413   7.8627   7.8996   7.9738
     8.0201   8.0460   8.0696   8.1519   8.1760   8.3128   8.4288   8.4677
     8.4976   8.5170   8.5504   8.5634   8.6457   8.6681   8.6931   8.7279
     8.7365   8.7707   8.8257   8.8513   8.8866   8.9225   8.9539   8.9707
     9.0217   9.0492   9.0684   9.1977   9.2224   9.2608   9.2986   9.3579
     9.3720

          k = 0.2500-0.2165 0.0000 (256316 PWs)   bands (ev):

   -21.4978 -18.9407 -17.0225 -16.3304 -15.7371 -15.4124 -15.0228 -14.4843
   -13.9963 -13.6671 -13.2944 -13.0980 -12.6052 -12.3056 -11.8058 -11.3619
   -11.1087 -10.6229 -10.3542  -9.8207  -9.5406  -9.4390  -8.9857  -8.5127
    -8.0267  -7.7138  -7.4519  -7.1635  -7.0502  -6.6606  -6.5409  -6.2258
    -6.1957  -6.1339  -6.0869  -5.6875  -5.5434  -5.4143  -5.2578  -5.2042
    -5.1516  -5.1253  -4.9987  -4.8326  -4.8048  -4.7545  -4.7252  -4.6239
    -4.4641  -4.3213  -4.2143  -4.1411  -4.1055  -4.0697  -4.0149  -3.9957
    -3.9446  -3.9264  -3.8400  -3.7724  -3.6998  -3.6572  -3.5521  -3.5160
    -3.4389  -3.4143  -3.3833  -3.3727  -3.3308  -3.2798  -3.1821  -3.1058
    -3.0627  -2.8020  -2.7852  -2.7647  -2.7048  -2.6726  -2.6476  -2.6465
    -2.6436  -2.6233  -2.5607  -2.4878  -2.4844  -2.4715  -2.4334  -2.3893
    -2.3591  -2.3191  -2.2943  -2.2904  -2.2891  -2.2534  -2.2213  -2.2025
    -2.1947  -2.1896  -2.1841  -2.1805  -2.1729  -2.1606  -2.1556  -2.1501
    -2.1482  -2.1439  -2.1405  -2.1120  -2.0826  -2.0630  -2.0525  -1.9535
    -1.9444  -1.8845  -1.8591  -1.8169  -1.8108  -1.8042  -1.7892  -1.7610
    -1.7577  -1.7534  -1.7430  -1.7419  -1.7368  -1.7269  -1.7231  -1.7202
    -1.7079  -1.7042  -1.7030  -1.6986  -1.6909  -1.6852  -1.6779  -1.6732
    -1.6634  -1.6579  -1.6519  -1.6306  -1.6173  -1.6072  -1.6011  -1.5969
    -1.5938  -1.5886  -1.5866  -1.5656  -1.5523  -1.5289  -1.5204  -1.5183
    -1.5143  -1.5038  -1.4977  -1.4928  -1.4757  -1.4736  -1.4726  -1.4446
    -1.4413  -1.4382  -1.4354  -1.4326  -1.4311  -1.4271  -1.4196  -1.4064
    -1.3948  -1.3894  -1.3754  -1.3543  -1.3413  -1.3393  -1.3370  -1.3109
    -1.2679  -1.2621  -1.2591  -1.2498  -1.2429  -1.2416  -1.2181  -1.2101
    -1.2016  -1.1977  -1.1920  -1.1857  -1.1845  -1.1822  -1.1738  -1.1588
    -1.1455  -1.1277  -1.1175  -1.0932  -1.0904  -1.0863  -1.0529  -1.0490
    -1.0423  -1.0399  -1.0363  -1.0160  -1.0129  -1.0081  -0.9935  -0.9873
    -0.9818  -0.9790  -0.9708  -0.9662  -0.9589  -0.9425  -0.9314  -0.9265
    -0.9150  -0.9118  -0.8983  -0.8916  -0.8887  -0.8846  -0.8714  -0.8693
    -0.8626  -0.8525  -0.8493  -0.8474  -0.8411  -0.8394  -0.8333  -0.8316
    -0.8279  -0.8180  -0.8060  -0.8046  -0.7972  -0.7928  -0.7776  -0.7668
    -0.7578  -0.7536  -0.7402  -0.7316  -0.7279  -0.7198  -0.7170  -0.7137
    -0.7019  -0.6982  -0.6922  -0.6896  -0.6837  -0.6692  -0.6639  -0.6334
    -0.6296  -0.6007  -0.5938  -0.5898  -0.5869  -0.5857  -0.5829  -0.5807
    -0.5691  -0.5637  -0.5518  -0.5489  -0.5452  -0.5429  -0.5332  -0.5274
    -0.5220  -0.5191  -0.5140  -0.5125  -0.5046  -0.4987  -0.4959  -0.4893
    -0.4871  -0.4829  -0.4796  -0.4766  -0.4730  -0.4708  -0.4695  -0.4680
    -0.4610  -0.4541  -0.4507  -0.4497  -0.4448  -0.4405  -0.4180  -0.4131
    -0.4082  -0.4036  -0.4010  -0.3883  -0.3796  -0.3767  -0.3505  -0.3480
    -0.3460  -0.3427  -0.3340  -0.3303  -0.3232  -0.3214  -0.3140  -0.3110
    -0.3070  -0.3054  -0.2934  -0.2816  -0.2773  -0.2570  -0.2227  -0.2132
    -0.2103  -0.2082  -0.2059  -0.2003  -0.1975  -0.1923  -0.1884  -0.1791
    -0.1783  -0.1764  -0.1680  -0.1665  -0.1614  -0.1566  -0.1511  -0.1459
    -0.1434  -0.1405  -0.1343  -0.1222  -0.1182  -0.1098  -0.1054  -0.1006
    -0.0981  -0.0876  -0.0837  -0.0742  -0.0675  -0.0530  -0.0486  -0.0352
    -0.0319  -0.0273  -0.0246  -0.0228  -0.0112  -0.0083  -0.0046  -0.0009
     0.0000   0.0051   0.0078   0.0127   0.0259   0.0331   0.0368   0.0457
     0.0505   0.0600   0.0796   0.0835   0.0871   0.0891   0.0968   0.1059
     0.1125   0.1172   0.1235   0.1257   0.1323   0.1370   0.1393   0.1418
     0.1439   0.1557   0.1623   0.1657   0.1674   0.1717   0.1759   0.1807
     0.1854   0.1892   0.1918   0.1949   0.1954   0.2043   0.2078   0.2112
     0.2122   0.2173   0.2194   0.2227   0.2267   0.2294   0.2309   0.2330
     0.2353   0.2432   0.2489   0.2558   0.2669   0.2733   0.2819   0.2857
     0.2919   0.3037   0.3112   0.3306   0.3359   0.3423   0.3437   0.3456
     0.3478   0.3495   0.3518   0.3623   0.3709   0.3748   0.3757   0.3763
     0.3773   0.3795   0.3875   0.3939   0.4023   0.4071   0.4141   0.4172
     0.4192   0.4250   0.4320   0.4431   0.4486   0.4500   0.4548   0.4645
     0.4733   0.4768   0.4853   0.4870   0.4886   0.4929   0.4977   0.5042
     0.5175   0.5232   0.5292   0.5325   0.5386   0.5434   0.5524   0.5580
     0.5684   0.5720   0.5813   0.5923   0.5974   0.6064   0.6079   0.6094
     0.6110   0.6119   0.6131   0.6145   0.6170   0.6220   0.6236   0.6275
     0.6303   0.6350   0.6399   0.6444   0.6494   0.6537   0.6658   0.6770
     0.6794   0.6822   0.6874   0.6908   0.6942   0.6959   0.6986   0.7046
     0.7061   0.7095   0.7111   0.7151   0.7181   0.7214   0.7227   0.7281
     0.7311   0.7350   0.7382   0.7409   0.7441   0.7459   0.7485   0.7510
     0.7599   0.7688   0.7731   0.7748   0.7885   0.7901   0.7925   0.7991
     0.8022   0.8100   0.8162   0.8188   0.8250   0.8291   0.8313   0.8391
     0.8409   0.8462   0.8499   0.8515   0.8539   0.8570   0.8613   0.8664
     0.8703   0.8740   0.8759   0.8809   0.8835   0.8907   0.8948   0.8966
     0.9015   0.9024   0.9056   0.9076   0.9129   0.9159   0.9167   0.9178
     0.9226   0.9256   0.9310   0.9339   0.9396   0.9505   0.9537   0.9571
     0.9594   0.9615   0.9624   0.9642   0.9657   0.9702   0.9741   0.9753
     0.9784   0.9860   0.9989   1.0005   1.0054   1.0148   1.0194   1.0236
     1.0280   1.0372   1.0428   1.0487   1.0514   1.0721   1.0726   1.0772
     1.0810   1.0855   1.1111   1.1248   1.1775   1.1874   1.1986   1.2226
     1.2705   1.2745   1.2808   1.2858   1.3034   1.3158   1.3425   1.3657
     1.4269   1.4606   1.6084   1.6441   1.6569   1.6772   1.6906   1.7984
     1.8280   2.0975   2.1064   2.2653   2.2748   2.2917   2.3146   2.3239
     2.3323   2.3611   2.3797   2.4441   2.5020   2.5504   2.6270   2.6708
     3.0351   3.0977   3.1220   3.1528   3.2541   3.3006   3.3214   3.3660
     3.3701   3.4002   3.4862   3.5152   3.5771   3.5965   3.6552   3.6843
     3.7141   3.8929   3.9031   3.9641   4.0121   4.0670   4.1846   4.1978
     4.2836   4.3372   4.4836   4.5339   4.6167   4.7134   4.7432   4.8114
     4.8751   4.8993   4.9490   4.9696   5.0130   5.0452   5.0979   5.2478
     5.2831   5.3551   5.4073   5.4274   5.4984   5.5289   5.6794   6.0093
     6.0347   6.0948   6.1191   6.2019   6.2764   6.3344   6.3562   6.4290
     6.4671   6.5073   6.5968   6.6275   6.6627   6.6800   6.7141   6.7296
     6.7686   6.8128   6.8517   6.8671   6.9167   6.9580   6.9854   7.0495
     7.1101   7.2142   7.2830   7.3264   7.3991   7.4611   7.5284   7.6070
     7.7003   7.7172   7.7741   7.8333   7.8927   8.0403   8.0495   8.0867
     8.1186   8.1613   8.1774   8.1980   8.2194   8.2528   8.2792   8.3589
     8.4069   8.4402   8.4813   8.5261   8.6089   8.6332   8.6745   8.7111
     8.7493   8.7586   8.7729   8.7852   8.8085   8.8201   8.8868   8.9077
     8.9325   8.9548   9.0267   9.0473   9.1431   9.1738   9.1824   9.2427
     9.2977

          k =-0.5000 0.0000 0.0000 (256496 PWs)   bands (ev):

   -21.4977 -18.9409 -16.9477 -16.1630 -15.9538 -15.6132 -15.1535 -14.6918
   -13.9988 -13.4556 -12.6643 -12.5565 -12.3177 -12.0647 -11.9695 -11.8666
   -11.4354 -10.8104 -10.7527 -10.0056  -9.6627  -9.4002  -9.1611  -8.6814
    -8.4788  -7.9369  -7.6375  -6.9860  -6.5090  -6.0915  -5.8774  -5.7861
    -5.7780  -5.7107  -5.6769  -5.4716  -5.4064  -5.3212  -5.2807  -5.2801
    -5.2663  -5.2436  -5.0874  -4.8577  -4.8414  -4.7653  -4.7412  -4.5134
    -4.4814  -4.4444  -4.4078  -4.3853  -4.3500  -4.1695  -4.1577  -4.1445
    -4.1057  -4.0066  -3.9071  -3.9044  -3.8982  -3.8886  -3.8531  -3.8237
    -3.6883  -3.6446  -3.4062  -3.2784  -3.1982  -3.1686  -3.1233  -3.1195
    -3.0839  -3.0728  -3.0110  -2.8791  -2.8141  -2.7889  -2.7630  -2.7494
    -2.7274  -2.6662  -2.3692  -2.3613  -2.3584  -2.3567  -2.3532  -2.3526
    -2.3362  -2.2988  -2.2703  -2.2372  -2.2162  -2.1378  -2.1334  -2.1298
    -2.1275  -2.0976  -2.0823  -2.0810  -2.0786  -2.0763  -2.0373  -1.9761
    -1.9706  -1.9668  -1.9656  -1.9378  -1.9046  -1.8998  -1.8981  -1.8900
    -1.8845  -1.8584  -1.8514  -1.8421  -1.8397  -1.8336  -1.8291  -1.8259
    -1.8204  -1.8186  -1.8031  -1.7767  -1.7761  -1.7730  -1.7697  -1.7561
    -1.7481  -1.7474  -1.7432  -1.7263  -1.7201  -1.6827  -1.6819  -1.6664
    -1.6619  -1.6600  -1.6562  -1.6349  -1.6276  -1.6264  -1.6152  -1.6125
    -1.6026  -1.5933  -1.5868  -1.5833  -1.5817  -1.5783  -1.5643  -1.5631
    -1.5497  -1.5427  -1.5344  -1.5318  -1.5135  -1.4868  -1.4858  -1.4629
    -1.4586  -1.4572  -1.4530  -1.4327  -1.4278  -1.4227  -1.4183  -1.4153
    -1.4129  -1.4081  -1.4036  -1.3973  -1.3934  -1.3853  -1.3811  -1.3637
    -1.3363  -1.3209  -1.3181  -1.3165  -1.3141  -1.2741  -1.2711  -1.1924
    -1.1896  -1.1877  -1.1870  -1.1605  -1.1566  -1.1541  -1.1513  -1.1459
    -1.1447  -1.1352  -1.1246  -1.1217  -1.1135  -1.1078  -1.0967  -1.0952
    -1.0859  -1.0846  -1.0811  -1.0610  -1.0549  -1.0458  -1.0380  -0.9903
    -0.9677  -0.9548  -0.9416  -0.9377  -0.9342  -0.9205  -0.9163  -0.9081
    -0.9035  -0.8935  -0.8872  -0.8842  -0.8766  -0.8737  -0.8512  -0.8496
    -0.8472  -0.8448  -0.8433  -0.8191  -0.8132  -0.8109  -0.8065  -0.8045
    -0.7988  -0.7890  -0.7784  -0.7759  -0.7702  -0.7665  -0.7634  -0.7627
    -0.7616  -0.7491  -0.7304  -0.7272  -0.7257  -0.7248  -0.7016  -0.6957
    -0.6832  -0.6777  -0.6274  -0.6197  -0.6165  -0.6135  -0.6111  -0.6065
    -0.6049  -0.6011  -0.5804  -0.5795  -0.5724  -0.5642  -0.5567  -0.5414
    -0.5377  -0.5295  -0.5098  -0.5059  -0.5049  -0.5030  -0.5007  -0.4984
    -0.4962  -0.4957  -0.4939  -0.4924  -0.4876  -0.4825  -0.4473  -0.4371
    -0.4310  -0.4262  -0.4146  -0.4118  -0.4113  -0.4083  -0.4067  -0.4054
    -0.4008  -0.3991  -0.3961  -0.3929  -0.3909  -0.3831  -0.3809  -0.3786
    -0.3773  -0.3667  -0.3627  -0.3623  -0.3587  -0.3573  -0.3551  -0.3546
    -0.3542  -0.3514  -0.3489  -0.3474  -0.3446  -0.3350  -0.3329  -0.3263
    -0.3245  -0.3234  -0.3213  -0.3167  -0.3121  -0.2970  -0.2924  -0.2801
    -0.2179  -0.2093  -0.2021  -0.1971  -0.1962  -0.1691  -0.1646  -0.1623
    -0.1607  -0.1545  -0.1520  -0.1483  -0.1464  -0.1435  -0.1421  -0.1409
    -0.1359  -0.1346  -0.1241  -0.1237  -0.1208  -0.1191  -0.1170  -0.1114
    -0.1064  -0.1040  -0.1032  -0.0999  -0.0920  -0.0905  -0.0840  -0.0792
    -0.0784  -0.0733  -0.0705  -0.0557  -0.0280  -0.0163  -0.0070   0.0117
     0.0124   0.0147   0.0205   0.0319   0.0331   0.0371   0.0437   0.0461
     0.0470   0.0490   0.0512   0.0524   0.0551   0.0561   0.0597   0.0657
     0.0666   0.0688   0.0701   0.0753   0.0818   0.0906   0.0992   0.1020
     0.1076   0.1129   0.1175   0.1229   0.1340   0.1447   0.1464   0.1526
     0.1540   0.1561   0.1571   0.1620   0.1665   0.1683   0.1696   0.1707
     0.1798   0.1853   0.1863   0.1894   0.1978   0.2008   0.2114   0.2176
     0.2238   0.2293   0.2301   0.2322   0.2343   0.2467   0.2551   0.2592
     0.2704   0.2739   0.2859   0.2867   0.2974   0.3129   0.3214   0.3262
     0.3427   0.3488   0.3564   0.3602   0.3626   0.3638   0.3651   0.3663
     0.3695   0.3730   0.3755   0.3789   0.3872   0.3905   0.4022   0.4031
     0.4066   0.4096   0.4117   0.4200   0.4243   0.4258   0.4286   0.4313
     0.4328   0.4417   0.4523   0.4623   0.4749   0.4795   0.4892   0.5155
     0.5298   0.5307   0.5372   0.5384   0.5419   0.5458   0.5592   0.5608
     0.5666   0.5724   0.5773   0.5892   0.5981   0.6003   0.6030   0.6078
     0.6179   0.6242   0.6307   0.6337   0.6354   0.6371   0.6392   0.6421
     0.6438   0.6462   0.6491   0.6501   0.6539   0.6581   0.6585   0.6593
     0.6634   0.6644   0.6681   0.6740   0.6839   0.6975   0.6984   0.6989
     0.7046   0.7063   0.7123   0.7181   0.7286   0.7302   0.7334   0.7360
     0.7460   0.7525   0.7576   0.7594   0.7615   0.7644   0.7651   0.7663
     0.7681   0.7713   0.7778   0.7851   0.7883   0.8015   0.8096   0.8158
     0.8222   0.8224   0.8344   0.8356   0.8369   0.8372   0.8393   0.8405
     0.8438   0.8456   0.8479   0.8500   0.8510   0.8528   0.8538   0.8544
     0.8555   0.8579   0.8587   0.8593   0.8621   0.8633   0.8667   0.8706
     0.8769   0.8840   0.8862   0.8875   0.8959   0.9009   0.9064   0.9143
     0.9194   0.9244   0.9341   0.9365   0.9370   0.9380   0.9402   0.9430
     0.9505   0.9545   0.9606   0.9614   0.9675   0.9705   0.9712   0.9773
     0.9849   0.9885   0.9919   0.9928   0.9960   0.9968   1.0015   1.0054
     1.0096   1.0122   1.0250   1.0295   1.0353   1.0358   1.0362   1.0369
     1.0397   1.0446   1.0523   1.0596   1.0891   1.0961   1.1008   1.1121
     1.1285   1.1302   1.1320   1.1348   1.2692   1.5468   1.5567   1.5640
     1.6024   1.7192   1.7632   1.7975   1.8052   1.8081   1.8154   1.8276
     1.8641   2.1056   2.1253   2.1782   2.2488   2.3466   2.3533   2.3600
     2.3621   2.3936   2.7024   2.7041   2.7138   2.7358   2.9926   3.0338
     3.1999   3.2378   3.2754   3.3409   3.4229   3.4296   3.4570   3.4664
     3.5793   3.5836   3.5906   3.6364   3.7383   3.8028   3.8338   4.1262
     4.1754   4.2328   4.2772   4.3068   4.3397   4.3524   4.3700   4.4198
     4.4421   4.4836   4.4965   4.5290   4.5403   4.5492   4.5693   4.5877
     4.6065   4.6307   4.6832   4.7307   4.7969   4.8737   4.8950   5.0111
     5.0178   5.0624   5.1339   5.1599   5.2146   5.4730   5.5011   5.5028
     5.5300   5.5860   5.6317   5.6474   5.6743   5.8107   5.8640   5.9009
     6.1070   6.1647   6.2113   6.5757   6.5824   6.6676   6.6891   6.7347
     6.7499   6.9181   7.0485   7.1130   7.1215   7.1254   7.1448   7.1467
     7.1925   7.2414   7.3158   7.3326   7.3708   7.4006   7.4445   7.4527
     7.4969   7.5167   7.5340   7.5366   7.5761   7.6114   7.7046   7.7722
     7.8492   7.9423   8.0133   8.0382   8.1303   8.2737   8.2943   8.3268
     8.3543   8.3705   8.5261   8.5343   8.5459   8.5528   8.5919   8.6102
     8.6781   8.7786   8.7938   8.8537   8.8910   8.9568   8.9721   9.0045
     9.0305   9.0375   9.0547   9.0711   9.1238   9.1501   9.2021   9.2314
     9.3277

          k =-0.5000-0.2165 0.0000 (256328 PWs)   bands (ev):

   -21.4977 -18.9409 -16.9477 -16.1630 -15.9538 -15.6132 -15.1536 -14.6918
   -13.9987 -13.4556 -12.6647 -12.5565 -12.3178 -12.0647 -11.9695 -11.8666
   -11.4351 -10.8101 -10.7524 -10.0055  -9.6627  -9.4001  -9.1636  -8.6815
    -8.4787  -7.9337  -7.6364  -6.9858  -6.5120  -6.0940  -5.8757  -5.7132
    -5.6862  -5.6760  -5.6648  -5.6404  -5.6381  -5.4512  -5.3775  -5.3139
    -5.0886  -4.8527  -4.8139  -4.7751  -4.7447  -4.6951  -4.6865  -4.6672
    -4.6548  -4.6106  -4.5280  -4.4653  -4.4092  -4.3506  -4.2986  -4.1697
    -4.1566  -4.0878  -4.0297  -3.8973  -3.7805  -3.7566  -3.6903  -3.6822
    -3.6202  -3.5968  -3.3180  -3.1944  -3.1306  -3.1090  -3.0578  -3.0550
    -3.0510  -3.0341  -3.0226  -3.0022  -2.9586  -2.9131  -2.7804  -2.6859
    -2.5790  -2.5647  -2.5501  -2.5458  -2.5174  -2.4970  -2.4678  -2.4354
    -2.2907  -2.2852  -2.2790  -2.2726  -2.2645  -2.2055  -2.1164  -2.0812
    -2.0594  -2.0522  -1.9978  -1.9787  -1.9756  -1.9707  -1.9691  -1.9664
    -1.9467  -1.9265  -1.9191  -1.9155  -1.9068  -1.9064  -1.8888  -1.8724
    -1.8705  -1.8651  -1.8606  -1.8586  -1.8577  -1.8489  -1.8451  -1.8389
    -1.8369  -1.8365  -1.8341  -1.8082  -1.7903  -1.7880  -1.7813  -1.7639
    -1.7592  -1.7223  -1.7154  -1.7085  -1.6875  -1.6716  -1.6703  -1.6678
    -1.6656  -1.6574  -1.6481  -1.6376  -1.6312  -1.6240  -1.6109  -1.6017
    -1.6004  -1.5991  -1.5966  -1.5933  -1.5908  -1.5901  -1.5822  -1.5575
    -1.5443  -1.5423  -1.5389  -1.5336  -1.5302  -1.5256  -1.5251  -1.5209
    -1.5180  -1.5139  -1.5127  -1.5082  -1.5010  -1.4967  -1.4791  -1.3714
    -1.3681  -1.3565  -1.3498  -1.3325  -1.3308  -1.3305  -1.3275  -1.2726
    -1.2676  -1.2549  -1.2536  -1.2485  -1.2465  -1.2441  -1.2406  -1.2383
    -1.2372  -1.2350  -1.2163  -1.1832  -1.1809  -1.1783  -1.1760  -1.1724
    -1.1674  -1.1590  -1.1574  -1.1527  -1.1471  -1.1377  -1.1356  -1.0923
    -1.0724  -1.0688  -1.0567  -1.0514  -1.0323  -1.0247  -1.0170  -0.9847
    -0.9799  -0.9767  -0.9724  -0.9525  -0.9298  -0.9277  -0.9255  -0.9159
    -0.9119  -0.9112  -0.9025  -0.8988  -0.8895  -0.8842  -0.8748  -0.8734
    -0.8691  -0.8686  -0.8669  -0.8574  -0.8284  -0.8131  -0.8084  -0.7893
    -0.7608  -0.7590  -0.7484  -0.7462  -0.7372  -0.7358  -0.7314  -0.7297
    -0.7238  -0.7199  -0.7179  -0.7152  -0.6835  -0.6523  -0.6418  -0.6408
    -0.6363  -0.6351  -0.6311  -0.6296  -0.6278  -0.6256  -0.6244  -0.6184
    -0.5958  -0.5916  -0.5898  -0.5889  -0.5847  -0.5799  -0.5780  -0.5758
    -0.5739  -0.5719  -0.5712  -0.5689  -0.5534  -0.5294  -0.5144  -0.5074
    -0.5048  -0.4977  -0.4908  -0.4859  -0.4769  -0.4653  -0.4424  -0.4347
    -0.4282  -0.4219  -0.4164  -0.4040  -0.4007  -0.3986  -0.3983  -0.3953
    -0.3928  -0.3886  -0.3872  -0.3862  -0.3829  -0.3803  -0.3796  -0.3777
    -0.3748  -0.3729  -0.3725  -0.3698  -0.3665  -0.3642  -0.3605  -0.3568
    -0.3515  -0.3499  -0.3483  -0.3317  -0.3311  -0.3297  -0.3280  -0.3206
    -0.3156  -0.3139  -0.3089  -0.3042  -0.3012  -0.2732  -0.2680  -0.2653
    -0.2632  -0.2590  -0.2380  -0.2354  -0.2319  -0.2278  -0.2026  -0.1678
    -0.1612  -0.1579  -0.1553  -0.1517  -0.1470  -0.1401  -0.1389  -0.1339
    -0.1291  -0.1285  -0.1234  -0.1172  -0.1160  -0.1131  -0.1109  -0.1068
    -0.1053  -0.1021  -0.1009  -0.0985  -0.0938  -0.0912  -0.0646  -0.0563
    -0.0498  -0.0341  -0.0280  -0.0268  -0.0230  -0.0140  -0.0091  -0.0088
    -0.0077  -0.0066   0.0085   0.0120   0.0157   0.0199   0.0240   0.0267
     0.0288   0.0326   0.0396   0.0423   0.0553   0.0625   0.0651   0.0685
     0.0716   0.0721   0.0808   0.0844   0.0853   0.0881   0.0905   0.0924
     0.0960   0.0968   0.0988   0.1039   0.1076   0.1156   0.1175   0.1243
     0.1346   0.1354   0.1476   0.1595   0.1645   0.1679   0.1809   0.1841
     0.1937   0.1983   0.2018   0.2058   0.2066   0.2082   0.2158   0.2164
     0.2263   0.2339   0.2378   0.2463   0.2493   0.2499   0.2505   0.2513
     0.2537   0.2549   0.2707   0.2837   0.2930   0.2998   0.3074   0.3092
     0.3163   0.3304   0.3335   0.3351   0.3366   0.3456   0.3644   0.3648
     0.3704   0.3729   0.3812   0.3960   0.3997   0.4039   0.4267   0.4427
     0.4451   0.4453   0.4471   0.4643   0.4707   0.4742   0.4799   0.4853
     0.4965   0.5063   0.5124   0.5197   0.5221   0.5308   0.5364   0.5399
     0.5442   0.5519   0.5526   0.5596   0.5624   0.5632   0.5634   0.5648
     0.5665   0.5670   0.5687   0.5699   0.5714   0.5744   0.5779   0.5824
     0.5856   0.5914   0.5919   0.5971   0.6035   0.6089   0.6103   0.6171
     0.6214   0.6246   0.6311   0.6338   0.6366   0.6412   0.6499   0.6523
     0.6536   0.6587   0.6630   0.6658   0.6671   0.6706   0.6910   0.6925
     0.6984   0.7060   0.7082   0.7115   0.7142   0.7151   0.7233   0.7320
     0.7360   0.7408   0.7435   0.7449   0.7571   0.7678   0.7699   0.7787
     0.7793   0.7845   0.7870   0.7873   0.7924   0.7967   0.7995   0.8027
     0.8045   0.8069   0.8080   0.8095   0.8117   0.8136   0.8340   0.8446
     0.8474   0.8551   0.8614   0.8654   0.8678   0.8694   0.8726   0.8736
     0.8756   0.8773   0.8793   0.8824   0.8877   0.8903   0.8961   0.8991
     0.9009   0.9057   0.9069   0.9102   0.9115   0.9122   0.9148   0.9160
     0.9174   0.9192   0.9213   0.9237   0.9280   0.9310   0.9334   0.9362
     0.9412   0.9442   0.9622   0.9641   0.9739   0.9766   0.9776   0.9825
     0.9875   0.9920   0.9970   0.9993   1.0012   1.0055   1.0090   1.0176
     1.0260   1.0286   1.0428   1.0519   1.0610   1.0811   1.0910   1.0927
     1.0935   1.0963   1.1000   1.1175   1.1195   1.1237   1.1279   1.1333
     1.1359   1.1386   1.1412   1.1444   1.1852   1.2029   1.3267   1.3521
     1.3627   1.3708   1.3900   1.8431   1.8897   1.9188   1.9534   2.0161
     2.0800   2.0863   2.0909   2.2862   2.3078   2.3283   2.3390   2.3773
     2.6061   2.6195   2.6737   2.7416   2.9642   2.9727   2.9750   2.9776
     3.1445   3.1649   3.1780   3.2202   3.4440   3.4517   3.4563   3.4605
     3.6378   3.7055   3.7394   3.7477   3.7572   3.8085   3.8501   3.9340
     3.9606   4.0229   4.0411   4.0846   4.1222   4.1514   4.1965   4.2074
     4.2318   4.3459   4.4607   4.5725   4.5841   4.6667   4.6776   4.6870
     4.7078   4.7395   4.7596   4.7984   4.8271   4.8716   4.8975   4.9437
     5.0021   5.0407   5.1382   5.2428   5.2547   5.2585   5.2722   5.4223
     5.4450   5.5482   5.5671   5.9311   6.1197   6.2869   6.3204   6.3456
     6.3685   6.4594   6.5595   6.5791   6.6279   6.6658   6.6696   6.6915
     6.7192   6.7302   6.7771   6.8600   6.8855   6.8921   6.8962   6.8993
     6.9408   6.9946   7.1149   7.1599   7.2371   7.3343   7.4543   7.5106
     7.5337   7.6088   7.6749   7.7485   7.7619   7.7801   7.7918   7.9241
     7.9826   8.1761   8.3162   8.3422   8.3593   8.3794   8.3900   8.4020
     8.4211   8.4450   8.4740   8.4806   8.4890   8.4993   8.5339   8.5457
     8.6119   8.6217   8.6619   8.6785   8.6793   8.6942   8.7713   8.8528
     8.8907   8.9233   8.9810   9.1007   9.1245   9.1644   9.2221   9.3198
     9.3805

     the Fermi energy is     2.8448 ev

!    total energy              =  -12583.75270261 Ry
     Harris-Foulkes estimate   =  -12583.75270261 Ry
     estimated scf accuracy    <          4.7E-09 Ry

     The total energy is the sum of the following terms:

     one-electron contribution = -110478.84318034 Ry
     hartree contribution      =   56562.67171564 Ry
     xc contribution           =   -4405.87477327 Ry
     ewald contribution        =   45744.41329030 Ry
     Dispersion Correction     =      -2.82763875 Ry
     smearing contrib. (-TS)   =      -3.29211619 Ry

     convergence has been achieved in  57 iterations

     Writing output data file gc.save
 
     init_run     :    168.31s CPU    180.19s WALL (       1 calls)
     electrons    :  24589.73s CPU  26344.08s WALL (       1 calls)

     Called by init_run:
     wfcinit      :    165.39s CPU    176.53s WALL (       1 calls)
     potinit      :      0.96s CPU      1.03s WALL (       1 calls)

     Called by electrons:
     c_bands      :  21874.60s CPU  23407.61s WALL (      57 calls)
     sum_band     :   2135.68s CPU   2266.85s WALL (      57 calls)
     v_of_rho     :      7.04s CPU      8.98s WALL (      58 calls)
     newd         :     19.35s CPU     38.42s WALL (      58 calls)
     mix_rho      :    552.93s CPU    622.08s WALL (      57 calls)

     Called by c_bands:
     init_us_2    :    102.34s CPU    104.56s WALL (     690 calls)
     cegterg      :  21455.80s CPU  22969.75s WALL (     342 calls)

     Called by sum_band:
     sum_band:bec :      5.84s CPU      6.82s WALL (     342 calls)
     addusdens    :     28.73s CPU     45.72s WALL (      57 calls)

     Called by *egterg:
     h_psi        :   8656.51s CPU   9332.67s WALL (    1933 calls)
     s_psi        :   2057.82s CPU   2071.91s WALL (    1933 calls)
     g_psi        :     21.92s CPU     21.94s WALL (    1585 calls)
     cdiaghg      :   5260.85s CPU   5569.30s WALL (    1927 calls)

     Called by h_psi:
     add_vuspsi   :   2059.87s CPU   2076.14s WALL (    1933 calls)

     General routines
     calbec       :   3037.78s CPU   3060.96s WALL (    2275 calls)
     fft          :      5.72s CPU      7.02s WALL (     753 calls)
     ffts         :    242.93s CPU    292.75s WALL (   35442 calls)
     fftw         :   4480.21s CPU   5158.34s WALL ( 1468646 calls)
     davcio       :      0.12s CPU      5.97s WALL (       6 calls)
 
     Parallel routines
     fft_scatter  :   2373.20s CPU   2687.15s WALL ( 1504841 calls)
 
     PWSCF        :     6h52m CPU        7h22m WALL

 
   This run was terminated on:   1:26:58  17Sep2017            

=------------------------------------------------------------------------------=
   JOB DONE.
=------------------------------------------------------------------------------=
