
     Program PWSCF v.5.4.0 starts on 20Apr2017 at 12: 2:45 

     This program is part of the open-source Quantum ESPRESSO suite
     for quantum simulation of materials; please cite
         "P. Giannozzi et al., J. Phys.:Condens. Matter 21 395502 (2009);
          URL http://www.quantum-espresso.org", 
     in publications or presentations arising from this work. More details at
     http://www.quantum-espresso.org/quote

     Parallel version (MPI & OpenMP), running on      56 processor cores
     Number of MPI processes:                56
     Threads/MPI process:                     1
     R & G space division:  proc/nbgrp/npool/nimage =      56
     Waiting for input...
     Reading input from standard input
Warning: card &IONS ignored
Warning: card / ignored

     Current dimensions of program PWSCF are:
     Max number of different atomic species (ntypx) = 10
     Max number of k-points (npk) =  40000
     Max angular momentum in pseudopotentials (lmaxx) =  3

     -------------------------------------
     Parameters for Dispersion Correction:
     -------------------------------------
       atom      VdW radius       C_6     

        Cu         2.952        374.666
        C_h        2.744         60.710
        C          2.744         60.710

     Subspace diagonalization in iterative solution of the eigenvalue problem:
     one sub-group per band group will be used
     scalapack distributed-memory algorithm (size of sub-group:  5*  5 procs)

 
     Parallelization info
     --------------------
     sticks:   dense  smooth     PW     G-vecs:    dense   smooth      PW
     Min         204     204     54                36612    36612    4962
     Max         205     205     55                36617    36617    4968
     Sum       11433   11433   3039              2050409  2050409  278033
 


     bravais-lattice index     =            0
     lattice parameter (alat)  =      13.9425  a.u.
     unit-cell volume          =   21209.0878 (a.u.)^3
     number of atoms/cell      =          156
     number of atomic types    =            3
     number of electrons       =      1380.00
     number of Kohn-Sham states=          828
     kinetic-energy cutoff     =      80.0000  Ry
     charge density cutoff     =     320.0000  Ry
     convergence threshold     =      1.0E-08
     mixing beta               =       0.7000
     number of iterations used =            8  local-TF  mixing
     Exchange-correlation      =  SLA  PW   PBX  PBC ( 1  4  3  4 0 0)

     celldm(1)=  13.942539  celldm(2)=   0.000000  celldm(3)=   0.000000
     celldm(4)=   0.000000  celldm(5)=   0.000000  celldm(6)=   0.000000

     crystal axes: (cart. coord. in units of alat)
               a(1) = (   1.000000   0.000000   0.000000 )  
               a(2) = (   0.000000   2.309401   0.000000 )  
               a(3) = (   0.000000   0.000000   3.388418 )  

     reciprocal axes: (cart. coord. in units 2 pi/alat)
               b(1) = (  1.000000  0.000000  0.000000 )  
               b(2) = (  0.000000  0.433013  0.000000 )  
               b(3) = (  0.000000  0.000000  0.295123 )  


     PseudoPot. # 1 for Cu read from file:
     /home/549/hxw549/Short/pseudopotentials/Cu.pbe-n-van_ak.UPF
     MD5 check sum: 601f7c30f7467666bec936e0661ce3e1
     Pseudo is Ultrasoft + core correction, Zval = 11.0
     Generated by new atomic code, or converted to UPF format
     Using radial grid of  867 points,  6 beta functions with: 
                l(1) =   0
                l(2) =   0
                l(3) =   1
                l(4) =   1
                l(5) =   2
                l(6) =   2
     Q(r) pseudized with  8 coefficients,  rinner =    1.400   1.400   1.400
                                                       1.400   1.400

     PseudoPot. # 2 for C  read from file:
     /home/549/hxw549/Short/pseudopotentials/C.star1s-pbe-mt_gipaw.UPF
     MD5 check sum: ef0cb3dee31bd9e4ba2a832a2c716264
     Pseudo is Norm-conserving, Zval =  5.0
     Generated by new atomic code, or converted to UPF format
     Using radial grid of 1073 points,  1 beta functions with: 
                l(1) =   0

     PseudoPot. # 3 for C  read from file:
     /home/549/hxw549/Short/pseudopotentials/C.pbe-mt_gipaw.UPF
     MD5 check sum: 5ac2f21f2c440b14befe521540822c15
     Pseudo is Norm-conserving, Zval =  4.0
     Generated by new atomic code, or converted to UPF format
     Using radial grid of 1073 points,  1 beta functions with: 
                l(1) =   0

     atomic species   valence    mass     pseudopotential
        Cu            11.00    63.54600     Cu( 1.00)
        C_h            5.00    12.01070     C ( 1.00)
        C              4.00    12.01070     C ( 1.00)

     No symmetry found



   Cartesian axes

     site n.     atom                  positions (alat units)
         1           Cu  tau(   1) = (  -0.0000549   0.0038944   0.8895039  )
         2           Cu  tau(   2) = (   0.2498561   0.2364069   0.8931545  )
         3           Cu  tau(   3) = (   0.4999834   0.0040272   0.8891076  )
         4           Cu  tau(   4) = (   0.7500655   0.2365774   0.8930538  )
         5           Cu  tau(   5) = (  -0.0000562   0.4680485   0.8986857  )
         6           Cu  tau(   6) = (   0.2499204   0.6979601   0.9023997  )
         7           Cu  tau(   7) = (   0.4999770   0.4680600   0.8986438  )
         8           Cu  tau(   8) = (   0.7499919   0.6979170   0.9024188  )
         9           Cu  tau(   9) = (  -0.0000103   0.9272203   0.9035556  )
        10           Cu  tau(  10) = (   0.2499589   1.1564729   0.9037066  )
        11           Cu  tau(  11) = (   0.4999145   0.9271629   0.9034395  )
        12           Cu  tau(  12) = (   0.7499463   1.1564243   0.9036188  )
        13           Cu  tau(  13) = (  -0.0001139   1.3860246   0.9027183  )
        14           Cu  tau(  14) = (   0.2498801   1.6163418   0.8986746  )
        15           Cu  tau(  15) = (   0.5000280   1.3859803   0.9024834  )
        16           Cu  tau(  16) = (   0.7500312   1.6160597   0.8985479  )
        17           Cu  tau(  17) = (   0.0000423   1.8478793   0.8927838  )
        18           Cu  tau(  18) = (   0.2500275   2.0802463   0.8891797  )
        19           Cu  tau(  19) = (   0.4998824   1.8476458   0.8930400  )
        20           Cu  tau(  20) = (   0.7499023   2.0802466   0.8892023  )
        21           Cu  tau(  21) = (  -0.0000006   0.2314407   1.1418707  )
        22           Cu  tau(  22) = (   0.2498892   0.0016921   1.1383038  )
        23           Cu  tau(  23) = (   0.4999305   0.2313254   1.1417344  )
        24           Cu  tau(  24) = (   0.7500314   0.0017233   1.1384329  )
        25           Cu  tau(  25) = (  -0.0000709   0.6957747   1.1517252  )
        26           Cu  tau(  26) = (   0.2500244   0.4632860   1.1474081  )
        27           Cu  tau(  27) = (   0.4999876   0.6957836   1.1516684  )
        28           Cu  tau(  28) = (   0.7498984   0.4632432   1.1473117  )
        29           Cu  tau(  29) = (  -0.0000630   1.1568679   1.1543012  )
        30           Cu  tau(  30) = (   0.2499277   0.9268448   1.1543638  )
        31           Cu  tau(  31) = (   0.4999724   1.1568693   1.1541867  )
        32           Cu  tau(  32) = (   0.7500027   0.9269784   1.1543223  )
        33           Cu  tau(  33) = (  -0.0000082   1.6210599   1.1470060  )
        34           Cu  tau(  34) = (   0.2498596   1.3881448   1.1514236  )
        35           Cu  tau(  35) = (   0.4999174   1.6209561   1.1473344  )
        36           Cu  tau(  36) = (   0.7500490   1.3882920   1.1514093  )
        37           Cu  tau(  37) = (  -0.0001368   2.0821940   1.1384383  )
        38           Cu  tau(  38) = (   0.2500917   1.8528039   1.1417247  )
        39           Cu  tau(  39) = (   0.5000439   2.0824138   1.1382179  )
        40           Cu  tau(  40) = (   0.7498259   1.8528944   1.1417626  )
        41           Cu  tau(  41) = (  -0.0001378   0.0006883   1.3919862  )
        42           Cu  tau(  42) = (   0.2499845   0.2287190   1.3929011  )
        43           Cu  tau(  43) = (   0.5000483   0.0010692   1.3920855  )
        44           Cu  tau(  44) = (   0.7499379   0.2286829   1.3928022  )
        45           Cu  tau(  45) = (   0.0000062   0.4584630   1.3955340  )
        46           Cu  tau(  46) = (   0.2499963   0.6914661   1.3999671  )
        47           Cu  tau(  47) = (   0.4999185   0.4580848   1.3951344  )
        48           Cu  tau(  48) = (   0.7499533   0.6912121   1.4000695  )
        49           Cu  tau(  49) = (  -0.0000360   0.9252124   1.4043059  )
        50           Cu  tau(  50) = (   0.2499282   1.1590389   1.4037961  )
        51           Cu  tau(  51) = (   0.4999469   0.9251753   1.4044409  )
        52           Cu  tau(  52) = (   0.7500253   1.1590458   1.4042624  )
        53           Cu  tau(  53) = (  -0.0000739   1.3928481   1.3993409  )
        54           Cu  tau(  54) = (   0.2500691   1.6257625   1.3946926  )
        55           Cu  tau(  55) = (   0.4999884   1.3926344   1.3994945  )
        56           Cu  tau(  56) = (   0.7498314   1.6259215   1.3947318  )
        57           Cu  tau(  57) = (  -0.0000489   1.8554057   1.3928460  )
        58           Cu  tau(  58) = (   0.2499235   2.0832681   1.3919605  )
        59           Cu  tau(  59) = (   0.4999390   1.8556516   1.3922941  )
        60           Cu  tau(  60) = (   0.7499778   2.0829845   1.3920999  )
        61           Cu  tau(  61) = (  -0.0000594   0.2275935   1.6471819  )
        62           Cu  tau(  62) = (   0.2501001   0.0001540   1.6468201  )
        63           Cu  tau(  63) = (   0.4999427   0.2275226   1.6475724  )
        64           Cu  tau(  64) = (   0.7498079   0.0002051   1.6469932  )
        65           Cu  tau(  65) = (   0.0000357   0.6849101   1.6488244  )
        66           Cu  tau(  66) = (   0.2501027   0.4550203   1.6471545  )
        67           Cu  tau(  67) = (   0.4999170   0.6842384   1.6480417  )
        68           Cu  tau(  68) = (   0.7498109   0.4548594   1.6471270  )
        69           Cu  tau(  69) = (  -0.0000527   1.1637303   1.6506847  )
        70           Cu  tau(  70) = (   0.2501509   0.9216146   1.6509466  )
        71           Cu  tau(  71) = (   0.5000517   1.1629157   1.6515761  )
        72           Cu  tau(  72) = (   0.7497688   0.9213551   1.6514686  )
        73           Cu  tau(  73) = (  -0.0001140   1.6285458   1.6471528  )
        74           Cu  tau(  74) = (   0.2500948   1.3996204   1.6478345  )
        75           Cu  tau(  75) = (   0.5000089   1.6292832   1.6462570  )
        76           Cu  tau(  76) = (   0.7498648   1.4001992   1.6480762  )
        77           Cu  tau(  77) = (  -0.0001698   2.0839327   1.6471420  )
        78           Cu  tau(  78) = (   0.2497414   1.8566981   1.6467677  )
        79           Cu  tau(  79) = (   0.5001041   2.0836196   1.6465065  )
        80           Cu  tau(  80) = (   0.7501418   1.8567086   1.6473694  )
        81           Cu  tau(  81) = (   0.0000606   0.0005566   1.9026502  )
        82           Cu  tau(  82) = (   0.2503732   0.2248242   1.9015096  )
        83           Cu  tau(  83) = (   0.4998202  -0.0005144   1.9024713  )
        84           Cu  tau(  84) = (   0.7495713   0.2246990   1.9014783  )
        85           Cu  tau(  85) = (   0.0000338   0.4467760   1.9043256  )
        86           Cu  tau(  86) = (   0.2493514   0.6728710   1.9029509  )
        87           Cu  tau(  87) = (   0.4998802   0.4455824   1.9021670  )
        88           Cu  tau(  88) = (   0.7505658   0.6721677   1.9028605  )
        89           Cu  tau(  89) = (   0.0006263   0.9184138   1.8867044  )
        90           Cu  tau(  90) = (   0.2497779   1.1671666   1.8871488  )
        91           Cu  tau(  91) = (   0.4991665   0.9167096   1.8870412  )
        92           Cu  tau(  92) = (   0.7501328   1.1676623   1.8863851  )
        93           Cu  tau(  93) = (   0.0000031   1.4129974   1.9041958  )
        94           Cu  tau(  94) = (   0.2501514   1.6381240   1.9026581  )
        95           Cu  tau(  95) = (   0.4998962   1.4122563   1.9006415  )
        96           Cu  tau(  96) = (   0.7497848   1.6384651   1.9031469  )
        97           Cu  tau(  97) = (  -0.0000327   1.8590214   1.9016926  )
        98           Cu  tau(  98) = (   0.2493588   2.0836751   1.9022804  )
        99           Cu  tau(  99) = (   0.4999181   1.8599112   1.9009201  )
       100           Cu  tau( 100) = (   0.7504827   2.0840516   1.9026399  )
       101           Cu  tau( 101) = (   0.2536675   1.3944837   2.1357621  )
       102           Cu  tau( 102) = (   0.7464037   1.3942318   2.1363374  )
       103           Cu  tau( 103) = (  -0.0004629   1.1583394   2.1209052  )
       104           Cu  tau( 104) = (   0.2505084   0.9288428   2.1206185  )
       105           Cu  tau( 105) = (   0.5002771   1.1562048   2.1193217  )
       106           Cu  tau( 106) = (   0.7495267   0.9280549   2.1199382  )
       107           Cu  tau( 107) = (  -0.0000193   0.6948418   2.1354509  )
       108           Cu  tau( 108) = (   0.4998810   0.6882222   2.1355829  )
       109           C   tau( 109) = (   0.0000991   0.0901428   2.4031502  )
       110           C   tau( 110) = (   0.0000930   0.2823830   2.4180114  )
       111           C   tau( 111) = (   0.1666773  -0.0064510   2.3996578  )
       112           C   tau( 112) = (   0.1668787   0.3782408   2.4277671  )
       113           C   tau( 113) = (   0.3333089   0.0900211   2.4026227  )
       114           C   tau( 114) = (   0.3334028   0.2822316   2.4161361  )
       115           C_h tau( 115) = (   0.5000830  -0.0063283   2.3982863  )
       116           C   tau( 116) = (   0.5000767   0.3780919   2.4227795  )
       117           C   tau( 117) = (   0.6669041   0.0900346   2.4025061  )
       118           C   tau( 118) = (   0.6667952   0.2822435   2.4160878  )
       119           C   tau( 119) = (   0.8334865  -0.0064471   2.3995724  )
       120           C   tau( 120) = (   0.8332736   0.3782539   2.4277003  )
       121           C   tau( 121) = (   0.0000735   0.6670179   2.4604097  )
       122           C   tau( 122) = (   0.0001050   0.8588633   2.4907114  )
       123           C   tau( 123) = (   0.1672571   0.5698504   2.4498428  )
       124           C   tau( 124) = (   0.1665971   0.9552497   2.4963875  )
       125           C   tau( 125) = (   0.3330385   0.6665151   2.4637668  )
       126           C   tau( 126) = (   0.3335343   0.8585536   2.4894103  )
       127           C   tau( 127) = (   0.5001160   0.5707969   2.4446470  )
       128           C   tau( 128) = (   0.5000868   0.9548012   2.4981070  )
       129           C   tau( 129) = (   0.6671111   0.6664905   2.4640110  )
       130           C   tau( 130) = (   0.6666802   0.8585370   2.4895177  )
       131           C   tau( 131) = (   0.8329626   0.5698624   2.4498385  )
       132           C   tau( 132) = (   0.8335464   0.9552517   2.4962856  )
       133           C   tau( 133) = (   0.0000911   1.2451825   2.4876213  )
       134           C   tau( 134) = (   0.0001131   1.4371710   2.4617966  )
       135           C   tau( 135) = (   0.1670675   1.1488169   2.4970265  )
       136           C   tau( 136) = (   0.1662741   1.5330753   2.4437487  )
       137           C   tau( 137) = (   0.3332653   1.2449196   2.4879988  )
       138           C   tau( 138) = (   0.3337767   1.4368407   2.4576005  )
       139           C   tau( 139) = (   0.5001230   1.1482862   2.4940804  )
       140           C   tau( 140) = (   0.5000809   1.5342903   2.4464359  )
       141           C   tau( 141) = (   0.6669118   1.2449151   2.4881715  )
       142           C   tau( 142) = (   0.6664409   1.4368275   2.4575860  )
       143           C   tau( 143) = (   0.8331701   1.1488111   2.4971678  )
       144           C   tau( 144) = (   0.8339073   1.5330595   2.4436703  )
       145           C   tau( 145) = (   0.0001003   1.8211673   2.4126494  )
       146           C   tau( 146) = (   0.0000762   2.0135533   2.4010454  )
       147           C   tau( 147) = (   0.1666886   1.7253778   2.4216854  )
       148           C   tau( 148) = (   0.1666494   2.1103073   2.3983956  )
       149           C   tau( 149) = (   0.3333114   1.8216121   2.4144844  )
       150           C   tau( 150) = (   0.3333631   2.0140026   2.4017749  )
       151           C   tau( 151) = (   0.5000809   1.7256607   2.4249251  )
       152           C   tau( 152) = (   0.5001229   2.1104737   2.3992384  )
       153           C   tau( 153) = (   0.6668851   1.8216063   2.4144419  )
       154           C   tau( 154) = (   0.6667882   2.0139890   2.4016302  )
       155           C   tau( 155) = (   0.8334653   1.7253669   2.4216510  )
       156           C   tau( 156) = (   0.8335837   2.1103089   2.3982893  )

     number of k points=     6  gaussian smearing, width (Ry)=  0.1000
                       cart. coord. in units 2pi/alat
        k(    1) = (   0.0000000   0.0000000   0.0000000), wk =   0.2500000
        k(    2) = (   0.0000000  -0.2165064   0.0000000), wk =   0.2500000
        k(    3) = (   0.2500000   0.0000000   0.0000000), wk =   0.5000000
        k(    4) = (   0.2500000  -0.2165064   0.0000000), wk =   0.5000000
        k(    5) = (  -0.5000000   0.0000000   0.0000000), wk =   0.2500000
        k(    6) = (  -0.5000000  -0.2165064   0.0000000), wk =   0.2500000

     Dense  grid:  2050409 G-vectors     FFT dimensions: (  80, 192, 270)

     Largest allocated arrays     est. size (Mb)     dimensions
        Kohn-Sham Wavefunctions        58.17 Mb     (    4604,  828)
        NL pseudopotentials           139.94 Mb     (    4604, 1992)
        Each V/rho on FFT grid          1.17 Mb     (   76800)
        Each G-vector array             0.28 Mb     (   36616)
        G-vector shells                 0.14 Mb     (   17932)
     Largest temporary arrays     est. size (Mb)     dimensions
        Auxiliary wavefunctions       232.67 Mb     (    4604, 3312)
        Each subspace H/S matrix        6.69 Mb     (     662,  662)
        Each <psi_i|beta_j> matrix     25.17 Mb     (    1992,  828)
        Arrays for rho mixing           9.38 Mb     (   76800,    8)

     Initial potential from superposition of free atoms
     Check: negative starting charge=   -0.001552

     starting charge 1354.72292, renormalised to 1380.00000

     negative rho (up, down):  1.581E-03 0.000E+00
     Starting wfc are 1356 randomized atomic wfcs

     total cpu time spent up to now is      118.9 secs

     Self-consistent Calculation

     iteration #  1     ecut=    80.00 Ry     beta=0.70
     Davidson diagonalization with overlap
     c_bands:  5 eigenvalues not converged
     c_bands:  3 eigenvalues not converged
     c_bands:  3 eigenvalues not converged
     c_bands:  3 eigenvalues not converged
     c_bands:  4 eigenvalues not converged
     ethr =  1.00E-04,  avg # of iterations = 41.7

     negative rho (up, down):  2.535E+01 0.000E+00

     total cpu time spent up to now is     2562.2 secs

     total energy              =  -10733.63980751 Ry
     Harris-Foulkes estimate   =  -19009.86717878 Ry
     estimated scf accuracy    <  214197.19559436 Ry

     iteration #  2     ecut=    80.00 Ry     beta=0.70
     Davidson diagonalization with overlap
     ethr =  1.00E-02,  avg # of iterations = 14.0

     negative rho (up, down):  3.101E+01 0.000E+00

     total cpu time spent up to now is     3704.0 secs

     total energy              =  -13082.14123940 Ry
     Harris-Foulkes estimate   =  -14667.44284170 Ry
     estimated scf accuracy    <   24692.18823873 Ry

     iteration #  3     ecut=    80.00 Ry     beta=0.70
     Davidson diagonalization with overlap
     ethr =  1.00E-02,  avg # of iterations =  6.2

     negative rho (up, down):  3.295E+01 0.000E+00

     total cpu time spent up to now is     4287.6 secs

     total energy              =  -13414.43389941 Ry
     Harris-Foulkes estimate   =  -14422.55299747 Ry
     estimated scf accuracy    <    8456.17333760 Ry

     iteration #  4     ecut=    80.00 Ry     beta=0.70
     Davidson diagonalization with overlap
     ethr =  1.00E-02,  avg # of iterations =  4.7

     negative rho (up, down):  2.607E+01 0.000E+00

     total cpu time spent up to now is     4835.1 secs

     total energy              =  -13704.01936622 Ry
     Harris-Foulkes estimate   =  -14104.96317790 Ry
     estimated scf accuracy    <    3078.18117186 Ry

     iteration #  5     ecut=    80.00 Ry     beta=0.70
     Davidson diagonalization with overlap
     ethr =  1.00E-02,  avg # of iterations =  4.2

     negative rho (up, down):  1.689E+01 0.000E+00

     total cpu time spent up to now is     5200.2 secs

     total energy              =  -13813.85672750 Ry
     Harris-Foulkes estimate   =  -13964.63645077 Ry
     estimated scf accuracy    <    1161.39871647 Ry

     iteration #  6     ecut=    80.00 Ry     beta=0.70
     Davidson diagonalization with overlap
     ethr =  1.00E-02,  avg # of iterations =  2.7

     negative rho (up, down):  1.058E+01 0.000E+00

     total cpu time spent up to now is     5435.0 secs

     total energy              =  -13791.95283592 Ry
     Harris-Foulkes estimate   =  -13852.58784973 Ry
     estimated scf accuracy    <     443.38750175 Ry

     iteration #  7     ecut=    80.00 Ry     beta=0.70
     Davidson diagonalization with overlap
     ethr =  1.00E-02,  avg # of iterations =  1.7

     negative rho (up, down):  7.730E+00 0.000E+00

     total cpu time spent up to now is     5629.6 secs

     total energy              =  -13775.16250556 Ry
     Harris-Foulkes estimate   =  -13801.55006997 Ry
     estimated scf accuracy    <     280.29770720 Ry

     iteration #  8     ecut=    80.00 Ry     beta=0.70
     Davidson diagonalization with overlap
     ethr =  1.00E-02,  avg # of iterations =  1.0

     negative rho (up, down):  6.202E+00 0.000E+00

     total cpu time spent up to now is     5815.7 secs

     total energy              =  -13762.74643893 Ry
     Harris-Foulkes estimate   =  -13779.93873783 Ry
     estimated scf accuracy    <     218.92885182 Ry

     iteration #  9     ecut=    80.00 Ry     beta=0.70
     Davidson diagonalization with overlap
     ethr =  1.00E-02,  avg # of iterations =  1.0

     negative rho (up, down):  3.355E+00 0.000E+00

     total cpu time spent up to now is     6001.0 secs

     total energy              =  -13739.65585699 Ry
     Harris-Foulkes estimate   =  -13765.40392511 Ry
     estimated scf accuracy    <     168.18168384 Ry

     iteration # 10     ecut=    80.00 Ry     beta=0.70
     Davidson diagonalization with overlap
     ethr =  1.00E-02,  avg # of iterations =  1.0

     negative rho (up, down):  3.252E+00 0.000E+00

     total cpu time spent up to now is     6187.2 secs

     total energy              =  -13697.74461376 Ry
     Harris-Foulkes estimate   =  -13741.20223417 Ry
     estimated scf accuracy    <     138.72640119 Ry

     iteration # 11     ecut=    80.00 Ry     beta=0.70
     Davidson diagonalization with overlap
     ethr =  1.00E-02,  avg # of iterations =  2.8

     negative rho (up, down):  3.231E+00 0.000E+00

     total cpu time spent up to now is     6398.1 secs

     total energy              =  -13690.58416666 Ry
     Harris-Foulkes estimate   =  -13702.95125231 Ry
     estimated scf accuracy    <      63.36313366 Ry

     iteration # 12     ecut=    80.00 Ry     beta=0.70
     Davidson diagonalization with overlap
     ethr =  4.59E-03,  avg # of iterations =  3.7

     negative rho (up, down):  6.013E+00 0.000E+00

     total cpu time spent up to now is     6621.5 secs

     total energy              =  -13687.70948933 Ry
     Harris-Foulkes estimate   =  -13697.32139154 Ry
     estimated scf accuracy    <      56.07941205 Ry

     iteration # 13     ecut=    80.00 Ry     beta=0.70
     Davidson diagonalization with overlap
     ethr =  4.06E-03,  avg # of iterations =  2.7

     negative rho (up, down):  7.031E+00 0.000E+00

     total cpu time spent up to now is     6829.4 secs

     total energy              =  -13687.16634565 Ry
     Harris-Foulkes estimate   =  -13691.59407084 Ry
     estimated scf accuracy    <      26.04822583 Ry

     iteration # 14     ecut=    80.00 Ry     beta=0.70
     Davidson diagonalization with overlap
     ethr =  1.89E-03,  avg # of iterations =  4.2

     negative rho (up, down):  5.756E+00 0.000E+00

     total cpu time spent up to now is     7058.2 secs

     total energy              =  -13686.21501335 Ry
     Harris-Foulkes estimate   =  -13688.54249990 Ry
     estimated scf accuracy    <      16.09565940 Ry

     iteration # 15     ecut=    80.00 Ry     beta=0.70
     Davidson diagonalization with overlap
     ethr =  1.17E-03,  avg # of iterations =  4.0

     negative rho (up, down):  4.897E+00 0.000E+00

     total cpu time spent up to now is     7287.6 secs

     total energy              =  -13685.68415737 Ry
     Harris-Foulkes estimate   =  -13687.11355883 Ry
     estimated scf accuracy    <      14.18715053 Ry

     iteration # 16     ecut=    80.00 Ry     beta=0.70
     Davidson diagonalization with overlap
     ethr =  1.03E-03,  avg # of iterations =  7.8

     negative rho (up, down):  4.412E+00 0.000E+00

     total cpu time spent up to now is     7567.1 secs

     total energy              =  -13685.36175127 Ry
     Harris-Foulkes estimate   =  -13685.97641396 Ry
     estimated scf accuracy    <      13.29787161 Ry

     iteration # 17     ecut=    80.00 Ry     beta=0.70
     Davidson diagonalization with overlap
     ethr =  9.64E-04,  avg # of iterations =  1.3

     negative rho (up, down):  9.318E-01 0.000E+00

     total cpu time spent up to now is     7758.0 secs

     total energy              =  -13682.79972614 Ry
     Harris-Foulkes estimate   =  -13685.45806441 Ry
     estimated scf accuracy    <       9.69738634 Ry

     iteration # 18     ecut=    80.00 Ry     beta=0.70
     Davidson diagonalization with overlap
     ethr =  7.03E-04,  avg # of iterations =  6.5

     negative rho (up, down):  9.252E-01 0.000E+00

     total cpu time spent up to now is     8020.5 secs

     total energy              =  -13682.44834939 Ry
     Harris-Foulkes estimate   =  -13683.05458043 Ry
     estimated scf accuracy    <      15.63597662 Ry

     iteration # 19     ecut=    80.00 Ry     beta=0.70
     Davidson diagonalization with overlap
     ethr =  7.03E-04,  avg # of iterations =  1.0

     negative rho (up, down):  4.783E-01 0.000E+00

     total cpu time spent up to now is     8206.6 secs

     total energy              =  -13681.32400865 Ry
     Harris-Foulkes estimate   =  -13682.57427310 Ry
     estimated scf accuracy    <       8.50932851 Ry

     iteration # 20     ecut=    80.00 Ry     beta=0.70
     Davidson diagonalization with overlap
     ethr =  6.17E-04,  avg # of iterations =  1.0

     negative rho (up, down):  2.893E-01 0.000E+00

     total cpu time spent up to now is     8394.4 secs

     total energy              =  -13680.01691744 Ry
     Harris-Foulkes estimate   =  -13681.61081018 Ry
     estimated scf accuracy    <      19.44120143 Ry

     iteration # 21     ecut=    80.00 Ry     beta=0.70
     Davidson diagonalization with overlap
     ethr =  6.17E-04,  avg # of iterations =  2.2

     negative rho (up, down):  1.496E-01 0.000E+00

     total cpu time spent up to now is     8594.4 secs

     total energy              =  -13679.74563016 Ry
     Harris-Foulkes estimate   =  -13680.44015963 Ry
     estimated scf accuracy    <       6.90891376 Ry

     iteration # 22     ecut=    80.00 Ry     beta=0.70
     Davidson diagonalization with overlap
     ethr =  5.01E-04,  avg # of iterations =  4.0

     negative rho (up, down):  6.321E-01 0.000E+00

     total cpu time spent up to now is     8820.8 secs

     total energy              =  -13679.35524518 Ry
     Harris-Foulkes estimate   =  -13680.13841648 Ry
     estimated scf accuracy    <       3.13073722 Ry

     iteration # 23     ecut=    80.00 Ry     beta=0.70
     Davidson diagonalization with overlap
     ethr =  2.27E-04,  avg # of iterations =  9.2

     negative rho (up, down):  8.205E-01 0.000E+00

     total cpu time spent up to now is     9138.3 secs

     total energy              =  -13679.30011916 Ry
     Harris-Foulkes estimate   =  -13679.54735430 Ry
     estimated scf accuracy    <       1.93452996 Ry

     iteration # 24     ecut=    80.00 Ry     beta=0.70
     Davidson diagonalization with overlap
     ethr =  1.40E-04,  avg # of iterations =  7.2

     negative rho (up, down):  8.853E-01 0.000E+00

     total cpu time spent up to now is     9416.4 secs

     total energy              =  -13679.30105698 Ry
     Harris-Foulkes estimate   =  -13679.38602593 Ry
     estimated scf accuracy    <       0.40549226 Ry

     iteration # 25     ecut=    80.00 Ry     beta=0.70
     Davidson diagonalization with overlap
     ethr =  2.94E-05,  avg # of iterations =  7.2

     negative rho (up, down):  4.728E-01 0.000E+00

     total cpu time spent up to now is     9725.0 secs

     total energy              =  -13679.29263133 Ry
     Harris-Foulkes estimate   =  -13679.33148966 Ry
     estimated scf accuracy    <       0.19415116 Ry

     iteration # 26     ecut=    80.00 Ry     beta=0.70
     Davidson diagonalization with overlap
     c_bands:  1 eigenvalues not converged
     ethr =  1.41E-05,  avg # of iterations = 11.8

     negative rho (up, down):  3.474E-01 0.000E+00

     total cpu time spent up to now is    10082.6 secs

     total energy              =  -13679.29342086 Ry
     Harris-Foulkes estimate   =  -13679.30422433 Ry
     estimated scf accuracy    <       0.07577475 Ry

     iteration # 27     ecut=    80.00 Ry     beta=0.70
     Davidson diagonalization with overlap
     c_bands:  1 eigenvalues not converged
     c_bands:  2 eigenvalues not converged
     ethr =  5.49E-06,  avg # of iterations = 14.0

     negative rho (up, down):  2.428E-01 0.000E+00

     total cpu time spent up to now is    10462.9 secs

     total energy              =  -13679.29311018 Ry
     Harris-Foulkes estimate   =  -13679.29847300 Ry
     estimated scf accuracy    <       0.03292253 Ry

     iteration # 28     ecut=    80.00 Ry     beta=0.70
     Davidson diagonalization with overlap
     c_bands:  1 eigenvalues not converged
     c_bands:  1 eigenvalues not converged
     ethr =  2.39E-06,  avg # of iterations = 13.2

     negative rho (up, down):  7.901E-02 0.000E+00

     total cpu time spent up to now is    10852.1 secs

     total energy              =  -13679.28825230 Ry
     Harris-Foulkes estimate   =  -13679.29601811 Ry
     estimated scf accuracy    <       0.01503563 Ry

     iteration # 29     ecut=    80.00 Ry     beta=0.70
     Davidson diagonalization with overlap
     c_bands:  1 eigenvalues not converged
     c_bands:  1 eigenvalues not converged
     ethr =  1.09E-06,  avg # of iterations = 15.7

     negative rho (up, down):  4.134E-02 0.000E+00

     total cpu time spent up to now is    11308.0 secs

     total energy              =  -13679.28774030 Ry
     Harris-Foulkes estimate   =  -13679.28944698 Ry
     estimated scf accuracy    <       0.00392729 Ry

     iteration # 30     ecut=    80.00 Ry     beta=0.70
     Davidson diagonalization with overlap
     ethr =  2.85E-07,  avg # of iterations = 11.7

     negative rho (up, down):  4.268E-02 0.000E+00

     total cpu time spent up to now is    11681.1 secs

     total energy              =  -13679.28818433 Ry
     Harris-Foulkes estimate   =  -13679.28838686 Ry
     estimated scf accuracy    <       0.00264008 Ry

     iteration # 31     ecut=    80.00 Ry     beta=0.70
     Davidson diagonalization with overlap
     ethr =  1.91E-07,  avg # of iterations =  6.8

     negative rho (up, down):  1.383E-02 0.000E+00

     total cpu time spent up to now is    11953.9 secs

     total energy              =  -13679.28786910 Ry
     Harris-Foulkes estimate   =  -13679.28846137 Ry
     estimated scf accuracy    <       0.00075684 Ry

     iteration # 32     ecut=    80.00 Ry     beta=0.70
     Davidson diagonalization with overlap
     c_bands:  1 eigenvalues not converged
     c_bands:  1 eigenvalues not converged
     ethr =  5.48E-08,  avg # of iterations = 13.8

     negative rho (up, down):  3.614E-03 0.000E+00

     total cpu time spent up to now is    12348.2 secs

     total energy              =  -13679.28782632 Ry
     Harris-Foulkes estimate   =  -13679.28792723 Ry
     estimated scf accuracy    <       0.00022356 Ry

     iteration # 33     ecut=    80.00 Ry     beta=0.70
     Davidson diagonalization with overlap
     c_bands:  1 eigenvalues not converged
     ethr =  1.62E-08,  avg # of iterations = 11.2

     negative rho (up, down):  2.142E-03 0.000E+00

     total cpu time spent up to now is    12706.6 secs

     total energy              =  -13679.28782329 Ry
     Harris-Foulkes estimate   =  -13679.28784728 Ry
     estimated scf accuracy    <       0.00005978 Ry

     iteration # 34     ecut=    80.00 Ry     beta=0.70
     Davidson diagonalization with overlap
     ethr =  4.33E-09,  avg # of iterations =  5.8

     negative rho (up, down):  1.990E-03 0.000E+00

     total cpu time spent up to now is    12975.7 secs

     total energy              =  -13679.28784902 Ry
     Harris-Foulkes estimate   =  -13679.28783212 Ry
     estimated scf accuracy    <       0.00002870 Ry

     iteration # 35     ecut=    80.00 Ry     beta=0.70
     Davidson diagonalization with overlap
     ethr =  2.08E-09,  avg # of iterations =  4.0

     negative rho (up, down):  1.613E-03 0.000E+00

     total cpu time spent up to now is    13211.6 secs

     total energy              =  -13679.28785472 Ry
     Harris-Foulkes estimate   =  -13679.28785146 Ry
     estimated scf accuracy    <       0.00000539 Ry

     iteration # 36     ecut=    80.00 Ry     beta=0.70
     Davidson diagonalization with overlap
     c_bands:  1 eigenvalues not converged
     ethr =  3.90E-10,  avg # of iterations =  8.7

     negative rho (up, down):  1.728E-03 0.000E+00

     total cpu time spent up to now is    13532.2 secs

     total energy              =  -13679.28785530 Ry
     Harris-Foulkes estimate   =  -13679.28785545 Ry
     estimated scf accuracy    <       0.00000322 Ry

     iteration # 37     ecut=    80.00 Ry     beta=0.70
     Davidson diagonalization with overlap
     ethr =  2.34E-10,  avg # of iterations =  2.8

     negative rho (up, down):  1.647E-03 0.000E+00

     total cpu time spent up to now is    13748.3 secs

     total energy              =  -13679.28785547 Ry
     Harris-Foulkes estimate   =  -13679.28785554 Ry
     estimated scf accuracy    <       0.00000053 Ry

     iteration # 38     ecut=    80.00 Ry     beta=0.70
     Davidson diagonalization with overlap
     ethr =  3.87E-11,  avg # of iterations =  3.0

     negative rho (up, down):  1.690E-03 0.000E+00

     total cpu time spent up to now is    13984.3 secs

     total energy              =  -13679.28785554 Ry
     Harris-Foulkes estimate   =  -13679.28785555 Ry
     estimated scf accuracy    <       0.00000029 Ry

     iteration # 39     ecut=    80.00 Ry     beta=0.70
     Davidson diagonalization with overlap
     ethr =  2.11E-11,  avg # of iterations =  2.0

     negative rho (up, down):  1.687E-03 0.000E+00

     total cpu time spent up to now is    14189.2 secs

     total energy              =  -13679.28785561 Ry
     Harris-Foulkes estimate   =  -13679.28785558 Ry
     estimated scf accuracy    <       0.00000014 Ry

     iteration # 40     ecut=    80.00 Ry     beta=0.70
     Davidson diagonalization with overlap
     ethr =  9.93E-12,  avg # of iterations =  2.2

     negative rho (up, down):  1.702E-03 0.000E+00

     total cpu time spent up to now is    14395.8 secs

     total energy              =  -13679.28785562 Ry
     Harris-Foulkes estimate   =  -13679.28785562 Ry
     estimated scf accuracy    <       0.00000005 Ry

     iteration # 41     ecut=    80.00 Ry     beta=0.70
     Davidson diagonalization with overlap
     ethr =  3.44E-12,  avg # of iterations =  2.0

     negative rho (up, down):  1.715E-03 0.000E+00

     total cpu time spent up to now is    14607.3 secs

     total energy              =  -13679.28785562 Ry
     Harris-Foulkes estimate   =  -13679.28785562 Ry
     estimated scf accuracy    <       0.00000002 Ry

     iteration # 42     ecut=    80.00 Ry     beta=0.70
     Davidson diagonalization with overlap
     ethr =  1.26E-12,  avg # of iterations =  3.0

     negative rho (up, down):  1.710E-03 0.000E+00

     total cpu time spent up to now is    14824.6 secs

     End of self-consistent calculation

          k = 0.0000 0.0000 0.0000 (256287 PWs)   bands (ev):

   -16.5368 -15.7219 -15.4685 -14.7716 -14.4354 -14.1023 -13.9784 -13.7297
   -13.6584 -13.5122 -13.5010 -12.8621 -12.7304 -12.5430 -12.5198 -12.4842
   -12.4600 -11.0885 -10.9360 -10.8834 -10.8003 -10.6488  -9.7237  -9.1601
    -9.1316  -9.0174  -8.9258  -8.3717  -8.1998  -8.0629  -7.9788  -7.4290
    -7.3058  -7.1896  -7.0443  -6.9761  -6.9581  -6.9134  -6.9017  -5.7716
    -5.7550  -5.5380  -5.4247  -5.3953  -5.3599  -5.3083  -5.2749  -5.2606
    -4.8952  -4.8474  -4.6110  -4.2910  -4.2721  -4.2393  -4.2130  -4.0310
    -3.9934  -3.8807  -3.8117  -3.7002  -3.3671  -3.3524  -3.3501  -3.3059
    -3.0043  -2.9887  -2.9832  -2.9209  -2.8484  -2.8235  -2.8105  -2.7808
    -2.7797  -2.6529  -2.5572  -2.4923  -2.4254  -2.4135  -2.4125  -2.3725
    -2.3695  -2.3683  -2.3560  -2.3422  -2.3012  -2.2536  -2.2087  -2.1955
    -2.1571  -2.1386  -1.9648  -1.8820  -1.8568  -1.7683  -1.7532  -1.7401
    -1.7021  -1.6781  -1.6339  -1.5874  -1.5728  -1.5658  -1.5232  -1.5148
    -1.5142  -1.5044  -1.5036  -1.4739  -1.4339  -1.4141  -1.4127  -1.3952
    -1.3775  -1.3774  -1.3643  -1.2385  -1.2275  -1.2253  -1.1672  -1.1473
    -1.1451  -1.1423  -1.1253  -1.0979  -1.0977  -1.0751  -1.0252  -1.0245
    -1.0206  -1.0190  -0.9747  -0.9678  -0.9460  -0.9435  -0.9416  -0.9179
    -0.9173  -0.9021  -0.8950  -0.8872  -0.8777  -0.8662  -0.8495  -0.8324
    -0.7913  -0.7858  -0.7320  -0.7260  -0.7044  -0.6726  -0.6564  -0.6552
    -0.6307  -0.6247  -0.6150  -0.5948  -0.5860  -0.5839  -0.5669  -0.5604
    -0.5585  -0.5453  -0.5422  -0.5238  -0.5068  -0.4897  -0.4840  -0.4744
    -0.4448  -0.4445  -0.4369  -0.4331  -0.4329  -0.4215  -0.4206  -0.4192
    -0.4143  -0.4107  -0.3921  -0.3853  -0.3771  -0.3670  -0.3628  -0.3527
    -0.3392  -0.3368  -0.3239  -0.3190  -0.3145  -0.3140  -0.3117  -0.3052
    -0.3038  -0.2697  -0.2673  -0.2659  -0.2598  -0.2541  -0.2400  -0.2393
    -0.2312  -0.2218  -0.2175  -0.2152  -0.2143  -0.2098  -0.2077  -0.2060
    -0.1967  -0.1789  -0.1351  -0.1334  -0.1224  -0.1054  -0.0982  -0.0836
    -0.0709  -0.0554  -0.0509  -0.0494  -0.0413  -0.0397  -0.0344  -0.0225
    -0.0100  -0.0093   0.0064   0.0065   0.0079   0.0166   0.0253   0.0367
     0.0379   0.0398   0.0554   0.0555   0.0557   0.0933   0.0944   0.1003
     0.1248   0.1412   0.1508   0.1515   0.1555   0.1575   0.1784   0.1797
     0.1854   0.1900   0.2100   0.2103   0.2107   0.2209   0.2213   0.2233
     0.2237   0.2260   0.2297   0.2441   0.2543   0.2590   0.2645   0.2698
     0.2701   0.2748   0.2751   0.2929   0.2952   0.3063   0.3064   0.3138
     0.3299   0.3300   0.3415   0.3427   0.3430   0.3466   0.3482   0.3603
     0.3613   0.3697   0.3720   0.3786   0.3823   0.3829   0.3882   0.3884
     0.4004   0.4011   0.4230   0.4242   0.4275   0.4296   0.4327   0.4341
     0.4356   0.4360   0.4422   0.4425   0.4618   0.4714   0.4761   0.4774
     0.4801   0.5011   0.5014   0.5131   0.5236   0.5285   0.5286   0.5316
     0.5366   0.5525   0.5540   0.5585   0.5649   0.5655   0.5679   0.5689
     0.5734   0.5958   0.5975   0.6025   0.6044   0.6069   0.6128   0.6257
     0.6264   0.6266   0.6346   0.6348   0.6520   0.6553   0.6561   0.6605
     0.6617   0.6620   0.6634   0.6711   0.6837   0.6839   0.6884   0.6888
     0.6932   0.6938   0.6965   0.7068   0.7310   0.7337   0.7497   0.7656
     0.7661   0.7792   0.7832   0.7863   0.7898   0.7917   0.7921   0.7960
     0.8184   0.8392   0.8400   0.8437   0.8522   0.8545   0.8559   0.8620
     0.8670   0.8789   0.8854   0.9043   0.9104   0.9111   0.9129   0.9194
     0.9199   0.9384   0.9446   0.9464   0.9590   0.9596   0.9659   0.9662
     0.9746   0.9749   1.0055   1.0079   1.0129   1.0189   1.0236   1.0273
     1.0291   1.0329   1.0345   1.0487   1.0489   1.0513   1.0527   1.0597
     1.0669   1.0838   1.0847   1.0894   1.0898   1.1019   1.1063   1.1097
     1.1499   1.1554   1.1570   1.1600   1.1698   1.1720   1.1735   1.1763
     1.1785   1.1855   1.1861   1.1907   1.1931   1.1997   1.2026   1.2055
     1.2102   1.2149   1.2157   1.2171   1.2274   1.2342   1.2414   1.2423
     1.2472   1.2505   1.2574   1.2600   1.2610   1.2639   1.2733   1.2771
     1.2824   1.2878   1.2938   1.2976   1.2978   1.2985   1.3010   1.3024
     1.3038   1.3088   1.3300   1.3359   1.3393   1.3412   1.3419   1.3449
     1.3464   1.3480   1.3575   1.3604   1.3609   1.3698   1.3723   1.3729
     1.3735   1.3860   1.3905   1.3923   1.3935   1.3999   1.4052   1.4105
     1.4120   1.4149   1.4179   1.4396   1.4472   1.4508   1.4592   1.4642
     1.4673   1.4777   1.4790   1.4857   1.4893   1.4918   1.4965   1.4995
     1.5041   1.5047   1.5056   1.5200   1.5231   1.5244   1.5330   1.5448
     1.5460   1.5467   1.5507   1.5522   1.5613   1.5634   1.5657   1.5711
     1.5716   1.5812   1.5816   1.5831   1.5950   1.5987   1.5992   1.6095
     1.6112   1.6132   1.6228   1.6249   1.6292   1.6303   1.6351   1.6478
     1.6519   1.6520   1.6536   1.6659   1.6664   1.6735   1.6797   1.6828
     1.6890   1.6901   1.6952   1.6966   1.6997   1.7014   1.7019   1.7068
     1.7074   1.7189   1.7210   1.7239   1.7315   1.7344   1.7350   1.7374
     1.7376   1.7412   1.7459   1.7524   1.7575   1.7615   1.7617   1.7651
     1.7654   1.7729   1.7731   1.7907   1.7920   1.8019   1.8079   1.8120
     1.8121   1.8131   1.8227   1.8234   1.8358   1.8417   1.8480   1.8491
     1.8542   1.8563   1.8579   1.8616   1.8672   1.8730   1.8734   1.8848
     1.8889   1.8907   1.8915   1.8945   1.8977   1.8992   1.9033   1.9051
     1.9129   1.9175   1.9178   1.9242   1.9251   1.9302   1.9310   1.9381
     1.9403   1.9588   1.9594   1.9610   1.9629   1.9636   1.9654   1.9698
     1.9721   1.9727   1.9759   1.9880   1.9901   1.9963   2.0022   2.0036
     2.0053   2.0074   2.0090   2.0108   2.0110   2.0171   2.0199   2.0213
     2.0214   2.0221   2.0264   2.0285   2.0291   2.0405   2.0428   2.0443
     2.0461   2.0525   2.0529   2.0530   2.0558   2.0682   2.0687   2.0814
     2.0827   2.0834   2.0850   2.0868   2.0980   2.1004   2.1026   2.1182
     2.1268   2.1300   2.1503   2.1518   2.1530   2.1718   2.1723   2.1799
     2.1800   2.2051   2.2051   2.2061   2.2349   2.2378   2.2426   2.2451
     2.2481   2.2500   2.2564   2.2687   2.3192   2.4210   2.4954   2.5676
     2.5994   2.6595   2.6777   2.6779   2.7609   2.7623   2.7822   2.7885
     2.8181   2.8188   2.8308   2.8311   2.9005   2.9026   2.9357   2.9522
     2.9525   3.0038   3.0056   3.1630   3.1787   3.2359   3.2439   3.3232
     3.4272   3.5327   3.5532   3.5674   3.6164   3.8155   3.8187   3.9793
     4.0486   4.0489   4.0831   4.2180   4.2230   4.3020   4.3030   4.4730
     4.5029   4.5181   4.5191   4.5499   4.5543   4.5945   4.6173   4.6180
     4.6230   4.6234   4.9409   5.0203   5.0347   5.0439   5.0946   5.1775
     5.3187   5.4287   5.4455   5.4836   5.5477   5.5582   5.6657   5.6712
     5.7968   5.9167   6.1002   6.1216   6.3171   6.3693   6.3730   6.4844
     6.5233   6.7026   6.8070   6.8199   6.8555   6.9271   7.0291   7.0423
     7.0751   7.2011   7.2509   7.2601   7.2954   7.3589   7.3795   7.4165
     7.4183   7.4211   7.4242   7.4640   7.5454   7.7021   7.7079   7.7316
     7.8641   7.9544   7.9554   8.0034   8.0434   8.1204   8.1556   8.3032
     8.3048   8.3135   8.3154   8.5738   8.5818   8.5920   8.6731   8.6751
     8.6941   8.7204   8.7282   8.8041   8.8310   8.8503   8.8773   8.9184
     8.9346   8.9826   9.0718   9.1107   9.1516   9.1539   9.1618   9.2006
     9.2023   9.3015   9.3087   9.3150   9.3171   9.3526   9.3565   9.3649
     9.3849   9.5304   9.5752   9.7171   9.7194   9.7625   9.7907   9.8191
     9.8289   9.8314   9.9202  10.0314  10.0567  10.0967  10.1006  10.3881
    10.4318  10.4866  10.5258  10.5262  10.5444  10.5450  10.5872  10.5984
    10.6292  10.6347  10.6396  10.6710

          k = 0.0000-0.2165 0.0000 (256176 PWs)   bands (ev):

   -16.5359 -15.7669 -15.3199 -15.0114 -14.3697 -13.9415 -13.8040 -13.8022
   -13.6742 -13.6090 -13.2552 -13.1978 -13.0663 -13.0550 -11.9996 -11.8464
   -11.7983 -11.6927 -11.5380 -11.5227 -10.0633  -9.9493  -9.9041  -9.8330
    -8.8446  -8.7571  -8.6977  -8.4988  -8.3894  -8.3797  -7.8197  -7.6922
    -7.6023  -7.5169  -6.8233  -6.7430  -6.4486  -6.3775  -6.3048  -6.2974
    -6.2519  -6.2145  -5.6190  -5.5365  -5.2805  -5.2404  -4.9061  -4.7836
    -4.7111  -4.5919  -4.5876  -4.3588  -4.3219  -4.2163  -4.1890  -4.1603
    -4.1299  -4.1058  -4.0668  -4.0443  -3.6991  -3.3577  -3.2148  -3.1090
    -3.0773  -3.0520  -2.9048  -2.6966  -2.6953  -2.6603  -2.6593  -2.6475
    -2.6243  -2.6126  -2.4980  -2.4791  -2.4089  -2.4041  -2.3972  -2.3767
    -2.3350  -2.3022  -2.2616  -2.2525  -2.2258  -2.2252  -2.1771  -2.0878
    -1.9871  -1.9750  -1.9604  -1.9446  -1.9445  -1.9380  -1.9375  -1.8722
    -1.8555  -1.8380  -1.8367  -1.7470  -1.7252  -1.6468  -1.6027  -1.5682
    -1.5528  -1.5504  -1.5363  -1.5190  -1.4984  -1.3787  -1.3493  -1.3490
    -1.3329  -1.3286  -1.3286  -1.2891  -1.2170  -1.2093  -1.1619  -1.1572
    -1.1474  -1.1405  -1.1217  -1.1188  -1.0969  -1.0941  -1.0857  -1.0828
    -1.0448  -1.0351  -1.0163  -1.0162  -1.0110  -0.9531  -0.9525  -0.9383
    -0.9171  -0.9131  -0.8954  -0.8611  -0.8601  -0.7977  -0.7793  -0.7496
    -0.7479  -0.7393  -0.6965  -0.6940  -0.6886  -0.6855  -0.6844  -0.6782
    -0.6618  -0.6541  -0.6413  -0.6397  -0.6373  -0.6355  -0.6271  -0.6206
    -0.6100  -0.5977  -0.5957  -0.5718  -0.5216  -0.5213  -0.5027  -0.5023
    -0.4763  -0.4598  -0.4566  -0.4380  -0.4356  -0.4210  -0.4206  -0.4190
    -0.4145  -0.4002  -0.3920  -0.3719  -0.3592  -0.3581  -0.3521  -0.3422
    -0.3403  -0.3358  -0.3309  -0.3092  -0.3053  -0.3031  -0.2995  -0.2879
    -0.2839  -0.2502  -0.2494  -0.2491  -0.2365  -0.2284  -0.2224  -0.2206
    -0.2120  -0.1981  -0.1912  -0.1781  -0.1599  -0.1578  -0.1576  -0.1212
    -0.0986  -0.0771  -0.0734  -0.0694  -0.0451  -0.0425  -0.0387  -0.0381
    -0.0212  -0.0161  -0.0115  -0.0100  -0.0099  -0.0014   0.0000   0.0099
     0.0186   0.0211   0.0281   0.0297   0.0337   0.0387   0.0391   0.0509
     0.0576   0.0639   0.0641   0.0767   0.0837   0.0928   0.0952   0.1117
     0.1176   0.1347   0.1362   0.1376   0.1392   0.1407   0.1525   0.1551
     0.1626   0.1661   0.1741   0.2058   0.2127   0.2197   0.2205   0.2364
     0.2388   0.2469   0.2479   0.2614   0.2619   0.2710   0.2750   0.2795
     0.2822   0.2890   0.2972   0.3066   0.3076   0.3101   0.3232   0.3287
     0.3309   0.3322   0.3325   0.3363   0.3386   0.3408   0.3448   0.3595
     0.3644   0.3657   0.3689   0.3745   0.3796   0.3825   0.3828   0.3879
     0.3979   0.4004   0.4086   0.4160   0.4182   0.4217   0.4241   0.4280
     0.4321   0.4355   0.4427   0.4434   0.4518   0.4628   0.4632   0.4856
     0.4888   0.4924   0.4996   0.5034   0.5086   0.5159   0.5189   0.5304
     0.5325   0.5359   0.5400   0.5408   0.5423   0.5478   0.5514   0.5662
     0.5741   0.5849   0.5870   0.5946   0.5954   0.6021   0.6035   0.6091
     0.6119   0.6172   0.6280   0.6313   0.6471   0.6504   0.6510   0.6530
     0.6662   0.6694   0.6709   0.6823   0.6868   0.6952   0.6955   0.7056
     0.7058   0.7102   0.7104   0.7231   0.7235   0.7244   0.7309   0.7363
     0.7370   0.7450   0.7487   0.7534   0.7622   0.7624   0.7681   0.7687
     0.7860   0.7881   0.7965   0.8153   0.8247   0.8314   0.8441   0.8612
     0.8615   0.8666   0.8667   0.8792   0.8959   0.9021   0.9042   0.9052
     0.9133   0.9223   0.9290   0.9353   0.9411   0.9462   0.9654   0.9655
     0.9666   0.9831   0.9889   1.0024   1.0047   1.0052   1.0232   1.0343
     1.0372   1.0373   1.0500   1.0502   1.0594   1.0674   1.0678   1.0820
     1.0832   1.1005   1.1018   1.1053   1.1088   1.1169   1.1177   1.1333
     1.1415   1.1428   1.1469   1.1478   1.1497   1.1523   1.1618   1.1624
     1.1667   1.1716   1.1742   1.1820   1.1835   1.1850   1.1892   1.1925
     1.1932   1.2037   1.2056   1.2233   1.2246   1.2302   1.2310   1.2324
     1.2349   1.2422   1.2471   1.2472   1.2513   1.2580   1.2587   1.2688
     1.2722   1.2831   1.2834   1.2841   1.2871   1.2917   1.3036   1.3043
     1.3062   1.3069   1.3080   1.3095   1.3163   1.3199   1.3294   1.3308
     1.3373   1.3390   1.3414   1.3422   1.3431   1.3514   1.3544   1.3689
     1.3695   1.3701   1.3757   1.3875   1.4019   1.4145   1.4155   1.4207
     1.4223   1.4241   1.4314   1.4316   1.4470   1.4727   1.4739   1.4943
     1.4982   1.5036   1.5078   1.5092   1.5099   1.5105   1.5203   1.5218
     1.5234   1.5262   1.5277   1.5312   1.5399   1.5407   1.5413   1.5450
     1.5485   1.5513   1.5596   1.5757   1.5767   1.5775   1.5790   1.5879
     1.5881   1.5911   1.5914   1.5953   1.5997   1.6002   1.6005   1.6015
     1.6022   1.6073   1.6174   1.6190   1.6195   1.6221   1.6225   1.6282
     1.6300   1.6323   1.6336   1.6347   1.6445   1.6565   1.6568   1.6586
     1.6656   1.6713   1.6828   1.6854   1.6881   1.6935   1.6938   1.6974
     1.7058   1.7095   1.7109   1.7222   1.7232   1.7337   1.7426   1.7433
     1.7438   1.7454   1.7542   1.7680   1.7759   1.7786   1.7882   1.7885
     1.7916   1.7944   1.7958   1.8045   1.8053   1.8058   1.8114   1.8141
     1.8163   1.8195   1.8221   1.8224   1.8255   1.8348   1.8364   1.8386
     1.8395   1.8448   1.8463   1.8613   1.8624   1.8676   1.8733   1.8766
     1.8806   1.8821   1.8896   1.8907   1.8918   1.8920   1.8982   1.8995
     1.9020   1.9132   1.9147   1.9210   1.9222   1.9313   1.9319   1.9339
     1.9346   1.9388   1.9426   1.9433   1.9504   1.9507   1.9589   1.9625
     1.9703   1.9706   1.9795   1.9823   1.9887   1.9897   1.9962   2.0030
     2.0075   2.0087   2.0104   2.0127   2.0136   2.0156   2.0206   2.0237
     2.0363   2.0364   2.0434   2.0448   2.0520   2.0537   2.0599   2.0600
     2.0645   2.0663   2.0671   2.0673   2.0858   2.0878   2.0910   2.0911
     2.0964   2.1066   2.1117   2.1202   2.1279   2.1339   2.1374   2.1374
     2.1391   2.1402   2.1409   2.1494   2.1522   2.1575   2.1582   2.1650
     2.1888   2.2177   2.2437   2.2556   2.2612   2.3310   2.3573   2.3584
     2.3592   2.3827   2.3844   2.4029   2.4045   2.4080   2.4322   2.4345
     2.4498   2.4684   2.4688   2.6022   2.6189   2.6425   2.7017   2.7146
     2.7590   2.8307   2.8925   2.8937   2.9966   2.9984   3.0219   3.0470
     3.0479   3.1006   3.1777   3.1893   3.1897   3.2772   3.2805   3.2811
     3.3209   3.5256   3.5258   3.5611   3.5925   3.5964   3.7825   3.7826
     3.8102   3.8164   4.0769   4.0924   4.1498   4.1754   4.2195   4.2848
     4.3296   4.4900   4.4947   4.5445   4.5549   4.5882   4.5985   4.6694
     4.6708   4.8045   4.9902   5.0259   5.1722   5.1759   5.4167   5.4887
     5.6220   5.6240   5.6675   5.7024   5.7283   5.8170   5.8836   5.8860
     5.9383   5.9913   5.9925   6.0229   6.1245   6.1691   6.2814   6.3092
     6.3447   6.3660   6.5164   6.5535   6.6110   6.7055   6.8361   6.9753
     7.0310   7.0541   7.2100   7.2107   7.2225   7.3276   7.5245   7.5339
     7.5450   7.5617   7.6295   7.6311   7.6785   7.7398   7.7444   7.7651
     7.7660   7.7852   7.8738   8.0274   8.0280   8.1166   8.1407   8.1748
     8.2003   8.2356   8.2899   8.2946   8.4975   8.5650   8.5948   8.5991
     8.7788   8.7827   8.8767   8.8798   8.9192   8.9270   8.9357   9.0030
     9.0040   9.0509   9.0537   9.0541   9.0769   9.1336   9.1338   9.2418
     9.3097   9.3142   9.3208   9.4487   9.5021   9.5326   9.5443   9.5878
     9.6541   9.7169   9.7220   9.7317   9.7475   9.7513   9.8921   9.8999
     9.9364   9.9387   9.9422   9.9443   9.9486  10.0564  10.1195  10.1198
    10.2970  10.3053  10.3311  10.4079  10.4743  10.4791  10.4825  10.4976
    10.5507  10.5776  10.6505  10.7014

          k = 0.2500 0.0000 0.0000 (256240 PWs)   bands (ev):

   -16.4864 -15.6071 -15.3453 -14.9474 -14.6086 -14.3852 -14.3343 -14.2816
   -13.4873 -13.3446 -13.0707 -12.6917 -12.5730 -12.5068 -12.4274 -11.7474
   -11.6352 -11.5482 -11.4604 -10.6640 -10.4707 -10.1978 -10.1185  -9.8028
    -9.5940  -9.3518  -9.2611  -8.8736  -8.6551  -8.5596  -8.1427  -7.3980
    -7.2037  -7.1284  -6.9704  -6.9428  -6.8455  -6.4696  -6.3255  -5.7328
    -5.6596  -5.4473  -5.3706  -5.3055  -5.2149  -4.8764  -4.7213  -4.7085
    -4.6742  -4.4484  -4.2992  -4.1624  -4.0556  -4.0102  -3.9446  -3.9064
    -3.8534  -3.8400  -3.7684  -3.6710  -3.5560  -3.5347  -3.4104  -3.3626
    -3.3385  -3.2069  -3.2048  -3.2029  -3.1835  -3.0587  -3.0117  -2.9794
    -2.9178  -2.9068  -2.8814  -2.8662  -2.8282  -2.7798  -2.6736  -2.6480
    -2.5560  -2.5236  -2.4376  -2.4159  -2.3132  -2.2835  -2.2203  -2.1878
    -2.1612  -2.1594  -2.0337  -1.8862  -1.8178  -1.7788  -1.7482  -1.7420
    -1.6857  -1.5751  -1.5641  -1.5212  -1.4880  -1.4843  -1.4751  -1.4540
    -1.4528  -1.4358  -1.3910  -1.3784  -1.3153  -1.3091  -1.2357  -1.2236
    -1.2038  -1.1757  -1.1649  -1.1627  -1.1580  -1.1569  -1.1442  -1.1422
    -1.1407  -1.0893  -1.0667  -1.0379  -1.0344  -1.0315  -0.9876  -0.9576
    -0.9563  -0.9524  -0.9356  -0.9254  -0.9216  -0.9022  -0.8980  -0.8915
    -0.8830  -0.8715  -0.8695  -0.8301  -0.8256  -0.8106  -0.7573  -0.7470
    -0.7188  -0.7021  -0.6861  -0.6722  -0.6610  -0.6419  -0.6278  -0.6200
    -0.6160  -0.6117  -0.6061  -0.5991  -0.5876  -0.5789  -0.5677  -0.5604
    -0.5575  -0.5511  -0.5356  -0.5344  -0.5152  -0.5117  -0.5105  -0.5012
    -0.4965  -0.4920  -0.4868  -0.4741  -0.4695  -0.4620  -0.4477  -0.4407
    -0.4355  -0.4224  -0.4144  -0.4096  -0.4050  -0.3997  -0.3994  -0.3948
    -0.3933  -0.3844  -0.3804  -0.3691  -0.3634  -0.3596  -0.3590  -0.3546
    -0.3534  -0.3461  -0.3418  -0.3360  -0.3246  -0.3141  -0.2809  -0.2731
    -0.2680  -0.2613  -0.2564  -0.2406  -0.2340  -0.2159  -0.1828  -0.1815
    -0.1719  -0.1651  -0.1604  -0.1535  -0.1526  -0.1372  -0.1224  -0.1149
    -0.1138  -0.1053  -0.0995  -0.0842  -0.0589  -0.0119  -0.0046  -0.0008
     0.0069   0.0269   0.0308   0.0329   0.0360   0.0402   0.0575   0.0647
     0.0710   0.0771   0.0775   0.0864   0.0902   0.1049   0.1100   0.1105
     0.1203   0.1236   0.1269   0.1314   0.1419   0.1531   0.1551   0.1562
     0.1713   0.1739   0.1915   0.1963   0.2118   0.2203   0.2237   0.2262
     0.2283   0.2330   0.2349   0.2367   0.2464   0.2517   0.2540   0.2561
     0.2657   0.2780   0.2830   0.2944   0.2983   0.3039   0.3075   0.3119
     0.3183   0.3220   0.3314   0.3362   0.3384   0.3405   0.3441   0.3507
     0.3568   0.3691   0.3754   0.3885   0.3906   0.3918   0.4016   0.4148
     0.4164   0.4267   0.4285   0.4309   0.4370   0.4435   0.4460   0.4525
     0.4574   0.4632   0.4714   0.4857   0.4918   0.4933   0.5002   0.5074
     0.5096   0.5117   0.5188   0.5260   0.5274   0.5351   0.5396   0.5525
     0.5577   0.5638   0.5670   0.5724   0.5759   0.5844   0.5994   0.6025
     0.6046   0.6122   0.6131   0.6155   0.6175   0.6215   0.6239   0.6297
     0.6357   0.6411   0.6427   0.6443   0.6623   0.6634   0.6680   0.6729
     0.6779   0.6794   0.6865   0.6904   0.6927   0.6952   0.6966   0.7038
     0.7117   0.7230   0.7302   0.7372   0.7490   0.7569   0.7598   0.7665
     0.7675   0.7722   0.7764   0.7932   0.8037   0.8087   0.8099   0.8178
     0.8313   0.8366   0.8464   0.8586   0.8717   0.8763   0.8795   0.8825
     0.8864   0.8914   0.8971   0.9078   0.9104   0.9159   0.9186   0.9251
     0.9285   0.9338   0.9357   0.9383   0.9408   0.9418   0.9482   0.9527
     0.9559   0.9648   0.9689   0.9697   0.9732   0.9744   0.9802   0.9833
     0.9903   1.0045   1.0117   1.0220   1.0236   1.0322   1.0503   1.0520
     1.0588   1.0622   1.0670   1.0700   1.0739   1.0747   1.0791   1.0834
     1.0918   1.1013   1.1104   1.1163   1.1172   1.1255   1.1318   1.1339
     1.1377   1.1448   1.1463   1.1571   1.1614   1.1715   1.1727   1.1783
     1.1824   1.1858   1.1974   1.1985   1.2011   1.2096   1.2121   1.2158
     1.2168   1.2280   1.2306   1.2312   1.2388   1.2403   1.2452   1.2536
     1.2559   1.2585   1.2634   1.2695   1.2719   1.2733   1.2810   1.2815
     1.2967   1.2972   1.2991   1.3045   1.3064   1.3241   1.3257   1.3309
     1.3375   1.3453   1.3550   1.3562   1.3576   1.3698   1.3716   1.3789
     1.3795   1.3898   1.3935   1.3962   1.4005   1.4034   1.4159   1.4170
     1.4221   1.4285   1.4298   1.4350   1.4463   1.4511   1.4645   1.4660
     1.4669   1.4671   1.4741   1.4766   1.4783   1.4879   1.4957   1.4988
     1.5001   1.5017   1.5072   1.5148   1.5192   1.5204   1.5265   1.5323
     1.5342   1.5382   1.5400   1.5457   1.5599   1.5644   1.5685   1.5752
     1.5871   1.5890   1.5919   1.5964   1.6036   1.6043   1.6063   1.6142
     1.6207   1.6216   1.6247   1.6295   1.6328   1.6378   1.6419   1.6437
     1.6442   1.6516   1.6567   1.6574   1.6608   1.6615   1.6631   1.6680
     1.6727   1.6765   1.6777   1.6799   1.6802   1.6836   1.6886   1.6956
     1.7025   1.7057   1.7081   1.7135   1.7176   1.7204   1.7222   1.7268
     1.7336   1.7363   1.7388   1.7419   1.7466   1.7550   1.7616   1.7658
     1.7701   1.7743   1.7822   1.7853   1.7923   1.8007   1.8041   1.8079
     1.8093   1.8121   1.8153   1.8232   1.8294   1.8325   1.8342   1.8360
     1.8388   1.8463   1.8538   1.8618   1.8639   1.8695   1.8724   1.8746
     1.8780   1.8840   1.8848   1.8869   1.8885   1.8927   1.8940   1.8955
     1.9047   1.9069   1.9113   1.9139   1.9158   1.9177   1.9253   1.9281
     1.9293   1.9326   1.9348   1.9415   1.9443   1.9528   1.9670   1.9768
     1.9772   1.9821   1.9837   1.9860   1.9873   1.9896   1.9933   1.9970
     2.0004   2.0045   2.0065   2.0123   2.0161   2.0245   2.0263   2.0265
     2.0295   2.0314   2.0382   2.0402   2.0426   2.0437   2.0461   2.0506
     2.0543   2.0587   2.0604   2.0661   2.0678   2.0695   2.0742   2.0774
     2.0826   2.0853   2.0868   2.0874   2.0941   2.0963   2.1056   2.1087
     2.1117   2.1178   2.1201   2.1225   2.1382   2.1420   2.1434   2.1445
     2.1622   2.1757   2.1804   2.1865   2.2008   2.2127   2.2193   2.2274
     2.2339   2.2471   2.2537   2.3376   2.3437   2.3560   2.3886   2.3977
     2.4142   2.4474   2.4576   2.4725   2.5303   2.5889   2.6127   2.6407
     2.6434   2.6901   2.7172   2.9958   3.0579   3.0759   3.0882   3.1231
     3.2017   3.3517   3.4992   3.5271   3.5860   3.5870   3.6290   3.7155
     3.7489   3.7825   3.8297   3.8343   3.8641   4.0131   4.0819   4.0830
     4.1746   4.2210   4.2480   4.2514   4.2731   4.2882   4.2921   4.2965
     4.3085   4.4017   4.5894   4.7522   4.7874   4.8176   4.8782   4.8963
     4.9276   4.9778   5.0945   5.1346   5.1788   5.1990   5.2217   5.3797
     5.4094   5.5411   5.5997   5.6677   5.6823   5.7294   5.7465   5.7727
     5.8150   5.8744   5.9545   5.9781   5.9966   6.1112   6.1857   6.1932
     6.2426   6.3474   6.4501   6.5340   6.5393   6.5642   6.5750   6.6005
     6.8221   6.8876   6.9529   7.0658   7.1590   7.1966   7.2522   7.2962
     7.3395   7.3458   7.3668   7.4050   7.4184   7.4611   7.4892   7.5261
     7.5373   7.5555   7.6394   7.6603   7.7739   7.8734   7.9122   7.9209
     8.0617   8.1027   8.1394   8.1884   8.2497   8.3345   8.3945   8.4077
     8.4715   8.4788   8.5305   8.6094   8.6336   8.6550   8.7451   8.7583
     8.8492   8.9722   8.9869   8.9936   9.0361   9.0500   9.1169   9.1517
     9.2499   9.3326   9.3794   9.4016   9.4322   9.4510   9.4726   9.4819
     9.5413   9.5471   9.5794   9.6219   9.6554   9.7509   9.7769   9.7843
     9.8515   9.8772   9.9532   9.9733   9.9785  10.0495  10.0764  10.0857
    10.1872  10.2561  10.2755  10.3177  10.3384  10.3744  10.3900  10.4224
    10.5270  10.5591  10.5704  10.6565

          k = 0.2500-0.2165 0.0000 (256316 PWs)   bands (ev):

   -16.4858 -15.6429 -15.2496 -14.8925 -14.7807 -14.6494 -14.1438 -13.9167
   -13.6408 -13.5152 -13.0033 -12.7198 -12.6539 -12.5512 -12.1929 -12.0152
   -11.5466 -11.4769 -10.8832 -10.8270 -10.6621 -10.5701 -10.2868 -10.0722
    -9.2586  -9.1117  -8.7966  -8.7775  -8.5742  -8.4620  -8.0560  -8.0341
    -7.8706  -7.8295  -6.6215  -6.4008  -6.2379  -6.0769  -6.0081  -5.8999
    -5.8838  -5.7490  -5.5072  -5.4776  -5.1019  -5.0621  -4.8061  -4.6596
    -4.4930  -4.4491  -4.3502  -4.2368  -4.0584  -4.0285  -3.9740  -3.9576
    -3.9196  -3.8368  -3.7408  -3.7030  -3.6311  -3.5842  -3.5760  -3.4848
    -3.2131  -3.1996  -3.1674  -3.1222  -3.0879  -3.0513  -2.9421  -2.8766
    -2.8488  -2.8259  -2.8008  -2.7637  -2.7598  -2.7321  -2.6834  -2.5932
    -2.4820  -2.4775  -2.4484  -2.4067  -2.3346  -2.2752  -2.2736  -2.1713
    -2.1263  -2.0920  -2.0793  -1.9069  -1.8865  -1.8701  -1.7518  -1.6988
    -1.6840  -1.6788  -1.5796  -1.5447  -1.5335  -1.5268  -1.5175  -1.5113
    -1.4722  -1.4354  -1.4044  -1.3920  -1.3900  -1.3343  -1.3135  -1.3026
    -1.2594  -1.2296  -1.1739  -1.1727  -1.1687  -1.1291  -1.1193  -1.0825
    -1.0762  -1.0712  -1.0681  -1.0644  -1.0638  -1.0504  -1.0481  -1.0415
    -0.9801  -0.9754  -0.9452  -0.9443  -0.9405  -0.9277  -0.8835  -0.8723
    -0.8504  -0.8286  -0.8230  -0.7734  -0.7564  -0.7441  -0.7342  -0.7119
    -0.7019  -0.6941  -0.6863  -0.6568  -0.6554  -0.6539  -0.6346  -0.6309
    -0.6195  -0.6141  -0.6067  -0.6042  -0.5985  -0.5861  -0.5790  -0.5750
    -0.5744  -0.5694  -0.5658  -0.5579  -0.5326  -0.5210  -0.4968  -0.4909
    -0.4896  -0.4879  -0.4854  -0.4780  -0.4512  -0.4434  -0.4417  -0.4343
    -0.4280  -0.4259  -0.4197  -0.4157  -0.4111  -0.4053  -0.3964  -0.3845
    -0.3834  -0.3649  -0.3615  -0.3514  -0.3479  -0.3467  -0.3444  -0.3414
    -0.3345  -0.3291  -0.3004  -0.2981  -0.2850  -0.2814  -0.2724  -0.2605
    -0.2463  -0.2423  -0.2360  -0.2280  -0.2198  -0.2087  -0.1995  -0.1853
    -0.1733  -0.1612  -0.1556  -0.1468  -0.1419  -0.1186  -0.1163  -0.1092
    -0.0919  -0.0815  -0.0675  -0.0658  -0.0518  -0.0512  -0.0387  -0.0266
     0.0073   0.0106   0.0194   0.0285   0.0378   0.0475   0.0484   0.0489
     0.0540   0.0601   0.0629   0.0654   0.0736   0.0788   0.0892   0.0937
     0.1093   0.1225   0.1234   0.1296   0.1439   0.1471   0.1592   0.1661
     0.1703   0.1708   0.1720   0.1818   0.1964   0.1989   0.2081   0.2186
     0.2235   0.2293   0.2367   0.2414   0.2429   0.2467   0.2578   0.2608
     0.2625   0.2650   0.2735   0.2738   0.2756   0.2877   0.2915   0.2950
     0.3011   0.3104   0.3176   0.3355   0.3413   0.3442   0.3474   0.3633
     0.3669   0.3720   0.3834   0.3839   0.3893   0.3993   0.4013   0.4085
     0.4100   0.4162   0.4313   0.4336   0.4399   0.4463   0.4547   0.4663
     0.4690   0.4854   0.4879   0.5028   0.5048   0.5060   0.5092   0.5102
     0.5203   0.5240   0.5248   0.5395   0.5440   0.5466   0.5519   0.5565
     0.5601   0.5612   0.5677   0.5718   0.5742   0.5809   0.5935   0.5952
     0.5975   0.6044   0.6083   0.6128   0.6140   0.6198   0.6231   0.6417
     0.6433   0.6487   0.6515   0.6531   0.6538   0.6643   0.6729   0.6761
     0.6899   0.7029   0.7044   0.7056   0.7095   0.7116   0.7143   0.7185
     0.7301   0.7376   0.7476   0.7523   0.7600   0.7612   0.7683   0.7741
     0.7761   0.7797   0.7811   0.7899   0.7963   0.7991   0.8025   0.8051
     0.8105   0.8181   0.8196   0.8235   0.8315   0.8391   0.8449   0.8640
     0.8730   0.8802   0.8889   0.8977   0.9015   0.9096   0.9129   0.9219
     0.9231   0.9311   0.9355   0.9375   0.9410   0.9419   0.9445   0.9556
     0.9603   0.9683   0.9710   0.9736   0.9749   0.9782   0.9960   1.0013
     1.0028   1.0065   1.0107   1.0176   1.0233   1.0251   1.0372   1.0436
     1.0482   1.0494   1.0541   1.0575   1.0648   1.0703   1.0929   1.1013
     1.1120   1.1167   1.1193   1.1239   1.1266   1.1280   1.1293   1.1363
     1.1425   1.1524   1.1571   1.1673   1.1707   1.1757   1.1941   1.1977
     1.1990   1.2013   1.2093   1.2130   1.2135   1.2167   1.2185   1.2220
     1.2287   1.2350   1.2376   1.2436   1.2524   1.2546   1.2599   1.2635
     1.2745   1.2752   1.2769   1.2835   1.2846   1.2950   1.2961   1.3023
     1.3046   1.3102   1.3141   1.3152   1.3200   1.3223   1.3236   1.3307
     1.3349   1.3432   1.3543   1.3561   1.3573   1.3608   1.3610   1.3637
     1.3651   1.3721   1.3757   1.3786   1.3807   1.3926   1.3939   1.4077
     1.4090   1.4123   1.4210   1.4265   1.4377   1.4422   1.4431   1.4474
     1.4571   1.4594   1.4602   1.4673   1.4683   1.4688   1.4814   1.4892
     1.4914   1.4969   1.5023   1.5024   1.5037   1.5045   1.5074   1.5166
     1.5297   1.5321   1.5344   1.5405   1.5424   1.5435   1.5509   1.5562
     1.5655   1.5750   1.5782   1.5797   1.5864   1.5881   1.5899   1.6026
     1.6037   1.6059   1.6086   1.6186   1.6224   1.6380   1.6417   1.6493
     1.6541   1.6583   1.6688   1.6723   1.6786   1.6820   1.6847   1.6919
     1.6979   1.6997   1.7041   1.7055   1.7085   1.7108   1.7118   1.7154
     1.7170   1.7197   1.7210   1.7272   1.7337   1.7369   1.7384   1.7422
     1.7477   1.7630   1.7646   1.7687   1.7750   1.7769   1.7799   1.7819
     1.7830   1.7850   1.7869   1.7885   1.7923   1.7949   1.7955   1.7995
     1.8024   1.8117   1.8145   1.8168   1.8197   1.8208   1.8235   1.8267
     1.8286   1.8380   1.8391   1.8509   1.8554   1.8579   1.8618   1.8678
     1.8715   1.8737   1.8759   1.8808   1.8816   1.8866   1.8970   1.8988
     1.9056   1.9103   1.9146   1.9229   1.9232   1.9257   1.9296   1.9353
     1.9419   1.9432   1.9475   1.9502   1.9566   1.9625   1.9652   1.9696
     1.9710   1.9761   1.9787   1.9812   1.9841   1.9851   1.9899   1.9930
     1.9950   1.9980   1.9991   2.0104   2.0124   2.0141   2.0169   2.0269
     2.0280   2.0365   2.0368   2.0380   2.0394   2.0446   2.0452   2.0480
     2.0559   2.0582   2.0605   2.0639   2.0641   2.0666   2.0757   2.0809
     2.0826   2.0866   2.0885   2.0891   2.0929   2.0973   2.0987   2.1004
     2.1106   2.1122   2.1166   2.1209   2.1264   2.1317   2.1404   2.1479
     2.1544   2.1548   2.1602   2.1641   2.1692   2.1888   2.1997   2.2138
     2.2461   2.2721   2.2983   2.3083   2.3225   2.3357   2.3401   2.3435
     2.3624   2.3661   2.3706   2.4271   2.7142   2.7210   2.7410   2.7505
     2.7830   2.8401   2.8588   2.8708   2.9757   3.0915   3.1697   3.1764
     3.1872   3.2333   3.2943   3.3842   3.3943   3.4368   3.4735   3.5056
     3.5334   3.6888   3.7771   3.7776   3.7898   3.9924   4.2056   4.2274
     4.2572   4.3290   4.4066   4.4226   4.4433   4.4646   4.5457   4.5796
     4.6354   4.6877   4.7536   4.7541   4.7868   4.8547   4.8782   4.9117
     4.9365   4.9468   5.0043   5.0682   5.1254   5.1778   5.2024   5.2106
     5.2461   5.2653   5.3528   5.3773   5.5302   5.5732   5.5858   5.7978
     5.8088   5.8308   5.9138   5.9942   6.0466   6.0534   6.1444   6.1900
     6.3262   6.3338   6.3941   6.4291   6.5471   6.6292   6.6434   6.6654
     6.8293   6.8505   7.0243   7.0462   7.0686   7.1035   7.1573   7.3287
     7.3841   7.3984   7.4438   7.4831   7.5690   7.6111   7.6850   7.7072
     7.7146   7.7318   7.7506   7.7867   7.7940   7.8466   7.9358   7.9569
     7.9858   8.0297   8.1047   8.1060   8.3117   8.3825   8.4429   8.5168
     8.5339   8.6025   8.6102   8.6393   8.6965   8.7729   8.7994   8.8156
     8.8461   8.8835   8.8966   8.9291   9.0151   9.0939   9.1019   9.1118
     9.1669   9.1780   9.2485   9.2860   9.3169   9.3340   9.3381   9.3573
     9.4397   9.5138   9.5844   9.6212   9.6412   9.6654   9.6931   9.7325
     9.7616   9.8158   9.8503   9.8779   9.9266   9.9526  10.0331  10.0709
    10.1000  10.1098  10.1250  10.2318  10.2345  10.3030  10.3471  10.4242
    10.4590  10.5024  10.5317  10.5560

          k =-0.5000 0.0000 0.0000 (256496 PWs)   bands (ev):

   -16.4267 -15.3481 -15.2335 -15.0106 -15.0030 -14.9424 -14.2019 -14.0157
   -13.9002 -13.8663 -12.5972 -12.3114 -12.1539 -12.1074 -11.7497 -11.7075
   -11.3658 -11.3623 -11.1818 -11.1811 -10.6519 -10.6076 -10.4453 -10.2006
    -9.7009  -9.6718  -9.4506  -9.1301  -8.5653  -8.5432  -8.3956  -8.3453
    -7.2607  -7.0811  -7.0349  -6.8413  -6.7861  -6.7651  -5.6268  -5.5901
    -5.1849  -4.6878  -4.6831  -4.6514  -4.5530  -4.4061  -4.2887  -4.2211
    -4.2194  -4.1809  -4.1688  -4.1628  -4.1615  -4.1248  -4.1111  -4.0857
    -4.0712  -3.9518  -3.9508  -3.9128  -3.8589  -3.8153  -3.8088  -3.5648
    -3.5588  -3.4063  -3.3848  -3.2958  -3.2266  -3.1321  -3.1218  -3.0960
    -3.0549  -3.0293  -2.8546  -2.8171  -2.7991  -2.7874  -2.7833  -2.7806
    -2.7790  -2.7786  -2.4192  -2.4080  -2.3578  -2.3330  -2.2546  -2.2252
    -2.2180  -2.1739  -2.1727  -2.0996  -2.0431  -1.9461  -1.9120  -1.8964
    -1.8926  -1.8793  -1.8772  -1.8503  -1.3302  -1.3253  -1.3206  -1.3179
    -1.2730  -1.2519  -1.2490  -1.2459  -1.2429  -1.2397  -1.2378  -1.2219
    -1.1907  -1.1885  -1.0790  -1.0332  -1.0325  -1.0305  -1.0288  -0.9817
    -0.9796  -0.9771  -0.9744  -0.9711  -0.9680  -0.9599  -0.9594  -0.9141
    -0.9110  -0.8880  -0.8648  -0.8645  -0.8399  -0.8376  -0.8285  -0.8238
    -0.8051  -0.8040  -0.7626  -0.7591  -0.7440  -0.7339  -0.7257  -0.7244
    -0.7116  -0.7008  -0.6893  -0.6876  -0.6753  -0.6746  -0.6684  -0.6668
    -0.6595  -0.6558  -0.6521  -0.6495  -0.6176  -0.5918  -0.5892  -0.5795
    -0.5754  -0.5671  -0.5660  -0.5540  -0.5529  -0.5381  -0.5357  -0.5284
    -0.5276  -0.5182  -0.5050  -0.4888  -0.4876  -0.4871  -0.4805  -0.4777
    -0.4667  -0.4582  -0.4535  -0.4502  -0.4460  -0.4260  -0.4127  -0.4112
    -0.3860  -0.3841  -0.3728  -0.3624  -0.3597  -0.3493  -0.3478  -0.3470
    -0.3410  -0.3383  -0.3369  -0.3214  -0.3207  -0.3154  -0.2974  -0.2942
    -0.2918  -0.2841  -0.2839  -0.2798  -0.2792  -0.2665  -0.2626  -0.2206
    -0.2129  -0.1491  -0.1459  -0.1186  -0.1111  -0.1028  -0.1015  -0.0825
    -0.0761  -0.0757  -0.0622  -0.0601  -0.0452  -0.0424  -0.0419  -0.0325
    -0.0285  -0.0240  -0.0045   0.0004   0.0025   0.0100   0.0114   0.0224
     0.0257   0.0330   0.0435   0.0456   0.0529   0.0725   0.0794   0.1038
     0.1066   0.1144   0.1205   0.1211   0.1377   0.1452   0.1567   0.1592
     0.1599   0.1610   0.1871   0.1898   0.1971   0.1984   0.2122   0.2145
     0.2454   0.2457   0.2470   0.2478   0.2666   0.2681   0.2774   0.2781
     0.2875   0.2924   0.2931   0.3083   0.3119   0.3171   0.3235   0.3244
     0.3368   0.3467   0.3518   0.3536   0.3650   0.3668   0.3679   0.3698
     0.3764   0.3769   0.3837   0.4039   0.4129   0.4151   0.4315   0.4363
     0.4403   0.4527   0.4558   0.4650   0.4751   0.4767   0.4770   0.4785
     0.4922   0.4958   0.5077   0.5103   0.5130   0.5278   0.5458   0.5493
     0.5524   0.5538   0.5603   0.5684   0.5760   0.5774   0.5820   0.5828
     0.5858   0.5876   0.5993   0.6001   0.6030   0.6046   0.6091   0.6100
     0.6250   0.6294   0.6426   0.6438   0.6477   0.6524   0.6543   0.6691
     0.6781   0.6943   0.6947   0.6970   0.7080   0.7096   0.7115   0.7119
     0.7120   0.7166   0.7182   0.7183   0.7230   0.7273   0.7284   0.7321
     0.7420   0.7455   0.7458   0.7475   0.7486   0.7548   0.7554   0.7572
     0.7612   0.7626   0.7721   0.7780   0.7803   0.7824   0.7847   0.7856
     0.8100   0.8148   0.8281   0.8289   0.8452   0.8492   0.8523   0.8823
     0.8912   0.8915   0.8951   0.8990   0.9083   0.9149   0.9171   0.9225
     0.9234   0.9293   0.9481   0.9513   0.9590   0.9612   0.9631   0.9669
     0.9695   0.9736   0.9743   0.9803   0.9819   0.9827   0.9861   1.0033
     1.0038   1.0053   1.0061   1.0080   1.0105   1.0108   1.0112   1.0247
     1.0253   1.0331   1.0336   1.0397   1.0413   1.0677   1.0700   1.0735
     1.0858   1.0881   1.0897   1.1047   1.1077   1.1078   1.1167   1.1199
     1.1248   1.1269   1.1334   1.1359   1.1384   1.1553   1.1572   1.1592
     1.1619   1.1671   1.1713   1.1760   1.1791   1.1830   1.1850   1.1887
     1.1907   1.1917   1.1936   1.2191   1.2247   1.2253   1.2255   1.2300
     1.2324   1.2355   1.2386   1.2417   1.2454   1.2505   1.2580   1.2604
     1.2617   1.2627   1.2730   1.2760   1.2773   1.2819   1.2943   1.2963
     1.3022   1.3028   1.3058   1.3077   1.3183   1.3248   1.3487   1.3525
     1.3562   1.3616   1.3625   1.3647   1.3653   1.3702   1.3793   1.3807
     1.3817   1.3828   1.3986   1.3991   1.4042   1.4085   1.4157   1.4303
     1.4353   1.4375   1.4484   1.4497   1.4504   1.4515   1.4517   1.4597
     1.4665   1.4725   1.4727   1.4762   1.4828   1.4837   1.4856   1.4920
     1.5065   1.5067   1.5099   1.5108   1.5132   1.5156   1.5370   1.5388
     1.5425   1.5569   1.5624   1.5629   1.5706   1.5742   1.5874   1.5928
     1.6057   1.6078   1.6094   1.6154   1.6175   1.6246   1.6406   1.6502
     1.6506   1.6539   1.6663   1.6729   1.6752   1.6776   1.6796   1.6810
     1.6957   1.6959   1.7005   1.7012   1.7021   1.7072   1.7183   1.7194
     1.7230   1.7280   1.7349   1.7351   1.7412   1.7427   1.7438   1.7445
     1.7503   1.7542   1.7637   1.7661   1.7668   1.7698   1.7832   1.7868
     1.7872   1.7881   1.7899   1.7962   1.7977   1.7989   1.8050   1.8134
     1.8189   1.8215   1.8244   1.8247   1.8270   1.8283   1.8332   1.8369
     1.8373   1.8417   1.8420   1.8444   1.8519   1.8547   1.8551   1.8614
     1.8750   1.8809   1.8876   1.8888   1.8966   1.9012   1.9030   1.9048
     1.9059   1.9078   1.9125   1.9126   1.9202   1.9238   1.9259   1.9304
     1.9306   1.9340   1.9350   1.9383   1.9386   1.9390   1.9410   1.9439
     1.9452   1.9531   1.9569   1.9621   1.9675   1.9720   1.9741   1.9802
     1.9847   1.9867   1.9870   1.9906   1.9910   2.0000   2.0063   2.0097
     2.0115   2.0127   2.0130   2.0236   2.0288   2.0291   2.0304   2.0324
     2.0329   2.0366   2.0447   2.0449   2.0490   2.0541   2.0568   2.0581
     2.0592   2.0601   2.0717   2.0813   2.0821   2.0832   2.0908   2.0921
     2.1023   2.1036   2.1058   2.1099   2.1207   2.1208   2.1210   2.1214
     2.1303   2.1303   2.1458   2.1553   2.1561   2.1747   2.1751   2.1764
     2.1841   2.1909   2.2167   2.2175   2.2265   2.2278   2.3610   2.3618
     2.3989   2.4011   2.5514   2.5521   2.8158   2.8211   2.8630   2.8664
     2.8704   2.8744   2.8917   2.8945   2.9174   2.9184   3.3300   3.3321
     3.3724   3.3728   3.6703   3.6713   3.6951   3.7016   3.7520   3.7577
     3.7847   3.7858   3.9176   3.9195   3.9500   3.9559   4.3900   4.3944
     4.4125   4.4130   4.5287   4.5414   4.5935   4.6105   4.6164   4.6270
     4.6557   4.7231   4.7328   5.0171   5.0226   5.1039   5.2436   5.2786
     5.2798   5.2912   5.3133   5.3355   5.4113   5.4595   5.4697   5.4747
     5.4794   5.5181   5.5645   5.6142   5.6272   5.6319   5.6364   5.6800
     5.6879   5.7304   5.7346   5.7583   5.7772   5.7855   5.8984   5.9064
     5.9158   5.9367   6.1942   6.3344   6.3627   6.3747   6.3868   6.4069
     6.4843   6.4893   6.5261   6.5330   6.6021   6.6105   6.6434   6.6529
     6.8125   7.0175   7.0508   7.0856   7.1142   7.1333   7.2487   7.2537
     7.7016   7.7229   7.7297   7.7403   7.8216   7.8301   7.8835   7.8952
     8.1196   8.1301   8.1908   8.1964   8.2334   8.2373   8.2680   8.2716
     8.4212   8.4247   8.4774   8.4791   8.5131   8.5171   8.6528   8.6966
     8.7026   8.7232   8.8485   8.8525   8.8823   8.8871   9.1462   9.1567
     9.2268   9.2470   9.2711   9.2770   9.3319   9.3402   9.4452   9.4629
     9.4765   9.4793   9.5072   9.6439   9.6495   9.6773   9.6815   9.7657
     9.7794   9.8666   9.8710   9.9610   9.9623   9.9703   9.9729   9.9770
     9.9867  10.0217  10.1626  10.1701  10.1861  10.1876  10.2745  10.2825
    10.3292  10.3384  10.4091  10.4407

          k =-0.5000-0.2165 0.0000 (256328 PWs)   bands (ev):

   -16.4265 -15.2802 -15.2801 -15.2282 -14.8277 -14.5744 -14.5708 -14.4636
   -13.4546 -13.2472 -13.1120 -13.0542 -11.9703 -11.7147 -11.4529 -11.4385
   -11.3019 -11.2195 -11.0720 -11.0448 -10.9484 -10.9289 -10.8047 -10.8026
    -9.3828  -9.3823  -9.1996  -9.1588  -8.6313  -8.3391  -8.1926  -8.1707
    -7.6660  -7.6180  -7.4919  -7.4541  -5.9493  -5.6499  -5.5599  -5.3769
    -5.2507  -5.0005  -4.7497  -4.7248  -4.7166  -4.5792  -4.5746  -4.5398
    -4.5350  -4.5081  -4.4482  -4.4325  -4.0691  -3.9839  -3.9655  -3.8883
    -3.7759  -3.6404  -3.6076  -3.5932  -3.5814  -3.5572  -3.5547  -3.5236
    -3.5072  -3.4936  -3.4886  -3.4781  -3.3529  -3.2578  -3.2296  -3.1450
    -3.1309  -3.1003  -3.0913  -3.0896  -3.0653  -2.8592  -2.7970  -2.7811
    -2.6812  -2.6068  -2.5444  -2.4880  -2.3491  -2.3454  -2.0705  -2.0682
    -2.0222  -1.9901  -1.9457  -1.9435  -1.9414  -1.9404  -1.8321  -1.7951
    -1.6899  -1.6632  -1.6322  -1.6241  -1.5832  -1.5182  -1.4766  -1.4731
    -1.4698  -1.4614  -1.4520  -1.4501  -1.3972  -1.2182  -1.2136  -1.1841
    -1.1818  -1.1739  -1.1731  -1.1603  -1.1600  -1.1096  -1.0529  -1.0052
    -0.9980  -0.9603  -0.9597  -0.9179  -0.8620  -0.8602  -0.8557  -0.8541
    -0.8180  -0.8150  -0.8118  -0.8098  -0.8096  -0.8090  -0.8077  -0.8010
    -0.7979  -0.7972  -0.7718  -0.7672  -0.7658  -0.7638  -0.7631  -0.7437
    -0.7426  -0.7422  -0.7400  -0.7316  -0.7308  -0.7281  -0.7275  -0.6889
    -0.6855  -0.6227  -0.6206  -0.6116  -0.6073  -0.5871  -0.5844  -0.5750
    -0.5732  -0.5633  -0.5625  -0.5438  -0.5378  -0.5364  -0.5279  -0.5254
    -0.5104  -0.5097  -0.5069  -0.5056  -0.4978  -0.4948  -0.4943  -0.4886
    -0.4882  -0.4819  -0.4792  -0.4625  -0.4499  -0.4479  -0.4463  -0.4415
    -0.4268  -0.4255  -0.4222  -0.4214  -0.4032  -0.4026  -0.4015  -0.4012
    -0.3602  -0.3582  -0.3570  -0.3542  -0.3061  -0.3042  -0.3024  -0.2991
    -0.2453  -0.2441  -0.2204  -0.2196  -0.1967  -0.1963  -0.1881  -0.1871
    -0.1463  -0.1457  -0.1341  -0.1333  -0.1322  -0.1315  -0.1191  -0.1189
    -0.1125  -0.1102  -0.0845  -0.0839  -0.0729  -0.0699  -0.0643  -0.0629
    -0.0516  -0.0512  -0.0456  -0.0440   0.0294   0.0309   0.0387   0.0410
     0.0544   0.0554   0.0758   0.0784   0.0828   0.0831   0.0883   0.0905
     0.1010   0.1185   0.1309   0.1319   0.1333   0.1353   0.1726   0.1741
     0.1757   0.1800   0.1831   0.1834   0.1853   0.1856   0.2036   0.2181
     0.2203   0.2248   0.2305   0.2445   0.2479   0.2530   0.2723   0.3018
     0.3027   0.3244   0.3286   0.3296   0.3496   0.3527   0.3550   0.3555
     0.3583   0.3589   0.3603   0.3670   0.3707   0.3715   0.3779   0.3790
     0.3881   0.3912   0.4069   0.4322   0.4423   0.4451   0.4459   0.4470
     0.4514   0.4547   0.4595   0.4812   0.4890   0.4921   0.4932   0.4988
     0.4998   0.5001   0.5009   0.5019   0.5035   0.5091   0.5103   0.5173
     0.5318   0.5343   0.5470   0.5521   0.5587   0.5626   0.5675   0.5777
     0.5796   0.6010   0.6150   0.6168   0.6202   0.6409   0.6442   0.6475
     0.6507   0.6525   0.6532   0.6547   0.6614   0.6632   0.6760   0.6789
     0.6801   0.6930   0.6948   0.6973   0.6983   0.7080   0.7098   0.7099
     0.7121   0.7123   0.7191   0.7218   0.7240   0.7275   0.7304   0.7311
     0.7323   0.7441   0.7472   0.7517   0.7554   0.7557   0.7591   0.7596
     0.7621   0.7679   0.7725   0.7824   0.8123   0.8186   0.8210   0.8224
     0.8311   0.8335   0.8354   0.8365   0.8501   0.8572   0.8614   0.8651
     0.8663   0.8674   0.8715   0.8827   0.8881   0.8993   0.9084   0.9188
     0.9224   0.9325   0.9367   0.9540   0.9550   0.9585   0.9639   0.9648
     0.9746   0.9758   0.9768   0.9879   0.9908   1.0049   1.0060   1.0106
     1.0114   1.0151   1.0173   1.0216   1.0252   1.0281   1.0282   1.0318
     1.0383   1.0388   1.0464   1.0505   1.0517   1.0649   1.0688   1.0713
     1.0737   1.0824   1.0875   1.0944   1.0977   1.0980   1.0995   1.1098
     1.1131   1.1173   1.1208   1.1232   1.1237   1.1328   1.1484   1.1496
     1.1544   1.1556   1.1619   1.1789   1.1796   1.1805   1.1848   1.1887
     1.1900   1.1915   1.1970   1.2182   1.2190   1.2194   1.2211   1.2273
     1.2350   1.2372   1.2381   1.2388   1.2464   1.2484   1.2500   1.2543
     1.2563   1.2718   1.2781   1.2813   1.2880   1.2884   1.2966   1.2977
     1.3025   1.3045   1.3141   1.3193   1.3221   1.3236   1.3286   1.3381
     1.3411   1.3422   1.3472   1.3489   1.3532   1.3536   1.3700   1.3750
     1.3836   1.3859   1.3877   1.3921   1.3936   1.3960   1.3996   1.4006
     1.4043   1.4047   1.4171   1.4205   1.4292   1.4312   1.4364   1.4428
     1.4660   1.4672   1.4752   1.4762   1.4847   1.4887   1.4972   1.5104
     1.5218   1.5275   1.5393   1.5426   1.5646   1.5662   1.5761   1.5807
     1.5853   1.5862   1.5882   1.5905   1.6120   1.6160   1.6190   1.6313
     1.6330   1.6339   1.6350   1.6357   1.6377   1.6382   1.6435   1.6464
     1.6480   1.6487   1.6530   1.6533   1.6563   1.6575   1.6607   1.6616
     1.6624   1.6627   1.6684   1.6765   1.6818   1.6901   1.6995   1.7018
     1.7040   1.7099   1.7151   1.7157   1.7185   1.7242   1.7270   1.7284
     1.7394   1.7403   1.7466   1.7475   1.7503   1.7517   1.7520   1.7527
     1.7559   1.7609   1.7651   1.7793   1.7917   1.7924   1.7927   1.7951
     1.8123   1.8137   1.8175   1.8187   1.8312   1.8333   1.8346   1.8355
     1.8366   1.8432   1.8542   1.8562   1.8685   1.8701   1.8745   1.8762
     1.8824   1.8915   1.8921   1.8923   1.8953   1.9021   1.9028   1.9033
     1.9050   1.9183   1.9214   1.9233   1.9363   1.9374   1.9390   1.9415
     1.9446   1.9494   1.9528   1.9544   1.9547   1.9552   1.9591   1.9594
     1.9655   1.9657   1.9670   1.9717   1.9718   1.9764   1.9816   1.9843
     1.9850   1.9856   1.9884   1.9926   1.9949   1.9957   2.0033   2.0046
     2.0103   2.0170   2.0181   2.0190   2.0219   2.0262   2.0302   2.0373
     2.0377   2.0380   2.0423   2.0470   2.0473   2.0513   2.0614   2.0619
     2.0640   2.0688   2.0795   2.0806   2.0883   2.0910   2.1050   2.1062
     2.1093   2.1110   2.1188   2.1210   2.1212   2.1213   2.1359   2.1361
     2.1411   2.1435   2.1449   2.1550   2.1867   2.1873   2.1876   2.1891
     2.1931   2.1938   2.2135   2.2174   2.2289   2.2328   2.2353   2.2538
     2.4015   2.4043   2.4072   2.4133   2.4616   2.4625   2.7201   2.7219
     3.0076   3.0121   3.0430   3.0433   3.1367   3.1421   3.1573   3.1581
     3.3576   3.3609   3.3989   3.4022   3.8703   3.8757   4.0242   4.0359
     4.0471   4.0483   4.0561   4.0650   4.1882   4.1895   4.2714   4.2780
     4.4578   4.4596   4.5339   4.5365   4.5369   4.5443   4.6206   4.6268
     4.7348   4.8237   4.8293   4.8335   4.8344   5.0603   5.0772   5.0814
     5.1097   5.1456   5.2317   5.2424   5.2508   5.3318   5.3337   5.3971
     5.4073   5.4445   5.5109   5.5582   5.5840   5.6169   5.6365   5.6418
     5.6755   5.7191   5.7263   5.7268   5.7544   5.8062   5.9833   6.0451
     6.0484   6.0693   6.1286   6.1509   6.1521   6.1939   6.2187   6.2862
     6.3964   6.4087   6.4146   6.4269   6.8083   6.8168   6.8378   6.8444
     7.1921   7.2020   7.2818   7.2848   7.5062   7.5107   7.5120   7.5336
     7.5958   7.6046   7.7185   7.7357   7.7359   7.7420   7.9499   7.9506
     7.9521   7.9535   8.0962   8.1319   8.1366   8.2035   8.2113   8.4021
     8.4071   8.4602   8.4874   8.5430   8.6133   8.6275   8.6363   8.6414
     8.6861   8.6879   8.8199   8.8712   8.9797   8.9928   9.0033   9.0043
     9.2364   9.2474   9.3185   9.3262   9.4230   9.4239   9.4244   9.4257
     9.5116   9.5131   9.5272   9.5307   9.5946   9.6015   9.6088   9.6097
     9.6113   9.6241   9.6646   9.6761   9.7107   9.7232   9.9620   9.9828
    10.0517  10.0660  10.2668  10.2802  10.2898  10.2912  10.3643  10.3669
    10.5182  10.5259  10.5291  10.5391

     the Fermi energy is     3.9294 ev

!    total energy              =  -13679.28785562 Ry
     Harris-Foulkes estimate   =  -13679.28785562 Ry
     estimated scf accuracy    <          2.8E-09 Ry

     The total energy is the sum of the following terms:

     one-electron contribution = -106325.46836729 Ry
     hartree contribution      =   54658.42753617 Ry
     xc contribution           =   -4789.49134785 Ry
     ewald contribution        =   42783.95623080 Ry
     Dispersion Correction     =      -3.10053462 Ry
     smearing contrib. (-TS)   =      -3.61137283 Ry

     convergence has been achieved in  42 iterations

     Writing output data file gc.save
 
     init_run     :    109.02s CPU    117.65s WALL (       1 calls)
     electrons    :  13794.38s CPU  14705.96s WALL (       1 calls)

     Called by init_run:
     wfcinit      :    106.77s CPU    114.54s WALL (       1 calls)
     potinit      :      0.35s CPU      0.40s WALL (       1 calls)

     Called by electrons:
     c_bands      :  12776.92s CPU  13587.33s WALL (      42 calls)
     sum_band     :    854.45s CPU    928.55s WALL (      42 calls)
     v_of_rho     :      2.71s CPU      3.43s WALL (      43 calls)
     newd         :      8.01s CPU     13.99s WALL (      43 calls)
     mix_rho      :    152.17s CPU    172.55s WALL (      42 calls)

     Called by c_bands:
     init_us_2    :     37.91s CPU     38.38s WALL (     510 calls)
     cegterg      :  12611.46s CPU  13415.01s WALL (     259 calls)

     Called by sum_band:
     sum_band:bec :      5.02s CPU      5.77s WALL (     252 calls)
     addusdens    :      7.99s CPU     13.70s WALL (      42 calls)

     Called by *egterg:
     h_psi        :   4386.22s CPU   4732.56s WALL (    1911 calls)
     s_psi        :   1102.57s CPU   1116.31s WALL (    1911 calls)
     g_psi        :     10.83s CPU     10.84s WALL (    1646 calls)
     cdiaghg      :   3927.50s CPU   4075.34s WALL (    1898 calls)

     Called by h_psi:
     add_vuspsi   :   1111.25s CPU   1126.62s WALL (    1911 calls)

     General routines
     calbec       :   1551.88s CPU   1562.16s WALL (    2163 calls)
     fft          :      3.31s CPU      4.09s WALL (     558 calls)
     ffts         :     89.28s CPU    101.57s WALL (   23237 calls)
     fftw         :   2410.91s CPU   2688.06s WALL ( 1336584 calls)
     davcio       :      0.45s CPU      5.15s WALL (       6 calls)
 
     Parallel routines
     fft_scatter  :   1548.57s CPU   1708.18s WALL ( 1360379 calls)
 
     PWSCF        :     3h51m CPU        4h 7m WALL

 
   This run was terminated on:  16: 9:58  20Apr2017            

=------------------------------------------------------------------------------=
   JOB DONE.
=------------------------------------------------------------------------------=
