mpirun: INFO: switching to OpenMPI runtime version 1.10.2

     Program PWSCF v.5.4.0 starts on  7Sep2017 at 21: 0:41 

     This program is part of the open-source Quantum ESPRESSO suite
     for quantum simulation of materials; please cite
         "P. Giannozzi et al., J. Phys.:Condens. Matter 21 395502 (2009);
          URL http://www.quantum-espresso.org", 
     in publications or presentations arising from this work. More details at
     http://www.quantum-espresso.org/quote

     Parallel version (MPI & OpenMP), running on      56 processor cores
     Number of MPI processes:                56
     Threads/MPI process:                     1
     R & G space division:  proc/nbgrp/npool/nimage =      56
     Waiting for input...
     Reading input from standard input
Warning: card &IONS ignored
Warning: card / ignored

     Current dimensions of program PWSCF are:
     Max number of different atomic species (ntypx) = 10
     Max number of k-points (npk) =  40000
     Max angular momentum in pseudopotentials (lmaxx) =  3

     -------------------------------------
     Parameters for Dispersion Correction:
     -------------------------------------
       atom      VdW radius       C_6     

        Cu         2.952        374.666
        C_h        2.744         60.710
        C          2.744         60.710

     Subspace diagonalization in iterative solution of the eigenvalue problem:
     one sub-group per band group will be used
     scalapack distributed-memory algorithm (size of sub-group:  5*  5 procs)

 
     Parallelization info
     --------------------
     sticks:   dense  smooth     PW     G-vecs:    dense   smooth      PW
     Min         204     204     54                36612    36612    4962
     Max         205     205     55                36617    36617    4968
     Sum       11433   11433   3039              2050409  2050409  278033
 


     bravais-lattice index     =            0
     lattice parameter (alat)  =      13.9425  a.u.
     unit-cell volume          =   21209.0878 (a.u.)^3
     number of atoms/cell      =          148
     number of atomic types    =            3
     number of electrons       =      1292.00
     number of Kohn-Sham states=          775
     kinetic-energy cutoff     =      80.0000  Ry
     charge density cutoff     =     320.0000  Ry
     convergence threshold     =      1.0E-08
     mixing beta               =       0.7000
     number of iterations used =            8  local-TF  mixing
     Exchange-correlation      =  SLA  PW   PBX  PBC ( 1  4  3  4 0 0)

     celldm(1)=  13.942539  celldm(2)=   0.000000  celldm(3)=   0.000000
     celldm(4)=   0.000000  celldm(5)=   0.000000  celldm(6)=   0.000000

     crystal axes: (cart. coord. in units of alat)
               a(1) = (   1.000000   0.000000   0.000000 )  
               a(2) = (   0.000000   2.309401   0.000000 )  
               a(3) = (   0.000000   0.000000   3.388418 )  

     reciprocal axes: (cart. coord. in units 2 pi/alat)
               b(1) = (  1.000000  0.000000  0.000000 )  
               b(2) = (  0.000000  0.433013  0.000000 )  
               b(3) = (  0.000000  0.000000  0.295123 )  


     PseudoPot. # 1 for Cu read from file:
     /home/549/hxw549/Short/pseudopotentials/Cu.pbe-n-van_ak.UPF
     MD5 check sum: 601f7c30f7467666bec936e0661ce3e1
     Pseudo is Ultrasoft + core correction, Zval = 11.0
     Generated by new atomic code, or converted to UPF format
     Using radial grid of  867 points,  6 beta functions with: 
                l(1) =   0
                l(2) =   0
                l(3) =   1
                l(4) =   1
                l(5) =   2
                l(6) =   2
     Q(r) pseudized with  8 coefficients,  rinner =    1.400   1.400   1.400
                                                       1.400   1.400

     PseudoPot. # 2 for C  read from file:
     /home/549/hxw549/Short/pseudopotentials/C.star1s-pbe-mt_gipaw.UPF
     MD5 check sum: ef0cb3dee31bd9e4ba2a832a2c716264
     Pseudo is Norm-conserving, Zval =  5.0
     Generated by new atomic code, or converted to UPF format
     Using radial grid of 1073 points,  1 beta functions with: 
                l(1) =   0

     PseudoPot. # 3 for C  read from file:
     /home/549/hxw549/Short/pseudopotentials/C.pbe-mt_gipaw.UPF
     MD5 check sum: 5ac2f21f2c440b14befe521540822c15
     Pseudo is Norm-conserving, Zval =  4.0
     Generated by new atomic code, or converted to UPF format
     Using radial grid of 1073 points,  1 beta functions with: 
                l(1) =   0

     atomic species   valence    mass     pseudopotential
        Cu            11.00    63.54600     Cu( 1.00)
        C_h            5.00    12.01070     C ( 1.00)
        C              4.00    12.01070     C ( 1.00)

     No symmetry found



   Cartesian axes

     site n.     atom                  positions (alat units)
         1           Cu  tau(   1) = (   0.0000000   0.0000567   0.9971194  )
         2           Cu  tau(   2) = (   0.2499927   0.2309760   0.9972946  )
         3           Cu  tau(   3) = (   0.5000000   0.0000313   0.9971490  )
         4           Cu  tau(   4) = (   0.7500073   0.2309760   0.9972946  )
         5           Cu  tau(   5) = (   0.0000000   0.4618437   0.9973425  )
         6           Cu  tau(   6) = (   0.2499840   0.6927701   0.9971914  )
         7           Cu  tau(   7) = (   0.5000000   0.4618722   0.9973119  )
         8           Cu  tau(   8) = (   0.7500160   0.6927701   0.9971914  )
         9           Cu  tau(   9) = (   0.0000000   0.9237521   0.9970621  )
        10           Cu  tau(  10) = (   0.2500157   1.1547420   0.9971373  )
        11           Cu  tau(  11) = (   0.5000000   0.9237453   0.9970727  )
        12           Cu  tau(  12) = (   0.7499843   1.1547420   0.9971373  )
        13           Cu  tau(  13) = (   0.0000000   1.3856555   0.9972830  )
        14           Cu  tau(  14) = (   0.2500029   1.6165618   0.9973242  )
        15           Cu  tau(  15) = (   0.5000000   1.3857014   0.9973005  )
        16           Cu  tau(  16) = (   0.7499971   1.6165618   0.9973242  )
        17           Cu  tau(  17) = (   0.0000000   1.8474941   0.9971969  )
        18           Cu  tau(  18) = (   0.2500043   2.0784518   0.9970745  )
        19           Cu  tau(  19) = (   0.5000000   1.8474499   0.9971773  )
        20           Cu  tau(  20) = (   0.7499957   2.0784518   0.9970745  )
        21           Cu  tau(  21) = (   0.0000000   0.2308065   1.2457643  )
        22           Cu  tau(  22) = (   0.2499892  -0.0001010   1.2455764  )
        23           Cu  tau(  23) = (   0.5000000   0.2308938   1.2456746  )
        24           Cu  tau(  24) = (   0.7500108  -0.0001010   1.2455764  )
        25           Cu  tau(  25) = (   0.0000000   0.6929786   1.2456406  )
        26           Cu  tau(  26) = (   0.2499874   0.4619293   1.2457459  )
        27           Cu  tau(  27) = (   0.5000000   0.6929012   1.2456074  )
        28           Cu  tau(  28) = (   0.7500126   0.4619293   1.2457459  )
        29           Cu  tau(  29) = (   0.0000000   1.1546142   1.2455676  )
        30           Cu  tau(  30) = (   0.2499981   0.9237849   1.2455149  )
        31           Cu  tau(  31) = (   0.5000000   1.1545763   1.2455800  )
        32           Cu  tau(  32) = (   0.7500019   0.9237849   1.2455149  )
        33           Cu  tau(  33) = (   0.0000000   1.6166029   1.2456910  )
        34           Cu  tau(  34) = (   0.2500161   1.3855492   1.2457134  )
        35           Cu  tau(  35) = (   0.5000000   1.6166555   1.2458019  )
        36           Cu  tau(  36) = (   0.7499839   1.3855492   1.2457134  )
        37           Cu  tau(  37) = (   0.0000000   2.0784993   1.2455162  )
        38           Cu  tau(  38) = (   0.2500161   1.8476387   1.2456210  )
        39           Cu  tau(  39) = (   0.5000000   2.0784755   1.2455152  )
        40           Cu  tau(  40) = (   0.7499839   1.8476387   1.2456210  )
        41           Cu  tau(  41) = (   0.0000000  -0.0003182   1.4954305  )
        42           Cu  tau(  42) = (   0.2500224   0.2307186   1.4951678  )
        43           Cu  tau(  43) = (   0.5000000  -0.0002059   1.4952775  )
        44           Cu  tau(  44) = (   0.7499776   0.2307186   1.4951678  )
        45           Cu  tau(  45) = (   0.0000000   0.4620254   1.4950571  )
        46           Cu  tau(  46) = (   0.2500339   0.6931225   1.4952807  )
        47           Cu  tau(  47) = (   0.5000000   0.4619896   1.4952144  )
        48           Cu  tau(  48) = (   0.7499661   0.6931225   1.4952807  )
        49           Cu  tau(  49) = (   0.0000000   0.9238798   1.4954544  )
        50           Cu  tau(  50) = (   0.2499708   1.1544329   1.4953374  )
        51           Cu  tau(  51) = (   0.5000000   0.9237633   1.4954072  )
        52           Cu  tau(  52) = (   0.7500292   1.1544329   1.4953374  )
        53           Cu  tau(  53) = (   0.0000000   1.3854453   1.4952066  )
        54           Cu  tau(  54) = (   0.2499861   1.6167017   1.4951298  )
        55           Cu  tau(  55) = (   0.5000000   1.3853760   1.4951346  )
        56           Cu  tau(  56) = (   0.7500139   1.6167017   1.4951298  )
        57           Cu  tau(  57) = (   0.0000000   1.8477718   1.4952308  )
        58           Cu  tau(  58) = (   0.2499930   2.0785254   1.4954090  )
        59           Cu  tau(  59) = (   0.5000000   1.8478762   1.4953503  )
        60           Cu  tau(  60) = (   0.7500070   2.0785254   1.4954090  )
        61           Cu  tau(  61) = (   0.0000000   0.2310733   1.7440777  )
        62           Cu  tau(  62) = (   0.2501089  -0.0001294   1.7450479  )
        63           Cu  tau(  63) = (   0.5000000   0.2306045   1.7445985  )
        64           Cu  tau(  64) = (   0.7498911  -0.0001294   1.7450479  )
        65           Cu  tau(  65) = (   0.0000000   0.6927994   1.7446059  )
        66           Cu  tau(  66) = (   0.2502918   0.4619532   1.7441197  )
        67           Cu  tau(  67) = (   0.5000000   0.6931011   1.7451318  )
        68           Cu  tau(  68) = (   0.7497082   0.4619532   1.7441197  )
        69           Cu  tau(  69) = (   0.0000000   1.1545789   1.7453503  )
        70           Cu  tau(  70) = (   0.2500220   0.9237908   1.7453835  )
        71           Cu  tau(  71) = (   0.5000000   1.1545999   1.7449118  )
        72           Cu  tau(  72) = (   0.7499780   0.9237908   1.7453835  )
        73           Cu  tau(  73) = (   0.0000000   1.6167791   1.7444075  )
        74           Cu  tau(  74) = (   0.2497438   1.3855115   1.7442733  )
        75           Cu  tau(  75) = (   0.5000000   1.6164906   1.7439233  )
        76           Cu  tau(  76) = (   0.7502562   1.3855115   1.7442733  )
        77           Cu  tau(  77) = (   0.0000000   2.0782721   1.7455014  )
        78           Cu  tau(  78) = (   0.2498426   1.8476765   1.7447807  )
        79           Cu  tau(  79) = (   0.5000000   2.0787016   1.7454002  )
        80           Cu  tau(  80) = (   0.7501574   1.8476765   1.7447807  )
        81           Cu  tau(  81) = (   0.0000000   0.0010732   1.9906710  )
        82           Cu  tau(  82) = (   0.2503054   0.2314650   1.9904877  )
        83           Cu  tau(  83) = (   0.5000000   0.0001335   1.9924670  )
        84           Cu  tau(  84) = (   0.7496946   0.2314650   1.9904877  )
        85           Cu  tau(  85) = (   0.0000000   0.4618379   1.9901778  )
        86           Cu  tau(  86) = (   0.2508441   0.6921348   1.9910282  )
        87           Cu  tau(  87) = (   0.5000000   0.4613052   1.9913358  )
        88           Cu  tau(  88) = (   0.7491559   0.6921348   1.9910282  )
        89           Cu  tau(  89) = (   0.0000000   0.9224699   1.9915918  )
        90           Cu  tau(  90) = (   0.2491275   1.1552920   1.9912642  )
        91           Cu  tau(  91) = (   0.5000000   0.9247757   1.9920574  )
        92           Cu  tau(  92) = (   0.7508725   1.1552920   1.9912642  )
        93           Cu  tau(  93) = (   0.0000000   1.3865904   1.9916296  )
        94           Cu  tau(  94) = (   0.2499532   1.6162906   1.9903050  )
        95           Cu  tau(  95) = (   0.5000000   1.3858063   1.9901800  )
        96           Cu  tau(  96) = (   0.7500468   1.6162906   1.9903050  )
        97           Cu  tau(  97) = (   0.0000000   1.8468318   1.9923212  )
        98           Cu  tau(  98) = (   0.2497561   2.0783183   1.9915134  )
        99           Cu  tau(  99) = (   0.5000000   1.8467805   1.9903847  )
       100           Cu  tau( 100) = (   0.7502439   2.0783183   1.9915134  )
       101           C   tau( 101) = (   0.0833144   0.0962962   2.3888871  )
       102           C   tau( 102) = (   0.0833144   0.2886925   2.3900713  )
       103           C   tau( 103) = (   0.2499473   0.0000435   2.3878440  )
       104           C   tau( 104) = (   0.2498050   0.3848966   2.3886743  )
       105           C   tau( 105) = (   0.4164379   0.0962174   2.3860158  )
       106           C   tau( 106) = (   0.4164420   0.2886629   2.3856823  )
       107           C   tau( 107) = (   0.5833148  -0.0000818   2.3845687  )
       108           C   tau( 108) = (   0.5833148   0.3849277   2.3842391  )
       109           C   tau( 109) = (   0.7501904   0.0962174   2.3860158  )
       110           C   tau( 110) = (   0.7501863   0.2886629   2.3856823  )
       111           C   tau( 111) = (   0.9166823   0.0000435   2.3878440  )
       112           C   tau( 112) = (   0.9168246   0.3848966   2.3886743  )
       113           C   tau( 113) = (   0.0833144   0.6735163   2.3892509  )
       114           C   tau( 114) = (   0.0833144   0.8659398   2.3870960  )
       115           C   tau( 115) = (   0.2497901   0.5773226   2.3882842  )
       116           C   tau( 116) = (   0.2500571   0.9622141   2.3870264  )
       117           C   tau( 117) = (   0.4165233   0.6735984   2.3858047  )
       118           C   tau( 118) = (   0.4165179   0.8660537   2.3866148  )
       119           C   tau( 119) = (   0.5833148   0.5773685   2.3848465  )
       120           C_h tau( 120) = (   0.5833148   0.9623380   2.3860825  )
       121           C   tau( 121) = (   0.7501050   0.6735984   2.3858047  )
       122           C   tau( 122) = (   0.7501118   0.8660537   2.3866148  )
       123           C   tau( 123) = (   0.9168382   0.5773226   2.3882842  )
       124           C   tau( 124) = (   0.9165712   0.9622141   2.3870264  )
       125           C   tau( 125) = (   0.0833144   1.2508867   2.3852683  )
       126           C   tau( 126) = (   0.0833144   1.4433300   2.3840871  )
       127           C   tau( 127) = (   0.2500504   1.1546708   2.3859697  )
       128           C   tau( 128) = (   0.2502089   1.5396104   2.3857176  )
       129           C   tau( 129) = (   0.4168242   1.2509657   2.3878953  )
       130           C   tau( 130) = (   0.4168012   1.4433958   2.3886602  )
       131           C   tau( 131) = (   0.5833148   1.1547731   2.3885512  )
       132           C   tau( 132) = (   0.5833148   1.5396099   2.3901428  )
       133           C   tau( 133) = (   0.7498054   1.2509657   2.3878953  )
       134           C   tau( 134) = (   0.7498285   1.4433958   2.3886602  )
       135           C   tau( 135) = (   0.9165780   1.1546708   2.3859697  )
       136           C   tau( 136) = (   0.9164207   1.5396104   2.3857176  )
       137           C   tau( 137) = (   0.0833144   1.8283510   2.3842019  )
       138           C   tau( 138) = (   0.0833144   2.0207949   2.3863399  )
       139           C   tau( 139) = (   0.2502103   1.7320513   2.3858703  )
       140           C   tau( 140) = (   0.2499324   2.1169980   2.3865340  )
       141           C   tau( 141) = (   0.4167294   1.8282368   2.3882160  )
       142           C   tau( 142) = (   0.4167497   2.0206763   2.3869561  )
       143           C   tau( 143) = (   0.5833148   1.7319961   2.3895398  )
       144           C   tau( 144) = (   0.5833148   2.1168754   2.3870198  )
       145           C   tau( 145) = (   0.7498990   1.8282368   2.3882160  )
       146           C   tau( 146) = (   0.7498786   2.0206763   2.3869561  )
       147           C   tau( 147) = (   0.9164180   1.7320513   2.3858703  )
       148           C   tau( 148) = (   0.9166959   2.1169980   2.3865340  )

     number of k points=     6  gaussian smearing, width (Ry)=  0.1000
                       cart. coord. in units 2pi/alat
        k(    1) = (   0.0000000   0.0000000   0.0000000), wk =   0.2500000
        k(    2) = (   0.0000000  -0.2165064   0.0000000), wk =   0.2500000
        k(    3) = (   0.2500000   0.0000000   0.0000000), wk =   0.5000000
        k(    4) = (   0.2500000  -0.2165064   0.0000000), wk =   0.5000000
        k(    5) = (  -0.5000000   0.0000000   0.0000000), wk =   0.2500000
        k(    6) = (  -0.5000000  -0.2165064   0.0000000), wk =   0.2500000

     Dense  grid:  2050409 G-vectors     FFT dimensions: (  80, 192, 270)

     Largest allocated arrays     est. size (Mb)     dimensions
        Kohn-Sham Wavefunctions        54.44 Mb     (    4604,  775)
        NL pseudopotentials           129.82 Mb     (    4604, 1848)
        Each V/rho on FFT grid          1.17 Mb     (   76800)
        Each G-vector array             0.28 Mb     (   36616)
        G-vector shells                 0.14 Mb     (   17932)
     Largest temporary arrays     est. size (Mb)     dimensions
        Auxiliary wavefunctions       217.78 Mb     (    4604, 3100)
        Each subspace H/S matrix        5.87 Mb     (     620,  620)
        Each <psi_i|beta_j> matrix     21.85 Mb     (    1848,  775)
        Arrays for rho mixing           9.38 Mb     (   76800,    8)

     Initial potential from superposition of free atoms
     Check: negative starting charge=   -0.001843

     starting charge 1266.81751, renormalised to 1292.00000

     negative rho (up, down):  1.879E-03 0.000E+00
     Starting wfc are 1284 randomized atomic wfcs

     total cpu time spent up to now is      105.1 secs

     Self-consistent Calculation

     iteration #  1     ecut=    80.00 Ry     beta=0.70
     Davidson diagonalization with overlap
     c_bands:  1 eigenvalues not converged
     c_bands:  2 eigenvalues not converged
     ethr =  1.00E-04,  avg # of iterations = 35.2

     negative rho (up, down):  2.723E+01 0.000E+00

     total cpu time spent up to now is     2046.5 secs

     total energy              =   -9476.86081972 Ry
     Harris-Foulkes estimate   =  -17310.57143398 Ry
     estimated scf accuracy    <  180106.79703629 Ry

     iteration #  2     ecut=    80.00 Ry     beta=0.70
     Davidson diagonalization with overlap
     ethr =  1.00E-02,  avg # of iterations = 12.2

     negative rho (up, down):  3.149E+01 0.000E+00

     total cpu time spent up to now is     2953.7 secs

     total energy              =  -12202.93001992 Ry
     Harris-Foulkes estimate   =  -13665.55269068 Ry
     estimated scf accuracy    <   24011.77777946 Ry

     iteration #  3     ecut=    80.00 Ry     beta=0.70
     Davidson diagonalization with overlap
     ethr =  1.00E-02,  avg # of iterations =  7.5

     negative rho (up, down):  3.204E+01 0.000E+00

     total cpu time spent up to now is     3485.2 secs

     total energy              =  -12462.91155538 Ry
     Harris-Foulkes estimate   =  -13406.37196632 Ry
     estimated scf accuracy    <    5804.86589956 Ry

     iteration #  4     ecut=    80.00 Ry     beta=0.70
     Davidson diagonalization with overlap
     ethr =  1.00E-02,  avg # of iterations =  5.8

     negative rho (up, down):  2.377E+01 0.000E+00

     total cpu time spent up to now is     3970.0 secs

     total energy              =  -12847.72979929 Ry
     Harris-Foulkes estimate   =  -13083.60744569 Ry
     estimated scf accuracy    <    1743.72883276 Ry

     iteration #  5     ecut=    80.00 Ry     beta=0.70
     Davidson diagonalization with overlap
     ethr =  1.00E-02,  avg # of iterations =  3.3

     negative rho (up, down):  1.868E+01 0.000E+00

     total cpu time spent up to now is     4234.6 secs

     total energy              =  -12845.24527677 Ry
     Harris-Foulkes estimate   =  -12960.29564203 Ry
     estimated scf accuracy    <    1303.55353089 Ry

     iteration #  6     ecut=    80.00 Ry     beta=0.70
     Davidson diagonalization with overlap
     ethr =  1.00E-02,  avg # of iterations =  2.8

     negative rho (up, down):  1.297E+01 0.000E+00

     total cpu time spent up to now is     4439.4 secs

     total energy              =  -12834.28296711 Ry
     Harris-Foulkes estimate   =  -12908.77544913 Ry
     estimated scf accuracy    <     573.57929351 Ry

     iteration #  7     ecut=    80.00 Ry     beta=0.70
     Davidson diagonalization with overlap
     ethr =  1.00E-02,  avg # of iterations =  2.0

     negative rho (up, down):  9.241E+00 0.000E+00

     total cpu time spent up to now is     4618.7 secs

     total energy              =  -12807.59767673 Ry
     Harris-Foulkes estimate   =  -12852.31787241 Ry
     estimated scf accuracy    <     448.12107930 Ry

     iteration #  8     ecut=    80.00 Ry     beta=0.70
     Davidson diagonalization with overlap
     ethr =  1.00E-02,  avg # of iterations =  2.0

     negative rho (up, down):  7.207E+00 0.000E+00

     total cpu time spent up to now is     4795.6 secs

     total energy              =  -12787.36724491 Ry
     Harris-Foulkes estimate   =  -12823.97235118 Ry
     estimated scf accuracy    <     509.33086331 Ry

     iteration #  9     ecut=    80.00 Ry     beta=0.70
     Davidson diagonalization with overlap
     ethr =  1.00E-02,  avg # of iterations =  2.0

     negative rho (up, down):  5.534E+00 0.000E+00

     total cpu time spent up to now is     4970.3 secs

     total energy              =  -12780.87423448 Ry
     Harris-Foulkes estimate   =  -12799.80170265 Ry
     estimated scf accuracy    <     188.24229199 Ry

     iteration # 10     ecut=    80.00 Ry     beta=0.70
     Davidson diagonalization with overlap
     ethr =  1.00E-02,  avg # of iterations =  1.3

     negative rho (up, down):  1.206E+00 0.000E+00

     total cpu time spent up to now is     5138.2 secs

     total energy              =  -12737.14854618 Ry
     Harris-Foulkes estimate   =  -12782.46525322 Ry
     estimated scf accuracy    <     150.77149416 Ry

     iteration # 11     ecut=    80.00 Ry     beta=0.70
     Davidson diagonalization with overlap
     ethr =  1.00E-02,  avg # of iterations =  3.2

     negative rho (up, down):  9.161E-01 0.000E+00

     total cpu time spent up to now is     5328.2 secs

     total energy              =  -12727.58095130 Ry
     Harris-Foulkes estimate   =  -12748.21919545 Ry
     estimated scf accuracy    <     449.98197559 Ry

     iteration # 12     ecut=    80.00 Ry     beta=0.70
     Davidson diagonalization with overlap
     ethr =  1.00E-02,  avg # of iterations =  1.0

     negative rho (up, down):  5.422E-01 0.000E+00

     total cpu time spent up to now is     5492.8 secs

     total energy              =  -12725.19464648 Ry
     Harris-Foulkes estimate   =  -12741.04527526 Ry
     estimated scf accuracy    <     345.70157283 Ry

     iteration # 13     ecut=    80.00 Ry     beta=0.70
     Davidson diagonalization with overlap
     ethr =  1.00E-02,  avg # of iterations =  1.0

     negative rho (up, down):  2.857E+00 0.000E+00

     total cpu time spent up to now is     5656.8 secs

     total energy              =  -12715.49750006 Ry
     Harris-Foulkes estimate   =  -12735.18204912 Ry
     estimated scf accuracy    <     132.90439173 Ry

     iteration # 14     ecut=    80.00 Ry     beta=0.70
     Davidson diagonalization with overlap
     ethr =  1.00E-02,  avg # of iterations =  2.0

     negative rho (up, down):  5.018E+00 0.000E+00

     total cpu time spent up to now is     5834.6 secs

     total energy              =  -12718.51099248 Ry
     Harris-Foulkes estimate   =  -12725.23842426 Ry
     estimated scf accuracy    <      55.69342618 Ry

     iteration # 15     ecut=    80.00 Ry     beta=0.70
     Davidson diagonalization with overlap
     ethr =  4.31E-03,  avg # of iterations =  1.8

     negative rho (up, down):  5.395E+00 0.000E+00

     total cpu time spent up to now is     6007.9 secs

     total energy              =  -12716.43582117 Ry
     Harris-Foulkes estimate   =  -12720.62793149 Ry
     estimated scf accuracy    <      36.45347672 Ry

     iteration # 16     ecut=    80.00 Ry     beta=0.70
     Davidson diagonalization with overlap
     ethr =  2.82E-03,  avg # of iterations =  3.2

     negative rho (up, down):  5.379E+00 0.000E+00

     total cpu time spent up to now is     6197.4 secs

     total energy              =  -12714.88732033 Ry
     Harris-Foulkes estimate   =  -12717.69090588 Ry
     estimated scf accuracy    <      23.57072201 Ry

     iteration # 17     ecut=    80.00 Ry     beta=0.70
     Davidson diagonalization with overlap
     ethr =  1.82E-03,  avg # of iterations =  5.2

     negative rho (up, down):  4.735E+00 0.000E+00

     total cpu time spent up to now is     6409.5 secs

     total energy              =  -12714.19126586 Ry
     Harris-Foulkes estimate   =  -12715.62121465 Ry
     estimated scf accuracy    <      14.62212810 Ry

     iteration # 18     ecut=    80.00 Ry     beta=0.70
     Davidson diagonalization with overlap
     ethr =  1.13E-03,  avg # of iterations =  2.3

     negative rho (up, down):  4.369E+00 0.000E+00

     total cpu time spent up to now is     6589.2 secs

     total energy              =  -12713.02590548 Ry
     Harris-Foulkes estimate   =  -12714.58246316 Ry
     estimated scf accuracy    <      10.57395048 Ry

     iteration # 19     ecut=    80.00 Ry     beta=0.70
     Davidson diagonalization with overlap
     ethr =  8.18E-04,  avg # of iterations =  7.0

     negative rho (up, down):  3.600E+00 0.000E+00

     total cpu time spent up to now is     6829.3 secs

     total energy              =  -12712.08902410 Ry
     Harris-Foulkes estimate   =  -12713.28027678 Ry
     estimated scf accuracy    <       7.48330902 Ry

     iteration # 20     ecut=    80.00 Ry     beta=0.70
     Davidson diagonalization with overlap
     ethr =  5.79E-04,  avg # of iterations =  4.0

     negative rho (up, down):  2.495E+00 0.000E+00

     total cpu time spent up to now is     7028.2 secs

     total energy              =  -12711.28778789 Ry
     Harris-Foulkes estimate   =  -12712.25176769 Ry
     estimated scf accuracy    <      10.40082946 Ry

     iteration # 21     ecut=    80.00 Ry     beta=0.70
     Davidson diagonalization with overlap
     ethr =  5.79E-04,  avg # of iterations =  1.5

     negative rho (up, down):  2.160E+00 0.000E+00

     total cpu time spent up to now is     7198.6 secs

     total energy              =  -12711.02432113 Ry
     Harris-Foulkes estimate   =  -12711.57172984 Ry
     estimated scf accuracy    <       8.26876680 Ry

     iteration # 22     ecut=    80.00 Ry     beta=0.70
     Davidson diagonalization with overlap
     ethr =  5.79E-04,  avg # of iterations =  1.5

     negative rho (up, down):  1.200E+00 0.000E+00

     total cpu time spent up to now is     7368.3 secs

     total energy              =  -12709.28793452 Ry
     Harris-Foulkes estimate   =  -12711.38214484 Ry
     estimated scf accuracy    <       6.55350568 Ry

     iteration # 23     ecut=    80.00 Ry     beta=0.70
     Davidson diagonalization with overlap
     ethr =  5.07E-04,  avg # of iterations =  1.3

     negative rho (up, down):  8.877E-01 0.000E+00

     total cpu time spent up to now is     7537.7 secs

     total energy              =  -12708.21281510 Ry
     Harris-Foulkes estimate   =  -12709.42998924 Ry
     estimated scf accuracy    <       5.08312464 Ry

     iteration # 24     ecut=    80.00 Ry     beta=0.70
     Davidson diagonalization with overlap
     ethr =  3.93E-04,  avg # of iterations =  4.5

     negative rho (up, down):  3.305E-01 0.000E+00

     total cpu time spent up to now is     7749.0 secs

     total energy              =  -12707.05999167 Ry
     Harris-Foulkes estimate   =  -12708.86237754 Ry
     estimated scf accuracy    <      24.47193604 Ry

     iteration # 25     ecut=    80.00 Ry     beta=0.70
     Davidson diagonalization with overlap
     ethr =  3.93E-04,  avg # of iterations =  5.7

     negative rho (up, down):  4.524E-01 0.000E+00

     total cpu time spent up to now is     7969.4 secs

     total energy              =  -12707.45925515 Ry
     Harris-Foulkes estimate   =  -12707.93988608 Ry
     estimated scf accuracy    <       2.41816510 Ry

     iteration # 26     ecut=    80.00 Ry     beta=0.70
     Davidson diagonalization with overlap
     ethr =  1.87E-04,  avg # of iterations =  5.8

     negative rho (up, down):  6.969E-01 0.000E+00

     total cpu time spent up to now is     8190.2 secs

     total energy              =  -12707.31546809 Ry
     Harris-Foulkes estimate   =  -12707.60220474 Ry
     estimated scf accuracy    <       1.54829989 Ry

     iteration # 27     ecut=    80.00 Ry     beta=0.70
     Davidson diagonalization with overlap
     c_bands:  1 eigenvalues not converged
     ethr =  1.20E-04,  avg # of iterations =  9.3

     negative rho (up, down):  6.773E-01 0.000E+00

     total cpu time spent up to now is     8459.2 secs

     total energy              =  -12707.19541159 Ry
     Harris-Foulkes estimate   =  -12707.39454733 Ry
     estimated scf accuracy    <       1.08543146 Ry

     iteration # 28     ecut=    80.00 Ry     beta=0.70
     Davidson diagonalization with overlap
     ethr =  8.40E-05,  avg # of iterations =  9.2

     negative rho (up, down):  5.145E-01 0.000E+00

     total cpu time spent up to now is     8728.4 secs

     total energy              =  -12707.13484162 Ry
     Harris-Foulkes estimate   =  -12707.24031744 Ry
     estimated scf accuracy    <       0.60504338 Ry

     iteration # 29     ecut=    80.00 Ry     beta=0.70
     Davidson diagonalization with overlap
     ethr =  4.68E-05,  avg # of iterations =  7.3

     negative rho (up, down):  1.882E-01 0.000E+00

     total cpu time spent up to now is     8975.7 secs

     total energy              =  -12707.12938814 Ry
     Harris-Foulkes estimate   =  -12707.17086663 Ry
     estimated scf accuracy    <       0.46564788 Ry

     iteration # 30     ecut=    80.00 Ry     beta=0.70
     Davidson diagonalization with overlap
     ethr =  3.60E-05,  avg # of iterations =  4.7

     negative rho (up, down):  7.702E-02 0.000E+00

     total cpu time spent up to now is     9187.6 secs

     total energy              =  -12707.13643113 Ry
     Harris-Foulkes estimate   =  -12707.14542182 Ry
     estimated scf accuracy    <       0.18295736 Ry

     iteration # 31     ecut=    80.00 Ry     beta=0.70
     Davidson diagonalization with overlap
     ethr =  1.42E-05,  avg # of iterations =  4.5

     negative rho (up, down):  2.550E-02 0.000E+00

     total cpu time spent up to now is     9399.2 secs

     total energy              =  -12707.13755790 Ry
     Harris-Foulkes estimate   =  -12707.14517542 Ry
     estimated scf accuracy    <       0.06932898 Ry

     iteration # 32     ecut=    80.00 Ry     beta=0.70
     Davidson diagonalization with overlap
     c_bands:  1 eigenvalues not converged
     c_bands:  1 eigenvalues not converged
     ethr =  5.37E-06,  avg # of iterations = 15.3

     negative rho (up, down):  5.056E-03 0.000E+00

     total cpu time spent up to now is     9743.7 secs

     total energy              =  -12707.14136384 Ry
     Harris-Foulkes estimate   =  -12707.14330946 Ry
     estimated scf accuracy    <       0.02686935 Ry

     iteration # 33     ecut=    80.00 Ry     beta=0.70
     Davidson diagonalization with overlap
     c_bands:  1 eigenvalues not converged
     ethr =  2.08E-06,  avg # of iterations =  9.8

     negative rho (up, down):  5.108E-03 0.000E+00

     total cpu time spent up to now is    10024.7 secs

     total energy              =  -12707.14212949 Ry
     Harris-Foulkes estimate   =  -12707.14269486 Ry
     estimated scf accuracy    <       0.01259180 Ry

     iteration # 34     ecut=    80.00 Ry     beta=0.70
     Davidson diagonalization with overlap
     ethr =  9.75E-07,  avg # of iterations = 10.8

     negative rho (up, down):  9.575E-03 0.000E+00

     total cpu time spent up to now is    10318.3 secs

     total energy              =  -12707.14217625 Ry
     Harris-Foulkes estimate   =  -12707.14297728 Ry
     estimated scf accuracy    <       0.00508263 Ry

     iteration # 35     ecut=    80.00 Ry     beta=0.70
     Davidson diagonalization with overlap
     ethr =  3.93E-07,  avg # of iterations =  4.7

     negative rho (up, down):  1.269E-02 0.000E+00

     total cpu time spent up to now is    10543.1 secs

     total energy              =  -12707.14280970 Ry
     Harris-Foulkes estimate   =  -12707.14284678 Ry
     estimated scf accuracy    <       0.00224640 Ry

     iteration # 36     ecut=    80.00 Ry     beta=0.70
     Davidson diagonalization with overlap
     ethr =  1.74E-07,  avg # of iterations =  8.7

     negative rho (up, down):  1.065E-02 0.000E+00

     total cpu time spent up to now is    10815.9 secs

     total energy              =  -12707.14299419 Ry
     Harris-Foulkes estimate   =  -12707.14307973 Ry
     estimated scf accuracy    <       0.00051725 Ry

     iteration # 37     ecut=    80.00 Ry     beta=0.70
     Davidson diagonalization with overlap
     ethr =  4.00E-08,  avg # of iterations =  4.8

     negative rho (up, down):  9.083E-03 0.000E+00

     total cpu time spent up to now is    11033.4 secs

     total energy              =  -12707.14307051 Ry
     Harris-Foulkes estimate   =  -12707.14303751 Ry
     estimated scf accuracy    <       0.00011308 Ry

     iteration # 38     ecut=    80.00 Ry     beta=0.70
     Davidson diagonalization with overlap
     c_bands:  1 eigenvalues not converged
     ethr =  8.75E-09,  avg # of iterations =  7.2

     negative rho (up, down):  7.046E-03 0.000E+00

     total cpu time spent up to now is    11288.2 secs

     total energy              =  -12707.14305453 Ry
     Harris-Foulkes estimate   =  -12707.14308283 Ry
     estimated scf accuracy    <       0.00005266 Ry

     iteration # 39     ecut=    80.00 Ry     beta=0.70
     Davidson diagonalization with overlap
     ethr =  4.08E-09,  avg # of iterations =  4.3

     negative rho (up, down):  5.301E-03 0.000E+00

     total cpu time spent up to now is    11504.1 secs

     total energy              =  -12707.14303774 Ry
     Harris-Foulkes estimate   =  -12707.14305954 Ry
     estimated scf accuracy    <       0.00002015 Ry

     iteration # 40     ecut=    80.00 Ry     beta=0.70
     Davidson diagonalization with overlap
     ethr =  1.56E-09,  avg # of iterations =  5.2

     negative rho (up, down):  3.205E-03 0.000E+00

     total cpu time spent up to now is    11728.2 secs

     total energy              =  -12707.14301408 Ry
     Harris-Foulkes estimate   =  -12707.14303970 Ry
     estimated scf accuracy    <       0.00000630 Ry

     iteration # 41     ecut=    80.00 Ry     beta=0.70
     Davidson diagonalization with overlap
     ethr =  4.88E-10,  avg # of iterations =  3.8

     negative rho (up, down):  2.429E-03 0.000E+00

     total cpu time spent up to now is    11947.9 secs

     total energy              =  -12707.14301053 Ry
     Harris-Foulkes estimate   =  -12707.14301514 Ry
     estimated scf accuracy    <       0.00000384 Ry

     iteration # 42     ecut=    80.00 Ry     beta=0.70
     Davidson diagonalization with overlap
     ethr =  2.97E-10,  avg # of iterations =  2.8

     negative rho (up, down):  2.150E-03 0.000E+00

     total cpu time spent up to now is    12141.6 secs

     total energy              =  -12707.14301101 Ry
     Harris-Foulkes estimate   =  -12707.14301084 Ry
     estimated scf accuracy    <       0.00000074 Ry

     iteration # 43     ecut=    80.00 Ry     beta=0.70
     Davidson diagonalization with overlap
     ethr =  5.72E-11,  avg # of iterations =  3.0

     negative rho (up, down):  2.041E-03 0.000E+00

     total cpu time spent up to now is    12344.3 secs

     total energy              =  -12707.14301121 Ry
     Harris-Foulkes estimate   =  -12707.14301107 Ry
     estimated scf accuracy    <       0.00000015 Ry

     iteration # 44     ecut=    80.00 Ry     beta=0.70
     Davidson diagonalization with overlap
     ethr =  1.14E-11,  avg # of iterations =  3.0

     negative rho (up, down):  2.105E-03 0.000E+00

     total cpu time spent up to now is    12565.3 secs

     total energy              =  -12707.14301125 Ry
     Harris-Foulkes estimate   =  -12707.14301123 Ry
     estimated scf accuracy    <       0.00000006 Ry

     iteration # 45     ecut=    80.00 Ry     beta=0.70
     Davidson diagonalization with overlap
     ethr =  4.57E-12,  avg # of iterations =  3.0

     negative rho (up, down):  2.102E-03 0.000E+00

     total cpu time spent up to now is    12771.2 secs

     total energy              =  -12707.14301125 Ry
     Harris-Foulkes estimate   =  -12707.14301126 Ry
     estimated scf accuracy    <       0.00000003 Ry

     iteration # 46     ecut=    80.00 Ry     beta=0.70
     Davidson diagonalization with overlap
     ethr =  2.30E-12,  avg # of iterations =  2.0

     negative rho (up, down):  2.100E-03 0.000E+00

     total cpu time spent up to now is    12961.1 secs

     total energy              =  -12707.14301126 Ry
     Harris-Foulkes estimate   =  -12707.14301126 Ry
     estimated scf accuracy    <       0.00000002 Ry

     iteration # 47     ecut=    80.00 Ry     beta=0.70
     Davidson diagonalization with overlap
     ethr =  1.21E-12,  avg # of iterations =  3.0

     negative rho (up, down):  2.115E-03 0.000E+00

     total cpu time spent up to now is    13151.3 secs

     End of self-consistent calculation

          k = 0.0000 0.0000 0.0000 (256287 PWs)   bands (ev):

   -17.2828 -16.2345 -16.0880 -15.4305 -15.0442 -14.7914 -14.6913 -14.2532
   -14.1991 -14.1396 -14.1244 -13.4674 -13.3246 -13.1548 -13.1229 -13.0871
   -13.0799 -11.6704 -11.5334 -11.4865 -11.3891 -11.2059 -10.3534  -9.7693
    -9.7612  -9.6268  -9.5238  -8.9880  -8.7996  -8.6741  -8.6019  -8.0467
    -7.9035  -7.7625  -7.6414  -7.5815  -7.5742  -7.5353  -7.5239  -6.3601
    -6.3500  -6.1257  -6.0216  -6.0201  -5.9498  -5.8902  -5.8599  -5.8446
    -5.4982  -5.4850  -5.3039  -4.8927  -4.8399  -4.7994  -4.6357  -4.6217
    -4.5834  -4.4254  -4.2572  -4.1473  -3.9894  -3.9879  -3.9699  -3.9474
    -3.6187  -3.5504  -3.5297  -3.5254  -3.4213  -3.4183  -3.4073  -3.4002
    -3.2769  -3.1868  -3.1227  -3.0603  -3.0160  -3.0080  -3.0075  -3.0060
    -2.9916  -2.8587  -2.8352  -2.7994  -2.7815  -2.7450  -2.7399  -2.7393
    -2.7186  -2.7142  -2.5333  -2.4333  -2.3775  -2.3765  -2.3391  -2.3362
    -2.1946  -2.1921  -2.1822  -2.1770  -2.1521  -2.1521  -2.1519  -2.1516
    -2.1132  -2.0785  -2.0778  -2.0359  -2.0213  -2.0211  -2.0210  -2.0205
    -1.9607  -1.8417  -1.7771  -1.7439  -1.7387  -1.7379  -1.7377  -1.7029
    -1.6930  -1.6717  -1.6584  -1.6568  -1.6115  -1.6017  -1.5897  -1.5707
    -1.5645  -1.5633  -1.5611  -1.5510  -1.5398  -1.5352  -1.5348  -1.5155
    -1.5141  -1.4576  -1.4415  -1.4287  -1.4157  -1.3840  -1.3808  -1.3770
    -1.3716  -1.3529  -1.2990  -1.2922  -1.2637  -1.2621  -1.2508  -1.2116
    -1.2114  -1.1918  -1.1897  -1.1751  -1.1670  -1.1641  -1.1273  -1.1199
    -1.1096  -1.1070  -1.0495  -1.0468  -1.0357  -1.0297  -1.0270  -1.0248
    -1.0247  -1.0221  -1.0206  -1.0158  -1.0155  -0.9983  -0.9958  -0.9812
    -0.9518  -0.9413  -0.9380  -0.9346  -0.9234  -0.9190  -0.9180  -0.9173
    -0.8969  -0.8589  -0.8580  -0.8574  -0.8564  -0.8556  -0.8546  -0.8538
    -0.8528  -0.8526  -0.8499  -0.8483  -0.8482  -0.8479  -0.8457  -0.8431
    -0.8419  -0.8334  -0.8298  -0.8293  -0.8224  -0.7857  -0.6898  -0.6897
    -0.6858  -0.6835  -0.6825  -0.6604  -0.6585  -0.6415  -0.6413  -0.6199
    -0.6196  -0.6058  -0.6044  -0.6029  -0.6025  -0.5878  -0.5644  -0.5638
    -0.5619  -0.5613  -0.5539  -0.5529  -0.5422  -0.5420  -0.4922  -0.4921
    -0.4383  -0.4379  -0.4276  -0.4260  -0.4258  -0.4245  -0.4107  -0.4104
    -0.4049  -0.4047  -0.4045  -0.4041  -0.3998  -0.3997  -0.3852  -0.3851
    -0.3850  -0.3772  -0.3753  -0.3746  -0.3511  -0.3505  -0.2994  -0.2988
    -0.2968  -0.2911  -0.2909  -0.2644  -0.2644  -0.2644  -0.2644  -0.2491
    -0.2474  -0.2468  -0.2425  -0.2424  -0.2242  -0.2212  -0.2196  -0.2193
    -0.2149  -0.2145  -0.2144  -0.2141  -0.2117  -0.2088  -0.1927  -0.1901
    -0.1894  -0.1881  -0.1874  -0.1685  -0.1208  -0.1203  -0.1182  -0.1181
    -0.1154  -0.0740  -0.0716  -0.0698  -0.0687  -0.0678  -0.0625  -0.0621
    -0.0619  -0.0617  -0.0615  -0.0534  -0.0470  -0.0343  -0.0113  -0.0088
    -0.0077  -0.0077   0.0010   0.0184   0.0211   0.0214   0.0218   0.0263
     0.0301   0.0454   0.0461   0.0476   0.0482   0.0488   0.0491   0.0624
     0.0636   0.0637   0.0638   0.0691   0.0764   0.0771   0.0777   0.0994
     0.1021   0.1225   0.1352   0.1358   0.1577   0.1644   0.1649   0.1891
     0.1935   0.2325   0.2377   0.2383   0.2386   0.2398   0.2432   0.2490
     0.2700   0.2731   0.2737   0.2738   0.2744   0.2839   0.2842   0.2935
     0.3263   0.3408   0.3408   0.3475   0.3492   0.3503   0.3504   0.3774
     0.3833   0.3835   0.3840   0.3842   0.4043   0.4148   0.4171   0.4221
     0.4236   0.4364   0.4370   0.4391   0.4403   0.4776   0.4792   0.4934
     0.4944   0.4966   0.4969   0.4971   0.5088   0.5240   0.5274   0.5305
     0.5330   0.5345   0.5356   0.5356   0.5374   0.5397   0.5467   0.5472
     0.5481   0.5536   0.5544   0.5555   0.5631   0.5642   0.5853   0.5957
     0.6057   0.6058   0.6162   0.6164   0.6486   0.6495   0.6499   0.6506
     0.6525   0.6528   0.6535   0.6540   0.6642   0.6655   0.6739   0.6785
     0.6789   0.6793   0.6803   0.6873   0.6876   0.6974   0.6978   0.7096
     0.7200   0.7205   0.7207   0.7245   0.7310   0.7324   0.7401   0.7426
     0.7462   0.7485   0.7485   0.7506   0.7552   0.7558   0.7595   0.7623
     0.7684   0.7787   0.8057   0.8060   0.8161   0.8175   0.8232   0.8242
     0.8244   0.8252   0.8556   0.8561   0.8697   0.8708   0.8762   0.8762
     0.8907   0.8910   0.9000   0.9003   0.9008   0.9023   0.9090   0.9225
     0.9369   0.9376   0.9393   0.9418   0.9424   0.9437   0.9589   0.9664
     0.9774   0.9779   0.9859   0.9863   0.9970   1.0012   1.0080   1.0105
     1.0113   1.0129   1.0135   1.0138   1.0231   1.0241   1.0262   1.0287
     1.0288   1.0295   1.0307   1.0437   1.0439   1.0624   1.0628   1.0641
     1.0651   1.0692   1.0736   1.1008   1.1048   1.1058   1.1080   1.1085
     1.1101   1.1113   1.1130   1.1185   1.1193   1.1197   1.1198   1.1198
     1.1205   1.1356   1.1360   1.1608   1.1662   1.1835   1.1839   1.1952
     1.2016   1.2026   1.2032   1.2054   1.2055   1.2111   1.2134   1.2230
     1.2276   1.2334   1.2387   1.2397   1.2401   1.2406   1.2450   1.2462
     1.2465   1.2549   1.2739   1.2746   1.2756   1.2761   1.2776   1.2778
     1.2781   1.2782   1.2943   1.2947   1.2961   1.3017   1.3102   1.3105
     1.3112   1.3116   1.3118   1.3216   1.3236   1.3246   1.3345   1.3444
     1.3526   1.3542   1.3556   1.3560   1.3570   1.3589   1.3593   1.3714
     1.3839   1.3867   1.3881   1.3930   1.4029   1.4161   1.4162   1.4223
     1.4226   1.4227   1.4289   1.4297   1.4323   1.4342   1.4344   1.4345
     1.4347   1.4369   1.4384   1.4457   1.4462   1.4501   1.4675   1.4675
     1.4682   1.4683   1.4718   1.4794   1.4806   1.4942   1.5055   1.5085
     1.5099   1.5207   1.5567   1.5574   1.5602   1.5612   1.5791   1.5797
     1.5799   1.5877   1.5909   1.6059   1.6294   1.6321   1.6325   1.6329
     1.6335   1.6432   1.6439   1.6441   1.8999   1.9559   2.1054   2.1080
     2.1479   2.1548   2.2003   2.2052   2.2062   2.2068   2.2177   2.2242
     2.2251   2.2261   2.3987   2.4017   2.4578   2.4653   2.4668   2.4671
     2.4780   2.4807   2.6544   2.7195   2.7248   2.7251   2.7482   2.9741
     2.9873   3.0209   3.1687   3.5202   3.5226   3.8151   3.8178   3.8443
     3.8517   3.8543   3.8552   3.8911   3.9673   3.9802   3.9860   4.0059
     4.0078   4.0089   4.0095   4.0122   4.0136   4.2304   4.2487   4.2493
     4.2503   4.3570   4.3979   4.6771   4.7655   4.8492   4.8658   4.9246
     5.3048   5.3922   5.3985   5.4060   5.7043   5.7092   5.7215   5.7240
     5.9188   5.9296   6.1923   6.3442   6.3482   6.4081   6.4155   6.4699
     6.4726   6.4773   6.4835   6.5781   6.5941   6.6055   6.7166   6.7740
     6.7802   6.7938   6.8117   6.8184   7.0124   7.0495   7.0529   7.0597
     7.0712   7.0920   7.3561   7.3576   7.5093   7.5493   7.5512   7.6944
     7.6961   7.7068   7.7096   8.0020   8.0385   8.0873   8.1351   8.1922
     8.2244   8.2994   8.3046   8.3057   8.3351   8.3365   8.3461   8.4043
     8.4120   8.4229   8.4963   8.5552   8.5647   8.5730   8.6618   8.6646
     8.6676   8.6686   8.8134   8.8159   8.8284   8.8329   8.8383   8.8399
     9.1073   9.1093   9.1101   9.1159   9.1197   9.1394   9.1744   9.3168
     9.3445   9.3488   9.4223   9.4795   9.4899   9.5769   9.5783   9.6616
     9.6711   9.8089   9.8308  10.0435  10.0437  10.1201  10.1456

          k = 0.0000-0.2165 0.0000 (256176 PWs)   bands (ev):

   -17.2823 -16.3026 -15.8960 -15.6603 -15.0741 -14.6796 -14.3580 -14.3394
   -14.2664 -14.2322 -13.8276 -13.7713 -13.7208 -13.6941 -12.6055 -12.4405
   -12.3835 -12.3114 -12.1477 -12.0799 -10.6524 -10.5545 -10.5214 -10.3926
    -9.4588  -9.4386  -9.3015  -9.1186  -8.9891  -8.9572  -8.4052  -8.2859
    -8.2136  -8.1615  -7.4803  -7.3435  -7.0137  -6.9728  -6.9079  -6.8952
    -6.8513  -6.8409  -6.1902  -6.0829  -5.8912  -5.8827  -5.5195  -5.3863
    -5.2957  -5.2141  -5.1392  -4.9647  -4.9130  -4.8418  -4.8382  -4.7420
    -4.6853  -4.6316  -4.6109  -4.4707  -4.1571  -4.0482  -3.8267  -3.6963
    -3.6639  -3.5906  -3.3160  -3.3053  -3.3020  -3.3013  -3.2462  -3.2267
    -3.1406  -3.0932  -3.0677  -3.0489  -3.0402  -3.0313  -3.0056  -2.8973
    -2.8694  -2.8672  -2.8296  -2.7897  -2.7751  -2.7120  -2.6968  -2.6016
    -2.5879  -2.5879  -2.5786  -2.5785  -2.5781  -2.5768  -2.4778  -2.3688
    -2.3367  -2.3331  -2.2523  -2.2510  -2.2473  -2.2455  -2.1491  -2.1455
    -2.1451  -2.1441  -2.0855  -2.0413  -1.9868  -1.9867  -1.9613  -1.9611
    -1.8765  -1.8650  -1.8562  -1.8090  -1.7902  -1.7837  -1.7686  -1.7676
    -1.7498  -1.7496  -1.7408  -1.7407  -1.7227  -1.7225  -1.6455  -1.6454
    -1.6234  -1.5869  -1.5727  -1.5681  -1.5607  -1.4680  -1.4671  -1.4628
    -1.4623  -1.3788  -1.3762  -1.3709  -1.3706  -1.3692  -1.3168  -1.3166
    -1.2800  -1.2789  -1.2749  -1.2748  -1.2723  -1.2722  -1.2533  -1.2492
    -1.2291  -1.2288  -1.2239  -1.2230  -1.2133  -1.2119  -1.1694  -1.1541
    -1.1504  -1.1486  -1.1335  -1.1325  -1.0889  -1.0888  -1.0507  -1.0506
    -1.0475  -1.0474  -1.0044  -1.0031  -0.9840  -0.9837  -0.9829  -0.9822
    -0.9782  -0.9779  -0.9275  -0.9268  -0.9194  -0.9189  -0.9109  -0.9108
    -0.9011  -0.8986  -0.8973  -0.8969  -0.8327  -0.8282  -0.8282  -0.8191
    -0.8185  -0.8183  -0.8179  -0.8143  -0.7957  -0.7957  -0.7820  -0.7811
    -0.7549  -0.7546  -0.7517  -0.7506  -0.6548  -0.6547  -0.6542  -0.6541
    -0.6336  -0.6333  -0.6244  -0.6102  -0.6071  -0.6059  -0.6050  -0.6015
    -0.6014  -0.5756  -0.5751  -0.5711  -0.5418  -0.5415  -0.5404  -0.5396
    -0.5380  -0.5366  -0.5349  -0.5333  -0.5040  -0.5039  -0.4872  -0.4839
    -0.4839  -0.4695  -0.4483  -0.4477  -0.4475  -0.4471  -0.4454  -0.4366
    -0.4355  -0.4353  -0.4351  -0.4157  -0.4036  -0.3576  -0.3574  -0.3571
    -0.3570  -0.3259  -0.3251  -0.3037  -0.3035  -0.3024  -0.2978  -0.2968
    -0.2954  -0.2942  -0.2724  -0.2696  -0.2693  -0.2688  -0.2679  -0.2602
    -0.2524  -0.2479  -0.2471  -0.2470  -0.2459  -0.2434  -0.2433  -0.2405
    -0.2338  -0.2330  -0.2066  -0.2065  -0.2048  -0.2046  -0.1820  -0.1480
    -0.1424  -0.1406  -0.1403  -0.1359  -0.1324  -0.1315  -0.1290  -0.1282
    -0.1243  -0.1180  -0.1049  -0.1019  -0.0886  -0.0883  -0.0867  -0.0859
    -0.0773  -0.0772  -0.0752  -0.0741  -0.0739  -0.0733  -0.0450  -0.0178
    -0.0164  -0.0141  -0.0134   0.0017   0.0033   0.0051   0.0057   0.0111
     0.0111   0.0130   0.0281   0.0293   0.0298   0.0307   0.0407   0.0467
     0.0584   0.0594   0.0754   0.0758   0.0759   0.0763   0.0940   0.0950
     0.1108   0.1108   0.1217   0.1219   0.1343   0.1349   0.1356   0.1357
     0.1794   0.1805   0.1833   0.1843   0.1956   0.1964   0.2014   0.2020
     0.2287   0.2289   0.2608   0.2627   0.2646   0.2673   0.3001   0.3002
     0.3195   0.3372   0.3855   0.3858   0.3862   0.3872   0.3935   0.4119
     0.4129   0.4135   0.4139   0.4256   0.4428   0.4498   0.4521   0.4541
     0.4549   0.4550   0.4551   0.4555   0.4624   0.4666   0.4766   0.4779
     0.4790   0.4797   0.4803   0.4812   0.4830   0.4839   0.5161   0.5162
     0.5274   0.5275   0.5280   0.5282   0.5359   0.5359   0.5398   0.5557
     0.5569   0.5573   0.5576   0.5579   0.5583   0.5584   0.5587   0.5593
     0.5815   0.5817   0.5832   0.5835   0.5837   0.5843   0.5852   0.5852
     0.6014   0.6015   0.6446   0.6448   0.6566   0.6569   0.6663   0.6675
     0.6689   0.6692   0.6750   0.6753   0.6760   0.6768   0.6818   0.6822
     0.6832   0.6832   0.7232   0.7242   0.7243   0.7249   0.7390   0.7413
     0.7414   0.7424   0.7428   0.7435   0.7547   0.7583   0.7746   0.7757
     0.7790   0.7808   0.7820   0.7825   0.8338   0.8346   0.8848   0.8856
     0.8905   0.8923   0.8938   0.8943   0.9030   0.9039   0.9106   0.9107
     0.9169   0.9171   0.9215   0.9251   0.9254   0.9268   0.9377   0.9382
     0.9405   0.9412   0.9418   0.9423   0.9506   0.9552   0.9629   0.9664
     0.9664   0.9679   0.9687   0.9706   0.9707   0.9739   0.9775   0.9776
     0.9891   0.9892   0.9906   0.9915   0.9927   0.9932   1.0110   1.0113
     1.0202   1.0241   1.0265   1.0268   1.0287   1.0300   1.0385   1.0386
     1.0393   1.0394   1.0403   1.0405   1.0858   1.0875   1.1055   1.1156
     1.1272   1.1272   1.1418   1.1432   1.1509   1.1539   1.1545   1.1554
     1.1699   1.1701   1.1843   1.1860   1.1921   1.1928   1.1951   1.1963
     1.1977   1.1984   1.1988   1.1993   1.2002   1.2015   1.2028   1.2029
     1.2101   1.2102   1.2186   1.2238   1.2298   1.2307   1.2310   1.2315
     1.2395   1.2407   1.2661   1.2696   1.2697   1.2698   1.2764   1.2766
     1.2789   1.2795   1.2926   1.2955   1.2970   1.2971   1.3098   1.3104
     1.3123   1.3133   1.3146   1.3152   1.3319   1.3324   1.3326   1.3334
     1.3512   1.3518   1.3525   1.3546   1.3706   1.3723   1.3786   1.3788
     1.3793   1.3798   1.3948   1.3949   1.3951   1.3952   1.4118   1.4123
     1.4261   1.4262   1.4264   1.4284   1.4464   1.4468   1.4485   1.4490
     1.4500   1.4502   1.4508   1.4511   1.4788   1.4789   1.4868   1.4875
     1.4923   1.4964   1.4990   1.5045   1.5184   1.5194   1.5194   1.5196
     1.5285   1.5286   1.5408   1.5409   1.5818   1.5852   1.5876   1.5880
     1.6717   1.6887   1.6932   1.7126   1.7164   1.7293   1.7306   1.7338
     1.7830   1.7863   1.7917   1.7930   1.8029   1.8120   1.8129   1.8133
     1.8532   1.8532   1.8930   2.0579   2.0644   2.0975   2.4128   2.4149
     2.4189   2.4193   2.4955   2.4980   2.5590   2.5638   2.5638   2.5651
     2.5807   2.5814   2.7089   2.7105   2.7563   2.7602   2.7791   2.7800
     2.9231   2.9240   3.1696   3.1696   3.1776   3.1883   3.3939   3.4148
     3.5794   3.6699   3.6829   3.9121   3.9237   3.9646   4.0806   4.1020
     4.1036   4.1079   4.3218   4.3257   4.3264   4.3282   4.4970   4.4982
     4.6622   4.6894   4.7651   4.7705   4.9091   5.0711   5.0982   5.1020
     5.3169   5.3581   5.3584   5.3592   5.3607   5.4305   5.5207   5.6575
     5.6743   5.7322   5.7431   5.8236   6.3803   6.3891   6.4197   6.4265
     6.4388   6.4403   6.5478   6.5577   6.6621   6.6676   6.8075   6.8097
     6.9717   7.0220   7.0296   7.0443   7.0757   7.0802   7.1148   7.1208
     7.1282   7.1333   7.2292   7.3385   7.3447   7.3703   7.3780   7.4250
     7.5298   7.6044   7.6967   7.7182   7.7346   7.7538   8.1431   8.1437
     8.3294   8.3563   8.3709   8.4230   8.4267   8.4272   8.4324   8.4466
     8.4489   8.4835   8.6396   8.6493   8.7125   8.7150   8.7185   8.7199
     8.7567   8.7618   8.8642   8.9149   8.9371   9.0151   9.0224   9.0591
     9.1421   9.1534   9.2345   9.2378   9.2816   9.3154   9.3852   9.3854
     9.3864   9.3868   9.4583   9.4601   9.4783   9.4841   9.4880   9.4918
     9.6615   9.6651   9.7856   9.7873   9.8033   9.8892   9.8895

          k = 0.2500 0.0000 0.0000 (256240 PWs)   bands (ev):

   -17.2314 -16.1281 -15.9652 -15.6634 -15.1444 -15.0054 -14.9460 -14.8939
   -14.1123 -13.9546 -13.7724 -13.2472 -13.1737 -13.0917 -13.0447 -12.3496
   -12.2335 -12.1500 -12.0797 -11.2377 -11.1415 -10.7891 -10.6727 -10.3597
   -10.2267  -9.9551  -9.9051  -9.5083  -9.2553  -9.1595  -8.6807  -7.9924
    -7.7978  -7.7305  -7.5659  -7.5426  -7.4474  -7.0942  -6.9778  -6.3020
    -6.2213  -6.0442  -5.9686  -5.9153  -5.8421  -5.4540  -5.3309  -5.3119
    -5.3025  -5.1732  -4.9237  -4.7477  -4.6344  -4.5434  -4.4678  -4.4645
    -4.4619  -4.4273  -4.3722  -4.2285  -4.1387  -4.0014  -4.0002  -3.9977
    -3.9096  -3.8454  -3.8406  -3.8113  -3.7950  -3.6277  -3.6011  -3.5744
    -3.5249  -3.4848  -3.4074  -3.4043  -3.2791  -3.2351  -3.2133  -3.1976
    -3.1423  -3.0364  -2.9566  -2.8960  -2.8004  -2.7989  -2.7912  -2.7529
    -2.6552  -2.6256  -2.6234  -2.5071  -2.4014  -2.3947  -2.3478  -2.3376
    -2.1331  -2.0993  -2.0970  -2.0826  -2.0800  -2.0594  -2.0038  -1.9904
    -1.9813  -1.8978  -1.8956  -1.8415  -1.8033  -1.8017  -1.8002  -1.7941
    -1.7934  -1.7850  -1.7738  -1.7463  -1.7353  -1.7241  -1.7195  -1.7170
    -1.7134  -1.6536  -1.6472  -1.6036  -1.5905  -1.5830  -1.5812  -1.5788
    -1.5784  -1.5778  -1.5485  -1.5274  -1.5145  -1.5040  -1.5023  -1.4910
    -1.4890  -1.3727  -1.3365  -1.3291  -1.3131  -1.2783  -1.2697  -1.2583
    -1.2442  -1.2431  -1.2380  -1.2366  -1.2302  -1.2205  -1.2079  -1.1984
    -1.1921  -1.1852  -1.1837  -1.1782  -1.1590  -1.1399  -1.1359  -1.1340
    -1.1334  -1.1326  -1.1172  -1.1117  -1.1111  -1.0916  -1.0771  -1.0670
    -1.0511  -1.0497  -1.0470  -1.0466  -1.0409  -1.0211  -1.0132  -1.0127
    -1.0038  -1.0020  -0.9968  -0.9918  -0.9819  -0.9815  -0.9813  -0.9802
    -0.9762  -0.9758  -0.9647  -0.9544  -0.9520  -0.9466  -0.9458  -0.9397
    -0.9216  -0.9020  -0.9008  -0.8961  -0.8530  -0.8524  -0.8165  -0.8164
    -0.7973  -0.7958  -0.7865  -0.7710  -0.7709  -0.7577  -0.7546  -0.7526
    -0.7501  -0.7429  -0.7417  -0.7225  -0.6066  -0.6031  -0.5999  -0.5972
    -0.5685  -0.5675  -0.5667  -0.5509  -0.5501  -0.5497  -0.5481  -0.5393
    -0.5308  -0.5271  -0.5270  -0.5225  -0.5172  -0.5059  -0.4967  -0.4878
    -0.4850  -0.4850  -0.4820  -0.4813  -0.4609  -0.4609  -0.4576  -0.4028
    -0.3997  -0.3996  -0.3969  -0.3915  -0.3896  -0.3880  -0.3805  -0.3760
    -0.3567  -0.3566  -0.3432  -0.3335  -0.3332  -0.3313  -0.3287  -0.3070
    -0.2951  -0.2949  -0.2920  -0.2910  -0.2818  -0.2807  -0.2711  -0.2695
    -0.2660  -0.2593  -0.2490  -0.2386  -0.2302  -0.2195  -0.2022  -0.1991
    -0.1988  -0.1965  -0.1901  -0.1822  -0.1804  -0.1801  -0.1781  -0.1638
    -0.1523  -0.1521  -0.1461  -0.1396  -0.1374  -0.1253  -0.1125  -0.1110
    -0.1109  -0.0664  -0.0639  -0.0635  -0.0564  -0.0551  -0.0461  -0.0348
    -0.0194  -0.0178  -0.0123  -0.0120  -0.0104  -0.0068  -0.0056   0.0011
     0.0038   0.0047   0.0058   0.0074   0.0080   0.0126   0.0287   0.0329
     0.0335   0.0364   0.0399   0.0438   0.0586   0.0589   0.0716   0.0749
     0.0772   0.0930   0.1141   0.1143   0.1165   0.1166   0.1184   0.1345
     0.1388   0.1410   0.1415   0.1420   0.1424   0.1674   0.1769   0.1796
     0.1955   0.2532   0.2537   0.2548   0.2663   0.2715   0.2732   0.2748
     0.2768   0.2776   0.2826   0.2828   0.2841   0.2862   0.2878   0.2886
     0.2952   0.3048   0.3067   0.3070   0.3088   0.3208   0.3210   0.3264
     0.3286   0.3334   0.3356   0.3578   0.3588   0.3616   0.3706   0.3895
     0.3959   0.4051   0.4134   0.4247   0.4251   0.4424   0.4429   0.4442
     0.4473   0.4553   0.4602   0.4771   0.4799   0.4803   0.4851   0.4855
     0.4909   0.4915   0.4958   0.4959   0.5168   0.5220   0.5238   0.5337
     0.5393   0.5442   0.5444   0.5509   0.5515   0.5521   0.5549   0.5551
     0.5741   0.5793   0.5796   0.5912   0.5925   0.5935   0.5937   0.5965
     0.6097   0.6102   0.6132   0.6177   0.6178   0.6370   0.6374   0.6524
     0.6568   0.6618   0.6637   0.6643   0.6693   0.6713   0.6736   0.6901
     0.7010   0.7049   0.7239   0.7286   0.7404   0.7406   0.7447   0.7452
     0.7498   0.7653   0.7705   0.7733   0.7741   0.7783   0.7796   0.7870
     0.7898   0.7943   0.8029   0.8043   0.8150   0.8241   0.8244   0.8250
     0.8493   0.8514   0.8555   0.8562   0.8570   0.8791   0.8805   0.8912
     0.8928   0.8930   0.8939   0.8958   0.9010   0.9036   0.9053   0.9069
     0.9222   0.9407   0.9464   0.9505   0.9542   0.9544   0.9554   0.9683
     0.9692   0.9894   0.9909   0.9917   0.9928   0.9994   1.0010   1.0015
     1.0156   1.0166   1.0182   1.0187   1.0216   1.0220   1.0226   1.0256
     1.0270   1.0311   1.0325   1.0331   1.0390   1.0422   1.0564   1.0584
     1.0608   1.0629   1.0667   1.0688   1.0689   1.0758   1.0765   1.0899
     1.0904   1.1039   1.1072   1.1077   1.1081   1.1113   1.1218   1.1290
     1.1346   1.1359   1.1376   1.1437   1.1494   1.1523   1.1556   1.1569
     1.1574   1.1740   1.1830   1.1865   1.1894   1.1916   1.1918   1.2267
     1.2281   1.2355   1.2394   1.2425   1.2449   1.2517   1.2527   1.2529
     1.2538   1.2618   1.2647   1.2693   1.2752   1.2774   1.2788   1.2791
     1.2956   1.2962   1.3004   1.3005   1.3059   1.3111   1.3118   1.3137
     1.3150   1.3158   1.3163   1.3219   1.3235   1.3243   1.3323   1.3373
     1.3446   1.3488   1.3510   1.3514   1.3554   1.3556   1.3598   1.3641
     1.3727   1.3797   1.3801   1.3812   1.4032   1.4034   1.4118   1.4164
     1.4186   1.4225   1.4225   1.4252   1.4265   1.4266   1.4334   1.4337
     1.4345   1.4400   1.4406   1.4440   1.4601   1.4626   1.4631   1.4646
     1.4654   1.4692   1.4698   1.4825   1.4830   1.4903   1.4941   1.4969
     1.5057   1.5062   1.5080   1.5131   1.5142   1.5158   1.5456   1.5524
     1.5566   1.5687   1.5815   1.6232   1.6247   1.6277   1.6377   1.6547
     1.6604   1.7448   1.7523   1.7617   1.7624   1.7818   1.7919   1.7978
     1.8366   1.9585   2.0304   2.0623   2.0686   2.0804   2.0851   2.0866
     2.1891   2.2467   2.2532   2.5609   2.5613   2.5631   2.5655   2.9750
     2.9752   3.0084   3.1928   3.1932   3.2176   3.2177   3.2642   3.2792
     3.4555   3.4670   3.5651   3.5793   3.6004   3.6289   3.6532   3.6997
     3.7055   3.7158   3.7230   3.7806   3.8687   3.8705   3.9666   3.9689
     4.0501   4.1785   4.1847   4.1892   4.2788   4.3359   4.4110   4.5499
     4.7523   4.8203   4.8259   5.0928   5.1588   5.2175   5.2182   5.2284
     5.2570   5.3564   5.4615   5.4654   5.5052   5.5467   5.5823   5.5849
     5.6569   5.6770   5.6826   5.7308   5.7333   5.8027   5.8211   5.8261
     6.0078   6.0098   6.0218   6.0414   6.4080   6.6021   6.6912   6.6955
     6.7006   6.7470   6.7591   6.7861   6.8655   6.9252   7.0141   7.0350
     7.0493   7.0514   7.0670   7.2269   7.2413   7.2934   7.3020   7.4991
     7.5060   7.5160   7.5572   7.5676   7.6776   7.7586   7.7635   7.7917
     7.9894   8.0028   8.0330   8.0616   8.0900   8.1857   8.2042   8.2167
     8.2425   8.2621   8.3123   8.3126   8.3913   8.3965   8.4374   8.4711
     8.6438   8.6448   8.9450   8.9541   8.9835   8.9870   9.0066   9.1430
     9.1690   9.1886   9.2106   9.2222   9.2292   9.2537   9.2662   9.3373
     9.3990   9.4059   9.4411   9.4426   9.4829   9.5101   9.6398   9.6778
     9.7152   9.7193   9.8240   9.8322   9.8356   9.8472   9.9399

          k = 0.2500-0.2165 0.0000 (256316 PWs)   bands (ev):

   -17.2311 -16.1787 -15.8748 -15.5405 -15.4588 -15.1910 -14.7127 -14.5646
   -14.2562 -14.1162 -13.7226 -13.2691 -13.2534 -13.1602 -12.7670 -12.6632
   -12.1506 -12.0266 -11.5130 -11.4314 -11.2842 -11.1263 -10.9627 -10.6231
    -9.8687  -9.7861  -9.3920  -9.3576  -9.1045  -9.0507  -8.6770  -8.6251
    -8.4735  -8.4250  -7.3038  -7.0284  -6.8330  -6.6738  -6.5983  -6.5024
    -6.4508  -6.3184  -6.0845  -6.0319  -5.7142  -5.7045  -5.4290  -5.2561
    -5.1759  -5.0701  -4.9354  -4.8022  -4.6786  -4.6748  -4.5439  -4.5431
    -4.4779  -4.3493  -4.3459  -4.3166  -4.1871  -4.1615  -4.1494  -4.0538
    -3.9017  -3.7732  -3.7615  -3.7383  -3.5858  -3.5620  -3.5014  -3.4596
    -3.4584  -3.4555  -3.3630  -3.2916  -3.2544  -3.1967  -3.1426  -3.1028
    -3.0304  -2.9458  -2.9407  -2.9246  -2.9110  -2.9095  -2.8641  -2.8168
    -2.6938  -2.6561  -2.6070  -2.5057  -2.3343  -2.3138  -2.3118  -2.2688
    -2.1868  -2.1810  -2.1689  -2.1688  -2.1035  -2.0693  -2.0100  -2.0094
    -1.9778  -1.9767  -1.9723  -1.9692  -1.8943  -1.8302  -1.8224  -1.8132
    -1.8130  -1.7804  -1.7607  -1.7527  -1.7341  -1.7240  -1.7207  -1.7099
    -1.7097  -1.6932  -1.6790  -1.6778  -1.6766  -1.6763  -1.6675  -1.6672
    -1.5824  -1.5823  -1.5557  -1.4691  -1.4669  -1.3780  -1.3695  -1.3667
    -1.3614  -1.3302  -1.3299  -1.2777  -1.2775  -1.2697  -1.2629  -1.2628
    -1.2497  -1.2491  -1.2414  -1.2399  -1.2253  -1.2246  -1.2132  -1.2131
    -1.2113  -1.2040  -1.2009  -1.1988  -1.1874  -1.1873  -1.1715  -1.1339
    -1.1310  -1.1271  -1.1262  -1.1214  -1.1157  -1.1144  -1.1118  -1.0935
    -1.0834  -1.0818  -1.0400  -1.0397  -1.0358  -1.0299  -1.0266  -1.0240
    -0.9966  -0.9965  -0.9738  -0.9727  -0.9623  -0.9618  -0.9609  -0.9565
    -0.9558  -0.9522  -0.9503  -0.9344  -0.9243  -0.9242  -0.9119  -0.9053
    -0.8830  -0.8683  -0.8682  -0.8627  -0.8622  -0.8251  -0.7784  -0.7783
    -0.7741  -0.7740  -0.7706  -0.7696  -0.7236  -0.7216  -0.7161  -0.7126
    -0.7122  -0.7064  -0.7061  -0.6945  -0.6941  -0.6791  -0.6531  -0.6524
    -0.6159  -0.6145  -0.5830  -0.5682  -0.5667  -0.5666  -0.5641  -0.5612
    -0.5340  -0.5335  -0.5212  -0.5206  -0.5022  -0.5009  -0.4928  -0.4895
    -0.4888  -0.4750  -0.4605  -0.4582  -0.4522  -0.4499  -0.4431  -0.4428
    -0.4123  -0.4082  -0.4081  -0.3970  -0.3937  -0.3875  -0.3817  -0.3805
    -0.3682  -0.3677  -0.3636  -0.3633  -0.3574  -0.3559  -0.3522  -0.3521
    -0.3342  -0.3340  -0.3178  -0.3177  -0.2947  -0.2892  -0.2761  -0.2742
    -0.2620  -0.2569  -0.2403  -0.2402  -0.2356  -0.2312  -0.2182  -0.2176
    -0.2133  -0.2131  -0.1913  -0.1808  -0.1592  -0.1544  -0.1531  -0.1182
    -0.1181  -0.1092  -0.1091  -0.1055  -0.1039  -0.0877  -0.0876  -0.0848
    -0.0704  -0.0700  -0.0604  -0.0566  -0.0494  -0.0480  -0.0431  -0.0427
    -0.0411  -0.0402  -0.0159  -0.0137  -0.0131  -0.0058  -0.0044  -0.0033
    -0.0026  -0.0014  -0.0009   0.0010   0.0054   0.0072   0.0250   0.0313
     0.0314   0.0315   0.0316   0.0651   0.0653   0.0734   0.0735   0.0760
     0.0768   0.0979   0.0993   0.1042   0.1182   0.1313   0.1314   0.1334
     0.1403   0.1410   0.1515   0.1517   0.1547   0.1554   0.1687   0.1688
     0.1749   0.1762   0.2044   0.2048   0.2674   0.2689   0.2809   0.2814
     0.2826   0.2830   0.2859   0.2864   0.2876   0.2888   0.2916   0.2934
     0.3135   0.3168   0.3169   0.3192   0.3201   0.3274   0.3294   0.3311
     0.3341   0.3342   0.3657   0.3668   0.3775   0.3808   0.3821   0.3944
     0.3995   0.4023   0.4143   0.4433   0.4436   0.4490   0.4508   0.4542
     0.4572   0.4573   0.4688   0.4688   0.4745   0.4782   0.4796   0.4810
     0.4813   0.4821   0.5025   0.5120   0.5138   0.5177   0.5214   0.5341
     0.5344   0.5526   0.5665   0.5669   0.5674   0.5689   0.5990   0.6007
     0.6028   0.6047   0.6071   0.6083   0.6121   0.6142   0.6247   0.6258
     0.6272   0.6282   0.6325   0.6362   0.6479   0.6482   0.6583   0.6599
     0.6678   0.6678   0.6708   0.6708   0.6780   0.6796   0.6811   0.6862
     0.6888   0.6890   0.7017   0.7051   0.7095   0.7106   0.7155   0.7163
     0.7183   0.7186   0.7205   0.7210   0.7548   0.7558   0.7667   0.7675
     0.7842   0.7870   0.8032   0.8068   0.8228   0.8231   0.8244   0.8245
     0.8299   0.8310   0.8443   0.8534   0.8536   0.8539   0.8541   0.8551
     0.8555   0.8649   0.8680   0.8773   0.8826   0.8831   0.8919   0.8947
     0.8997   0.9048   0.9242   0.9283   0.9284   0.9425   0.9506   0.9513
     0.9578   0.9595   0.9640   0.9643   0.9707   0.9709   0.9744   0.9901
     1.0001   1.0028   1.0088   1.0167   1.0179   1.0252   1.0304   1.0378
     1.0457   1.0601   1.0626   1.0650   1.0788   1.0801   1.0863   1.0866
     1.0891   1.0892   1.0906   1.0906   1.0949   1.0950   1.1045   1.1050
     1.1129   1.1154   1.1162   1.1178   1.1353   1.1366   1.1626   1.1652
     1.1660   1.1693   1.1703   1.1727   1.1741   1.1754   1.1818   1.1837
     1.1867   1.1902   1.1911   1.1919   1.1940   1.1958   1.2013   1.2019
     1.2078   1.2097   1.2171   1.2202   1.2229   1.2231   1.2241   1.2243
     1.2358   1.2367   1.2446   1.2447   1.2671   1.2691   1.2772   1.2776
     1.2805   1.2918   1.2931   1.2958   1.3032   1.3095   1.3100   1.3122
     1.3187   1.3216   1.3302   1.3307   1.3344   1.3361   1.3425   1.3450
     1.3473   1.3475   1.3562   1.3595   1.3600   1.3703   1.3780   1.3807
     1.3809   1.3811   1.3858   1.3868   1.3907   1.3917   1.3945   1.4047
     1.4048   1.4090   1.4100   1.4168   1.4200   1.4212   1.4282   1.4331
     1.4358   1.4370   1.4371   1.4420   1.4437   1.4438   1.4441   1.4479
     1.4531   1.4531   1.4779   1.4779   1.4855   1.4858   1.4951   1.5005
     1.5112   1.5190   1.5242   1.5263   1.5271   1.5492   1.5497   1.5563
     1.5567   1.5796   1.5825   1.5889   1.6143   1.6458   1.6613   1.6626
     1.7110   1.7490   1.7580   1.7626   1.7694   1.7802   1.7851   1.7857
     1.7860   1.8086   1.8348   1.8427   2.1241   2.1247   2.1560   2.1571
     2.2817   2.2861   2.5818   2.5828   2.7781   2.7828   2.7861   2.7870
     2.7975   2.8003   2.8280   2.8312   2.9802   2.9820   3.0683   3.0790
     3.5245   3.5352   3.5933   3.6038   3.6517   3.6744   3.7636   3.8350
     3.8405   3.8440   3.8637   3.9897   3.9949   4.0573   4.0854   4.1594
     4.1621   4.3253   4.3712   4.3727   4.4259   4.5433   4.5441   4.6136
     4.6615   4.6792   4.7082   4.7215   4.9174   4.9250   4.9950   5.0162
     5.0201   5.1280   5.2581   5.2773   5.3934   5.4339   5.4387   5.4497
     5.4519   5.4726   5.7495   5.7569   5.8115   5.8793   5.8882   5.9487
     5.9536   5.9694   6.5810   6.5874   6.6050   6.6151   6.7253   6.7454
     6.7934   6.8509   6.8700   7.0230   7.0255   7.0452   7.0727   7.0890
     7.0976   7.1146   7.1896   7.2114   7.2147   7.3199   7.3242   7.3287
     7.3314   7.3967   7.4360   7.4376   7.6576   7.6622   7.7574   7.7846
     7.7887   7.8637   7.9721   7.9813   8.1802   8.1906   8.2308   8.2468
     8.2654   8.3901   8.5791   8.5824   8.5945   8.6040   8.6363   8.6375
     8.7038   8.7054   8.8008   8.8144   8.8982   8.9094   8.9379   8.9430
     9.0660   9.1100   9.1327   9.1426   9.1746   9.1790   9.1921   9.2033
     9.2152   9.2627   9.2678   9.3003   9.3414   9.3518   9.4252   9.4410
     9.4460   9.4788   9.6260   9.6271   9.9540   9.9592   9.9675

          k =-0.5000 0.0000 0.0000 (256496 PWs)   bands (ev):

   -17.1702 -16.0103 -15.7422 -15.6296 -15.6094 -15.5601 -14.8134 -14.6181
   -14.5147 -14.4817 -13.2085 -12.9077 -12.7671 -12.7013 -12.4577 -12.4331
   -11.9124 -11.8915 -11.8081 -11.7999 -11.2443 -11.2063 -10.9822 -10.7501
   -10.3358 -10.3037 -10.0804  -9.7617  -9.1483  -9.1480  -8.9779  -8.9452
    -7.8181  -7.6382  -7.5875  -7.4117  -7.3676  -7.3466  -6.3091  -6.2275
    -5.8458  -5.3240  -5.3220  -5.3092  -5.1449  -5.0041  -4.9683  -4.8650
    -4.8087  -4.8038  -4.8032  -4.8023  -4.7773  -4.7635  -4.7387  -4.6926
    -4.6665  -4.5441  -4.5425  -4.4733  -4.3797  -4.3773  -4.2925  -4.0549
    -4.0163  -3.9974  -3.9670  -3.9654  -3.6913  -3.6758  -3.6031  -3.5745
    -3.5733  -3.5561  -3.4284  -3.4209  -3.4199  -3.4191  -3.4187  -3.4129
    -3.3764  -3.3644  -2.9467  -2.9352  -2.8965  -2.8548  -2.8127  -2.7871
    -2.7671  -2.7602  -2.6223  -2.6093  -2.5682  -2.4792  -2.4512  -2.4399
    -2.3070  -2.3038  -2.3029  -2.3025  -1.8797  -1.8792  -1.8790  -1.8788
    -1.8768  -1.8767  -1.8656  -1.8145  -1.7798  -1.7597  -1.7568  -1.7555
    -1.6882  -1.6518  -1.6511  -1.6504  -1.6502  -1.6026  -1.6025  -1.6018
    -1.6012  -1.5124  -1.5066  -1.4886  -1.4885  -1.4875  -1.4772  -1.4535
    -1.4332  -1.4262  -1.4256  -1.4248  -1.4070  -1.4067  -1.3576  -1.3576
    -1.3563  -1.3546  -1.3531  -1.3432  -1.3425  -1.3409  -1.3404  -1.3382
    -1.2945  -1.2925  -1.2923  -1.2911  -1.2707  -1.2686  -1.2678  -1.2676
    -1.2324  -1.2049  -1.2047  -1.1834  -1.1827  -1.1823  -1.1821  -1.1590
    -1.1562  -1.1546  -1.1528  -1.1515  -1.1511  -1.1499  -1.1087  -1.1082
    -1.1071  -1.1070  -1.0862  -1.0861  -1.0725  -1.0562  -1.0559  -1.0544
    -1.0098  -1.0097  -1.0092  -0.9815  -0.9812  -0.9799  -0.9797  -0.9553
    -0.9536  -0.9529  -0.9518  -0.9477  -0.9466  -0.9436  -0.9322  -0.9318
    -0.9294  -0.9293  -0.9043  -0.9028  -0.8894  -0.8409  -0.8406  -0.8388
    -0.8375  -0.7949  -0.7948  -0.7158  -0.7120  -0.7117  -0.7114  -0.7073
    -0.6891  -0.6806  -0.6733  -0.6732  -0.6723  -0.6722  -0.6681  -0.6617
    -0.6411  -0.6335  -0.6303  -0.6297  -0.6248  -0.6182  -0.6142  -0.6025
    -0.6008  -0.5993  -0.5732  -0.5295  -0.5198  -0.5116  -0.4842  -0.4731
    -0.4668  -0.4656  -0.4566  -0.4566  -0.4326  -0.4165  -0.4137  -0.4100
    -0.4062  -0.4061  -0.4046  -0.4045  -0.3945  -0.3817  -0.3685  -0.3684
    -0.3680  -0.3680  -0.3297  -0.3294  -0.3287  -0.3286  -0.3172  -0.2960
    -0.2958  -0.2958  -0.2952  -0.2842  -0.2842  -0.2520  -0.2513  -0.2513
    -0.2499  -0.2499  -0.2466  -0.2407  -0.2286  -0.2129  -0.2025  -0.2010
    -0.1724  -0.1365  -0.1355  -0.1353  -0.1342  -0.1291  -0.1290  -0.1280
    -0.1279  -0.0886  -0.0885  -0.0869  -0.0862  -0.0666  -0.0524  -0.0521
    -0.0261  -0.0259  -0.0239  -0.0237  -0.0223  -0.0221  -0.0213  -0.0212
    -0.0202  -0.0202  -0.0198  -0.0193   0.0548   0.0561   0.0611   0.0626
     0.0663   0.0670   0.0717   0.0720   0.0725   0.0726   0.0774   0.0775
     0.0794   0.0797   0.0833   0.0834   0.0876   0.0888   0.1019   0.1019
     0.1127   0.1160   0.1164   0.1164   0.1166   0.1167   0.1176   0.1273
     0.1276   0.1278   0.1279   0.1405   0.1407   0.1435   0.1527   0.1528
     0.1533   0.1536   0.1726   0.1821   0.1829   0.1949   0.2513   0.2660
     0.2859   0.2860   0.2874   0.2875   0.3188   0.3194   0.3199   0.3204
     0.3343   0.3344   0.3401   0.3402   0.3440   0.3447   0.3450   0.3456
     0.3491   0.3500   0.3518   0.3518   0.3521   0.3527   0.3665   0.3666
     0.3709   0.3744   0.3812   0.3830   0.3892   0.3897   0.3950   0.3952
     0.4000   0.4012   0.4342   0.4380   0.4901   0.4916   0.4917   0.4923
     0.5005   0.5010   0.5210   0.5235   0.5253   0.5263   0.5278   0.5284
     0.5300   0.5304   0.5322   0.5328   0.5348   0.5353   0.5370   0.5372
     0.5435   0.5445   0.5453   0.5458   0.5606   0.5660   0.5830   0.5832
     0.5910   0.5968   0.6058   0.6111   0.6171   0.6185   0.6212   0.6218
     0.6300   0.6303   0.6310   0.6312   0.6332   0.6337   0.6464   0.6473
     0.6511   0.6516   0.6670   0.6679   0.6685   0.6688   0.7055   0.7058
     0.7064   0.7065   0.7071   0.7071   0.7246   0.7254   0.7518   0.7570
     0.7648   0.7662   0.7673   0.7673   0.7678   0.7679   0.7878   0.8071
     0.8345   0.8348   0.8381   0.8390   0.8397   0.8401   0.8439   0.8450
     0.8497   0.8522   0.8526   0.8531   0.8625   0.8647   0.8845   0.8847
     0.8862   0.8864   0.8867   0.8955   0.9054   0.9055   0.9061   0.9062
     0.9073   0.9077   0.9434   0.9452   0.9455   0.9457   0.9650   0.9908
     1.0119   1.0120   1.0121   1.0126   1.0400   1.0458   1.0461   1.0462
     1.0477   1.0487   1.0648   1.0657   1.0756   1.0764   1.0783   1.0849
     1.0880   1.0888   1.1091   1.1104   1.1152   1.1155   1.1158   1.1164
     1.1232   1.1237   1.1248   1.1250   1.1346   1.1346   1.1357   1.1363
     1.1372   1.1375   1.1380   1.1382   1.1724   1.1740   1.1754   1.1754
     1.1888   1.1986   1.2052   1.2070   1.2101   1.2111   1.2114   1.2120
     1.2290   1.2301   1.2329   1.2401   1.2404   1.2407   1.2417   1.2502
     1.2510   1.2513   1.2514   1.2565   1.2620   1.2643   1.2691   1.2743
     1.2981   1.2984   1.3111   1.3135   1.3139   1.3141   1.3144   1.3145
     1.3145   1.3145   1.3248   1.3267   1.3279   1.3280   1.3284   1.3285
     1.3306   1.3309   1.3358   1.3365   1.3410   1.3412   1.3416   1.3419
     1.3489   1.3490   1.3638   1.3639   1.3792   1.3821   1.3829   1.3831
     1.3909   1.3911   1.3926   1.3928   1.4061   1.4092   1.4129   1.4130
     1.4278   1.4288   1.4323   1.4347   1.4384   1.4473   1.4475   1.4475
     1.4484   1.4656   1.4680   1.4683   1.4693   1.4707   1.4782   1.4784
     1.4786   1.4787   1.4833   1.4875   1.4982   1.4982   1.5111   1.5123
     1.5123   1.5127   1.5128   1.5245   1.5257   1.5258   1.5760   1.5762
     1.5943   1.6058   1.6059   1.6102   1.6103   1.6197   2.0239   2.0274
     2.0284   2.0293   2.2310   2.2326   2.2468   2.2505   2.2830   2.2833
     2.2900   2.2906   2.6038   2.6124   2.6159   2.6173   2.8249   2.8272
     2.8327   2.8343   3.1821   3.1826   3.1851   3.1859   3.4647   3.4676
     3.7306   3.7505   3.7525   3.7542   3.8443   3.9165   3.9208   3.9225
     3.9555   4.0656   4.0705   4.0718   4.0789   4.1772   4.1842   4.3868
     4.4000   4.4823   4.7256   4.7401   4.7480   4.7511   4.8089   4.8230
     4.8235   4.8524   4.9287   5.0187   5.0197   5.0342   5.0400   5.0437
     5.0466   5.0513   5.0702   5.0714   5.0960   5.1045   5.1525   5.1621
     5.4820   5.5119   5.5323   5.5363   5.6416   5.6591   5.7558   5.8271
     5.9859   5.9896   5.9953   5.9999   6.0249   6.0326   6.0386   6.0424
     6.1872   6.3909   6.4293   6.4315   6.4327   6.4380   6.4503   6.4748
     7.0809   7.0907   7.1048   7.1059   7.1201   7.1214   7.5672   7.5799
     7.5955   7.5984   7.5990   7.5992   7.6199   7.6258   7.8100   7.8152
     7.8758   7.8808   7.8845   7.8859   8.0354   8.0484   8.0512   8.0545
     8.1139   8.1208   8.1278   8.1307   8.1586   8.1955   8.6442   8.6893
     8.6915   8.7059   8.8254   8.8264   8.8303   8.8310   8.9662   8.9863
     8.9909   9.0637   9.0664   9.0679   9.0827   9.2584   9.2606   9.3734
     9.4236   9.4455   9.4918   9.4947   9.4947   9.4954   9.5068   9.5114
     9.5161   9.5178   9.5300   9.5331   9.8243   9.8315  10.0193

          k =-0.5000-0.2165 0.0000 (256328 PWs)   bands (ev):

   -17.1701 -15.9786 -15.8205 -15.7956 -15.3896 -15.2199 -15.1509 -15.1148
   -14.0576 -13.8411 -13.7098 -13.6735 -12.6829 -12.4579 -12.0021 -11.9972
   -11.9226 -11.7758 -11.6721 -11.5891 -11.5437 -11.5325 -11.4238 -11.4054
   -10.0447 -10.0384  -9.7700  -9.7239  -9.2273  -8.9138  -8.7979  -8.7596
    -8.2693  -8.2320  -8.0222  -8.0002  -6.5358  -6.3446  -6.1230  -5.9495
    -5.8398  -5.6266  -5.3889  -5.3152  -5.3068  -5.2195  -5.2144  -5.1818
    -5.1799  -5.1797  -5.0190  -5.0051  -4.9557  -4.5122  -4.3888  -4.3513
    -4.3267  -4.3205  -4.2642  -4.2149  -4.2020  -4.1985  -4.1980  -4.1976
    -4.0822  -4.0762  -3.9157  -3.8776  -3.8650  -3.8586  -3.7555  -3.7462
    -3.7039  -3.6903  -3.6011  -3.5930  -3.5859  -3.4875  -3.4666  -3.4568
    -3.1734  -3.0872  -3.0725  -3.0622  -2.6371  -2.5823  -2.5814  -2.5793
    -2.5790  -2.5787  -2.5449  -2.5290  -2.5238  -2.5233  -2.4098  -2.3534
    -2.1642  -2.1533  -2.1099  -2.1008  -2.0967  -2.0960  -2.0531  -2.0500
    -2.0218  -2.0185  -2.0169  -2.0111  -1.9379  -1.8032  -1.8031  -1.8020
    -1.8020  -1.7717  -1.7394  -1.7282  -1.5681  -1.5241  -1.5093  -1.5023
    -1.4936  -1.4936  -1.4935  -1.4935  -1.4596  -1.4565  -1.4541  -1.4540
    -1.4338  -1.4336  -1.4334  -1.4334  -1.3844  -1.3843  -1.3841  -1.3838
    -1.3825  -1.3823  -1.3818  -1.3816  -1.3587  -1.3587  -1.3585  -1.3585
    -1.3093  -1.3086  -1.3075  -1.3075  -1.3038  -1.2387  -1.2336  -1.2332
    -1.2324  -1.1912  -1.1911  -1.1909  -1.1909  -1.1742  -1.1713  -1.1711
    -1.1708  -1.1284  -1.1221  -1.1220  -1.1217  -1.1174  -1.1158  -1.1158
    -1.1157  -1.1115  -1.0964  -1.0926  -1.0905  -1.0879  -1.0574  -1.0573
    -1.0570  -1.0569  -1.0411  -1.0404  -1.0402  -1.0402  -1.0378  -1.0373
    -1.0372  -1.0369  -1.0369  -1.0152  -0.8827  -0.8826  -0.8821  -0.8820
    -0.8535  -0.8530  -0.8527  -0.8527  -0.8035  -0.7712  -0.7703  -0.7701
    -0.7696  -0.7692  -0.7684  -0.7668  -0.7628  -0.7623  -0.7616  -0.7614
    -0.7042  -0.7005  -0.7004  -0.7000  -0.6937  -0.6891  -0.6885  -0.6881
    -0.6747  -0.6679  -0.6673  -0.6671  -0.6424  -0.5836  -0.5714  -0.5711
    -0.5684  -0.5673  -0.5670  -0.5664  -0.5099  -0.4986  -0.4982  -0.4980
    -0.4960  -0.4496  -0.4489  -0.4487  -0.4460  -0.4285  -0.4284  -0.4275
    -0.4275  -0.4102  -0.4002  -0.3999  -0.3895  -0.3894  -0.3885  -0.3885
    -0.3754  -0.3517  -0.3481  -0.3475  -0.3355  -0.2739  -0.2739  -0.2732
    -0.2731  -0.2578  -0.2578  -0.2572  -0.2572  -0.2416  -0.2407  -0.2403
    -0.2391  -0.1600  -0.1593  -0.1584  -0.1577  -0.1536  -0.1535  -0.1531
    -0.1530  -0.1519  -0.1495  -0.1495  -0.1470  -0.1128  -0.1128  -0.1126
    -0.1126  -0.1007  -0.1002  -0.0997  -0.0993  -0.0964  -0.0961  -0.0959
    -0.0957  -0.0690  -0.0270  -0.0268  -0.0262  -0.0259  -0.0005  -0.0001
     0.0017   0.0024   0.0484   0.0490   0.0537   0.0549   0.0607   0.0651
     0.0791   0.0796   0.0801   0.0803   0.0854   0.0862   0.0879   0.0885
     0.0893   0.0900   0.0930   0.0937   0.1000   0.1002   0.1008   0.1009
     0.1061   0.1062   0.1063   0.1064   0.1191   0.1226   0.1228   0.1230
     0.1367   0.1508   0.1508   0.1509   0.1510   0.1601   0.1611   0.1614
     0.1636   0.2095   0.2104   0.2109   0.2111   0.2338   0.2432   0.2436
     0.2443   0.2516   0.2738   0.3106   0.3139   0.3192   0.3261   0.3270
     0.3284   0.3292   0.3358   0.3410   0.3443   0.3450   0.3454   0.3466
     0.3552   0.3608   0.3609   0.3613   0.3615   0.3640   0.3683   0.3686
     0.3690   0.3695   0.3711   0.3726   0.3787   0.3859   0.3978   0.4008
     0.4468   0.4482   0.4502   0.4521   0.4572   0.4575   0.4579   0.4583
     0.4689   0.4691   0.4692   0.4695   0.5059   0.5068   0.5078   0.5085
     0.5097   0.5098   0.5103   0.5108   0.5422   0.5534   0.5537   0.5541
     0.5542   0.5582   0.5660   0.5671   0.5678   0.5680   0.5682   0.5699
     0.5759   0.5762   0.5765   0.5765   0.5879   0.5890   0.5916   0.5918
     0.6022   0.6059   0.6076   0.6092   0.6633   0.6761   0.6762   0.6788
     0.6789   0.6828   0.6829   0.6829   0.6832   0.6863   0.6900   0.6907
     0.6930   0.6971   0.7072   0.7104   0.7280   0.7282   0.7290   0.7291
     0.7302   0.7306   0.7318   0.7320   0.7708   0.7783   0.7830   0.7832
     0.8007   0.8100   0.8113   0.8116   0.8118   0.8145   0.8287   0.8329
     0.8474   0.8475   0.8481   0.8482   0.8688   0.8705   0.8725   0.8728
     0.9251   0.9251   0.9257   0.9258   0.9573   0.9577   0.9595   0.9597
     1.0023   1.0107   1.0121   1.0129   1.0157   1.0207   1.0256   1.0267
     1.0351   1.0372   1.0378   1.0385   1.0402   1.0439   1.0440   1.0442
     1.0444   1.0466   1.0471   1.0481   1.0482   1.0484   1.0697   1.0735
     1.0756   1.0759   1.0768   1.0778   1.0781   1.0792   1.0797   1.0812
     1.0922   1.0938   1.0958   1.0967   1.1177   1.1192   1.1217   1.1220
     1.1251   1.1267   1.1319   1.1327   1.1406   1.1409   1.1414   1.1423
     1.1878   1.1898   1.1937   1.1938   1.1946   1.1952   1.1955   1.1969
     1.2199   1.2207   1.2209   1.2211   1.2298   1.2352   1.2364   1.2389
     1.2397   1.2438   1.2555   1.2560   1.2698   1.2700   1.2703   1.2704
     1.2783   1.2786   1.2798   1.2801   1.2850   1.2854   1.2860   1.2861
     1.3442   1.3520   1.3521   1.3526   1.3529   1.3536   1.3537   1.3543
     1.3543   1.3583   1.3620   1.3635   1.3662   1.3702   1.3711   1.3717
     1.3741   1.3772   1.3808   1.3809   1.3838   1.3852   1.3859   1.3869
     1.3925   1.3932   1.3938   1.3940   1.3979   1.4016   1.4032   1.4043
     1.4141   1.4145   1.4147   1.4151   1.4472   1.4476   1.4477   1.4478
     1.4601   1.4614   1.4629   1.4631   1.4738   1.4761   1.4784   1.4786
     1.4966   1.4992   1.4998   1.5003   1.5363   1.5473   1.5491   1.5520
     1.5722   1.5722   1.5728   1.5729   1.6008   1.6019   1.6031   1.6035
     1.6062   1.6078   1.6084   1.6091   1.6144   1.6148   1.6153   1.6154
     1.8317   1.8332   1.8334   1.8343   2.3281   2.3361   2.3420   2.3426
     2.5544   2.5561   2.5588   2.5589   2.7861   2.7911   2.7926   2.7933
     3.0782   3.0862   3.0873   3.0886   3.4491   3.4516   3.4518   3.4521
     3.6301   3.6373   3.6406   3.6410   3.9036   3.9270   3.9276   3.9277
     3.9991   4.2239   4.2246   4.2260   4.2319   4.3116   4.3253   4.3358
     4.3378   4.5090   4.5515   4.5555   4.5582   4.5637   4.5901   4.5958
     4.6416   4.7922   4.8513   4.8858   4.9012   5.0064   5.0388   5.0690
     5.1631   5.1656   5.1716   5.1728   5.2245   5.2370   5.2990   5.3040
     5.3259   5.3333   5.3462   5.3496   5.5055   5.5951   5.7300   5.7336
     5.7449   5.7460   5.7481   5.7493   5.8404   5.8610   5.8864   5.8874
     6.7813   6.7827   6.7835   6.7839   7.0989   7.1140   7.1180   7.1223
     7.1420   7.1498   7.1508   7.1524   7.2498   7.2675   7.2685   7.2730
     7.3598   7.3652   7.3660   7.3663   7.5168   7.6022   7.6075   7.6090
     7.6638   7.8950   7.9498   7.9567   7.9712   7.9837   7.9890   8.0026
     8.2196   8.2371   8.2391   8.2424   8.2452   8.2832   8.3589   8.3642
     8.8873   8.8888   8.8900   8.8910   8.9207   8.9223   8.9233   8.9245
     8.9624   8.9638   8.9650   8.9660   9.1059   9.1101   9.1180   9.1184
     9.3036   9.3240   9.3377   9.3440   9.5128   9.5224   9.5388   9.5435
     9.5615   9.5657   9.5712   9.5723   9.9261   9.9378   9.9668

     the Fermi energy is     3.3207 ev

!    total energy              =  -12707.14301122 Ry
     Harris-Foulkes estimate   =  -12707.14301127 Ry
     estimated scf accuracy    <          5.7E-09 Ry

     The total energy is the sum of the following terms:

     one-electron contribution = -109279.35560797 Ry
     hartree contribution      =   56001.08367128 Ry
     xc contribution           =   -4447.77485955 Ry
     ewald contribution        =   45025.24639857 Ry
     Dispersion Correction     =      -2.98730884 Ry
     smearing contrib. (-TS)   =      -3.35530470 Ry

     convergence has been achieved in  47 iterations

     Writing output data file gc.save
 
     init_run     :     97.44s CPU    104.92s WALL (       1 calls)
     electrons    :  12199.96s CPU  13046.37s WALL (       1 calls)

     Called by init_run:
     wfcinit      :     95.24s CPU    102.13s WALL (       1 calls)
     potinit      :      0.34s CPU      0.39s WALL (       1 calls)

     Called by electrons:
     c_bands      :  11146.90s CPU  11890.40s WALL (      47 calls)
     sum_band     :    858.47s CPU    930.68s WALL (      47 calls)
     v_of_rho     :      3.05s CPU      3.66s WALL (      48 calls)
     newd         :      7.62s CPU     14.01s WALL (      48 calls)
     mix_rho      :    183.77s CPU    207.53s WALL (      47 calls)

     Called by c_bands:
     init_us_2    :     37.90s CPU     39.00s WALL (     570 calls)
     cegterg      :  10979.40s CPU  11712.41s WALL (     288 calls)

     Called by sum_band:
     sum_band:bec :      4.88s CPU      5.53s WALL (     282 calls)
     addusdens    :      7.99s CPU     13.95s WALL (      47 calls)

     Called by *egterg:
     h_psi        :   4145.42s CPU   4466.53s WALL (    1804 calls)
     s_psi        :    990.39s CPU   1002.66s WALL (    1804 calls)
     g_psi        :     10.50s CPU     10.54s WALL (    1510 calls)
     cdiaghg      :   2898.82s CPU   3015.43s WALL (    1792 calls)

     Called by h_psi:
     add_vuspsi   :    994.71s CPU   1009.27s WALL (    1804 calls)

     General routines
     calbec       :   1441.99s CPU   1453.59s WALL (    2086 calls)
     fft          :      3.21s CPU      4.02s WALL (     623 calls)
     ffts         :    107.31s CPU    121.19s WALL (   28712 calls)
     fftw         :   2397.30s CPU   2651.94s WALL ( 1348596 calls)
     davcio       :      0.21s CPU      4.00s WALL (       6 calls)
 
     Parallel routines
     fft_scatter  :   1534.95s CPU   1671.46s WALL ( 1377931 calls)
 
     PWSCF        :     3h25m CPU        3h39m WALL

 
   This run was terminated on:   0:40: 0   8Sep2017            

=------------------------------------------------------------------------------=
   JOB DONE.
=------------------------------------------------------------------------------=
