
     Program PWSCF v.5.4.0 starts on 26Apr2017 at 21:33:50 

     This program is part of the open-source Quantum ESPRESSO suite
     for quantum simulation of materials; please cite
         "P. Giannozzi et al., J. Phys.:Condens. Matter 21 395502 (2009);
          URL http://www.quantum-espresso.org", 
     in publications or presentations arising from this work. More details at
     http://www.quantum-espresso.org/quote

     Parallel version (MPI & OpenMP), running on      56 processor cores
     Number of MPI processes:                56
     Threads/MPI process:                     1
     R & G space division:  proc/nbgrp/npool/nimage =      56
     Waiting for input...
     Reading input from standard input
Warning: card &IONS ignored
Warning: card / ignored

     Current dimensions of program PWSCF are:
     Max number of different atomic species (ntypx) = 10
     Max number of k-points (npk) =  40000
     Max angular momentum in pseudopotentials (lmaxx) =  3

     -------------------------------------
     Parameters for Dispersion Correction:
     -------------------------------------
       atom      VdW radius       C_6     

        Cu         2.952        374.666
        C_h        2.744         60.710
        C          2.744         60.710

     Subspace diagonalization in iterative solution of the eigenvalue problem:
     one sub-group per band group will be used
     scalapack distributed-memory algorithm (size of sub-group:  5*  5 procs)

 
     Parallelization info
     --------------------
     sticks:   dense  smooth     PW     G-vecs:    dense   smooth      PW
     Min         204     204     54                36612    36612    4962
     Max         205     205     55                36617    36617    4968
     Sum       11433   11433   3039              2050409  2050409  278033
 


     bravais-lattice index     =            0
     lattice parameter (alat)  =      13.9425  a.u.
     unit-cell volume          =   21209.0878 (a.u.)^3
     number of atoms/cell      =          149
     number of atomic types    =            3
     number of electrons       =      1296.00
     number of Kohn-Sham states=          778
     kinetic-energy cutoff     =      80.0000  Ry
     charge density cutoff     =     320.0000  Ry
     convergence threshold     =      1.0E-08
     mixing beta               =       0.7000
     number of iterations used =            8  local-TF  mixing
     Exchange-correlation      =  SLA  PW   PBX  PBC ( 1  4  3  4 0 0)

     celldm(1)=  13.942539  celldm(2)=   0.000000  celldm(3)=   0.000000
     celldm(4)=   0.000000  celldm(5)=   0.000000  celldm(6)=   0.000000

     crystal axes: (cart. coord. in units of alat)
               a(1) = (   1.000000   0.000000   0.000000 )  
               a(2) = (   0.000000   2.309401   0.000000 )  
               a(3) = (   0.000000   0.000000   3.388418 )  

     reciprocal axes: (cart. coord. in units 2 pi/alat)
               b(1) = (  1.000000  0.000000  0.000000 )  
               b(2) = (  0.000000  0.433013  0.000000 )  
               b(3) = (  0.000000  0.000000  0.295123 )  


     PseudoPot. # 1 for Cu read from file:
     /home/549/hxw549/Short/pseudopotentials/Cu.pbe-n-van_ak.UPF
     MD5 check sum: 601f7c30f7467666bec936e0661ce3e1
     Pseudo is Ultrasoft + core correction, Zval = 11.0
     Generated by new atomic code, or converted to UPF format
     Using radial grid of  867 points,  6 beta functions with: 
                l(1) =   0
                l(2) =   0
                l(3) =   1
                l(4) =   1
                l(5) =   2
                l(6) =   2
     Q(r) pseudized with  8 coefficients,  rinner =    1.400   1.400   1.400
                                                       1.400   1.400

     PseudoPot. # 2 for C  read from file:
     /home/549/hxw549/Short/pseudopotentials/C.star1s-pbe-mt_gipaw.UPF
     MD5 check sum: ef0cb3dee31bd9e4ba2a832a2c716264
     Pseudo is Norm-conserving, Zval =  5.0
     Generated by new atomic code, or converted to UPF format
     Using radial grid of 1073 points,  1 beta functions with: 
                l(1) =   0

     PseudoPot. # 3 for C  read from file:
     /home/549/hxw549/Short/pseudopotentials/C.pbe-mt_gipaw.UPF
     MD5 check sum: 5ac2f21f2c440b14befe521540822c15
     Pseudo is Norm-conserving, Zval =  4.0
     Generated by new atomic code, or converted to UPF format
     Using radial grid of 1073 points,  1 beta functions with: 
                l(1) =   0

     atomic species   valence    mass     pseudopotential
        Cu            11.00    63.54600     Cu( 1.00)
        C_h            5.00    12.01070     C ( 1.00)
        C              4.00    12.01070     C ( 1.00)

     No symmetry found



   Cartesian axes

     site n.     atom                  positions (alat units)
         1           Cu  tau(   1) = (   0.0110438  -0.0114414   0.9956708  )
         2           Cu  tau(   2) = (   0.2614250   0.2200117   0.9954928  )
         3           Cu  tau(   3) = (   0.5115391  -0.0113269   0.9958217  )
         4           Cu  tau(   4) = (   0.7613891   0.2207663   0.9964136  )
         5           Cu  tau(   5) = (   0.0113943   0.4524409   0.9959458  )
         6           Cu  tau(   6) = (   0.2616259   0.6849598   0.9956623  )
         7           Cu  tau(   7) = (   0.5116233   0.4522664   0.9960070  )
         8           Cu  tau(   8) = (   0.7615468   0.6852408   0.9952534  )
         9           Cu  tau(   9) = (   0.0117907   0.9178219   0.9948203  )
        10           Cu  tau(  10) = (   0.2614792   1.1492807   0.9953844  )
        11           Cu  tau(  11) = (   0.5111147   0.9177905   0.9949121  )
        12           Cu  tau(  12) = (   0.7612765   1.1496612   0.9950202  )
        13           Cu  tau(  13) = (   0.0114254   1.3794539   0.9962709  )
        14           Cu  tau(  14) = (   0.2611847   1.6090776   0.9959988  )
        15           Cu  tau(  15) = (   0.5111112   1.3796813   0.9962249  )
        16           Cu  tau(  16) = (   0.7613800   1.6080727   0.9975318  )
        17           Cu  tau(  17) = (   0.0110525   1.8373497   0.9965526  )
        18           Cu  tau(  18) = (   0.2611022   2.0668146   0.9957100  )
        19           Cu  tau(  19) = (   0.5115353   1.8374206   0.9969094  )
        20           Cu  tau(  20) = (   0.7612623   2.0673174   0.9965234  )
        21           Cu  tau(  21) = (   0.0115865   0.2202931   1.2432999  )
        22           Cu  tau(  22) = (   0.2615067  -0.0113668   1.2436810  )
        23           Cu  tau(  23) = (   0.5121153   0.2200524   1.2432997  )
        24           Cu  tau(  24) = (   0.7615741  -0.0112684   1.2444258  )
        25           Cu  tau(  25) = (   0.0120879   0.6858149   1.2420612  )
        26           Cu  tau(  26) = (   0.2622035   0.4521150   1.2414827  )
        27           Cu  tau(  27) = (   0.5126220   0.6861224   1.2423676  )
        28           Cu  tau(  28) = (   0.7623117   0.4531408   1.2429278  )
        29           Cu  tau(  29) = (   0.0120951   1.1485183   1.2441321  )
        30           Cu  tau(  30) = (   0.2624932   0.9175385   1.2431955  )
        31           Cu  tau(  31) = (   0.5125517   1.1484323   1.2441895  )
        32           Cu  tau(  32) = (   0.7623301   0.9177824   1.2425979  )
        33           Cu  tau(  33) = (   0.0115999   1.6080459   1.2472319  )
        34           Cu  tau(  34) = (   0.2621348   1.3794321   1.2445920  )
        35           Cu  tau(  35) = (   0.5121119   1.6081595   1.2471170  )
        36           Cu  tau(  36) = (   0.7623837   1.3782062   1.2467795  )
        37           Cu  tau(  37) = (   0.0116806   2.0671470   1.2450539  )
        38           Cu  tau(  38) = (   0.2614328   1.8372499   1.2469863  )
        39           Cu  tau(  39) = (   0.5111922   2.0673891   1.2450768  )
        40           Cu  tau(  40) = (   0.7614783   1.8374249   1.2466590  )
        41           Cu  tau(  41) = (   0.0128307  -0.0113442   1.4927939  )
        42           Cu  tau(  42) = (   0.2627512   0.2210169   1.4909223  )
        43           Cu  tau(  43) = (   0.5122958  -0.0110577   1.4931574  )
        44           Cu  tau(  44) = (   0.7631788   0.2207633   1.4920526  )
        45           Cu  tau(  45) = (   0.0124689   0.4535341   1.4903636  )
        46           Cu  tau(  46) = (   0.2635812   0.6826929   1.4881866  )
        47           Cu  tau(  47) = (   0.5140215   0.4526925   1.4895506  )
        48           Cu  tau(  48) = (   0.7640315   0.6855347   1.4916045  )
        49           Cu  tau(  49) = (   0.0126120   0.9168690   1.4920031  )
        50           Cu  tau(  50) = (   0.2638222   1.1502126   1.4921598  )
        51           Cu  tau(  51) = (   0.5157245   0.9171270   1.4923349  )
        52           Cu  tau(  52) = (   0.7644218   1.1466844   1.4959148  )
        53           Cu  tau(  53) = (   0.0130865   1.3767647   1.4974788  )
        54           Cu  tau(  54) = (   0.2628014   1.6062265   1.4983366  )
        55           Cu  tau(  55) = (   0.5142526   1.3775647   1.4966766  )
        56           Cu  tau(  56) = (   0.7633736   1.6077250   1.4987595  )
        57           Cu  tau(  57) = (   0.0129415   1.8379035   1.4973478  )
        58           Cu  tau(  58) = (   0.2624971   2.0681420   1.4960341  )
        59           Cu  tau(  59) = (   0.5119507   1.8377261   1.4973559  )
        60           Cu  tau(  60) = (   0.7624206   2.0676490   1.4954378  )
        61           Cu  tau(  61) = (   0.0134450   0.2209352   1.7379697  )
        62           Cu  tau(  62) = (   0.2640583  -0.0083505   1.7427661  )
        63           Cu  tau(  63) = (   0.5142676   0.2217331   1.7387418  )
        64           Cu  tau(  64) = (   0.7635517  -0.0104522   1.7421749  )
        65           Cu  tau(  65) = (   0.0159796   0.6853904   1.7410080  )
        66           Cu  tau(  66) = (   0.2642682   0.4535023   1.7381376  )
        67           Cu  tau(  67) = (   0.5152794   0.6836224   1.7373122  )
        68           Cu  tau(  68) = (   0.7646843   0.4535537   1.7400127  )
        69           Cu  tau(  69) = (   0.0167247   1.1436236   1.7482164  )
        70           Cu  tau(  70) = (   0.2651031   0.9155579   1.7275724  )
        71           Cu  tau(  71) = (   0.5159326   1.1455380   1.7441761  )
        72           Cu  tau(  72) = (   0.7683541   0.9148126   1.7485706  )
        73           Cu  tau(  73) = (   0.0142639   1.6068766   1.7476196  )
        74           Cu  tau(  74) = (   0.2648584   1.3737826   1.7494837  )
        75           Cu  tau(  75) = (   0.5145170   1.6062944   1.7471497  )
        76           Cu  tau(  76) = (   0.7657115   1.3751659   1.7486079  )
        77           Cu  tau(  77) = (   0.0143418   2.0693287   1.7461899  )
        78           Cu  tau(  78) = (   0.2638754   1.8370321   1.7475232  )
        79           Cu  tau(  79) = (   0.5132425   2.0692373   1.7461080  )
        80           Cu  tau(  80) = (   0.7638619   1.8389410   1.7479219  )
        81           Cu  tau(  81) = (   0.0168958  -0.0053088   1.9879892  )
        82           Cu  tau(  82) = (   0.2657347   0.2263952   1.9859210  )
        83           Cu  tau(  83) = (   0.5118431  -0.0064075   1.9891185  )
        84           Cu  tau(  84) = (   0.7635667   0.2199764   1.9856613  )
        85           Cu  tau(  85) = (   0.0130974   0.4491110   1.9840499  )
        86           Cu  tau(  86) = (   0.2677388   0.6743016   1.9863443  )
        87           Cu  tau(  87) = (   0.5186636   0.4516565   1.9846776  )
        88           Cu  tau(  88) = (   0.7693270   0.6831601   1.9896207  )
        89           Cu  tau(  89) = (   0.0274231   0.9115854   2.0043395  )
        90           Cu  tau(  90) = (   0.2704243   1.1488631   2.0007915  )
        91           Cu  tau(  91) = (   0.5182627   0.9110942   1.9887177  )
        92           Cu  tau(  92) = (   0.7690708   1.1416007   1.9955897  )
        93           Cu  tau(  93) = (   0.0140537   1.3757942   1.9956399  )
        94           Cu  tau(  94) = (   0.2647042   1.6046237   1.9941680  )
        95           Cu  tau(  95) = (   0.5196994   1.3767956   1.9946082  )
        96           Cu  tau(  96) = (   0.7660924   1.6081435   1.9948951  )
        97           Cu  tau(  97) = (   0.0148999   1.8387651   1.9938407  )
        98           Cu  tau(  98) = (   0.2645305   2.0700384   1.9912808  )
        99           Cu  tau(  99) = (   0.5145875   1.8375178   1.9926260  )
       100           Cu  tau( 100) = (   0.7647940   2.0725016   1.9924674  )
       101           C   tau( 101) = (  -0.0251872   0.1151002   2.3847464  )
       102           C   tau( 102) = (  -0.0253734   0.3076615   2.3848541  )
       103           C   tau( 103) = (   0.1415161   0.0187037   2.3836317  )
       104           C   tau( 104) = (   0.1412840   0.4036702   2.3835015  )
       105           C   tau( 105) = (   0.3080420   0.1147424   2.3796059  )
       106           C   tau( 106) = (   0.3078839   0.3074059   2.3787516  )
       107           C   tau( 107) = (   0.4750024   0.0187577   2.3785528  )
       108           C   tau( 108) = (   0.4745346   0.4037861   2.3786007  )
       109           C   tau( 109) = (   0.6418476   0.1151567   2.3815264  )
       110           C   tau( 110) = (   0.6415739   0.3077287   2.3816382  )
       111           C   tau( 111) = (   0.8083298   0.0189081   2.3846765  )
       112           C   tau( 112) = (   0.8080686   0.4038635   2.3834607  )
       113           C   tau( 113) = (  -0.0258838   0.6927930   2.3877506  )
       114           C   tau( 114) = (  -0.0265292   0.8858155   2.4001940  )
       115           C   tau( 115) = (   0.1415205   0.5964469   2.3839271  )
       116           C   tau( 116) = (   0.1374721   0.9830981   2.3980172  )
       117           C   tau( 117) = (   0.3071235   0.6906498   2.3737503  )
       118           C_h tau( 118) = (   0.3040917   0.8889408   2.3365195  )
       119           C   tau( 119) = (   0.4733060   0.5967538   2.3774762  )
       120           C   tau( 120) = (   0.4758280   0.9832966   2.3838909  )
       121           C   tau( 121) = (   0.2828792   0.9073881   2.1186454  )
       122           C   tau( 122) = (   0.6408219   0.6930252   2.3798236  )
       123           C   tau( 123) = (   0.6397531   0.8863128   2.3897899  )
       124           C   tau( 124) = (   0.8076329   0.5970442   2.3829098  )
       125           C   tau( 125) = (   0.8065552   0.9816504   2.4042410  )
       126           C   tau( 126) = (  -0.0259380   1.2702329   2.4086560  )
       127           C   tau( 127) = (  -0.0253727   1.4625193   2.4030912  )
       128           C   tau( 128) = (   0.1399779   1.1734188   2.4072885  )
       129           C   tau( 129) = (   0.1414867   1.5585632   2.3987663  )
       130           C   tau( 130) = (   0.3074922   1.2698072   2.4008826  )
       131           C   tau( 131) = (   0.3079543   1.4616740   2.4001619  )
       132           C   tau( 132) = (   0.4746346   1.1732204   2.3987652  )
       133           C   tau( 133) = (   0.4746263   1.5583819   2.3985875  )
       134           C   tau( 134) = (   0.6408832   1.2700059   2.4047221  )
       135           C   tau( 135) = (   0.6410698   1.4623589   2.4027948  )
       136           C   tau( 136) = (   0.8073121   1.1738588   2.4065839  )
       137           C   tau( 137) = (   0.8078605   1.5585484   2.3993779  )
       138           C   tau( 138) = (  -0.0250717   1.8470642   2.3892338  )
       139           C   tau( 139) = (  -0.0250497   2.0395138   2.3882491  )
       140           C   tau( 140) = (   0.1418006   1.7508188   2.3921320  )
       141           C   tau( 141) = (   0.1414553   2.1356069   2.3853820  )
       142           C   tau( 142) = (   0.3083032   1.8470723   2.3891948  )
       143           C   tau( 143) = (   0.3083495   2.0394329   2.3832890  )
       144           C   tau( 144) = (   0.4747878   1.7506911   2.3925533  )
       145           C   tau( 145) = (   0.4750346   2.1356518   2.3814166  )
       146           C   tau( 146) = (   0.6415100   1.8470504   2.3898298  )
       147           C   tau( 147) = (   0.6415905   2.0395151   2.3848099  )
       148           C   tau( 148) = (   0.8080191   1.7508884   2.3921879  )
       149           C   tau( 149) = (   0.8083768   2.1358230   2.3856020  )

     number of k points=     6  gaussian smearing, width (Ry)=  0.1000
                       cart. coord. in units 2pi/alat
        k(    1) = (   0.0000000   0.0000000   0.0000000), wk =   0.2500000
        k(    2) = (   0.0000000  -0.2165064   0.0000000), wk =   0.2500000
        k(    3) = (   0.2500000   0.0000000   0.0000000), wk =   0.5000000
        k(    4) = (   0.2500000  -0.2165064   0.0000000), wk =   0.5000000
        k(    5) = (  -0.5000000   0.0000000   0.0000000), wk =   0.2500000
        k(    6) = (  -0.5000000  -0.2165064   0.0000000), wk =   0.2500000

     Dense  grid:  2050409 G-vectors     FFT dimensions: (  80, 192, 270)

     Largest allocated arrays     est. size (Mb)     dimensions
        Kohn-Sham Wavefunctions        54.66 Mb     (    4604,  778)
        NL pseudopotentials           129.89 Mb     (    4604, 1849)
        Each V/rho on FFT grid          1.17 Mb     (   76800)
        Each G-vector array             0.28 Mb     (   36616)
        G-vector shells                 0.14 Mb     (   17932)
     Largest temporary arrays     est. size (Mb)     dimensions
        Auxiliary wavefunctions       218.62 Mb     (    4604, 3112)
        Each subspace H/S matrix        5.90 Mb     (     622,  622)
        Each <psi_i|beta_j> matrix     21.95 Mb     (    1849,  778)
        Arrays for rho mixing           9.38 Mb     (   76800,    8)

     Initial potential from superposition of free atoms
     Check: negative starting charge=   -0.001820

     starting charge 1270.31751, renormalised to 1296.00000

     negative rho (up, down):  1.857E-03 0.000E+00
     Starting wfc are 1292 randomized atomic wfcs

     total cpu time spent up to now is      107.4 secs

     Self-consistent Calculation

     iteration #  1     ecut=    80.00 Ry     beta=0.70
     Davidson diagonalization with overlap
     c_bands:  4 eigenvalues not converged
     c_bands:  1 eigenvalues not converged
     c_bands:  2 eigenvalues not converged
     c_bands:  5 eigenvalues not converged
     c_bands:  2 eigenvalues not converged
     c_bands:  1 eigenvalues not converged
     ethr =  1.00E-04,  avg # of iterations = 40.0

     negative rho (up, down):  2.557E+01 0.000E+00

     total cpu time spent up to now is     2156.1 secs

     total energy              =   -9788.33033362 Ry
     Harris-Foulkes estimate   =  -17402.95841769 Ry
     estimated scf accuracy    <  178623.68628606 Ry

     iteration #  2     ecut=    80.00 Ry     beta=0.70
     Davidson diagonalization with overlap
     ethr =  1.00E-02,  avg # of iterations = 11.5

     negative rho (up, down):  3.113E+01 0.000E+00

     total cpu time spent up to now is     3059.9 secs

     total energy              =  -12074.54686866 Ry
     Harris-Foulkes estimate   =  -13684.57820455 Ry
     estimated scf accuracy    <   28344.45511453 Ry

     iteration #  3     ecut=    80.00 Ry     beta=0.70
     Davidson diagonalization with overlap
     ethr =  1.00E-02,  avg # of iterations =  7.5

     negative rho (up, down):  3.146E+01 0.000E+00

     total cpu time spent up to now is     3613.2 secs

     total energy              =  -12445.70394125 Ry
     Harris-Foulkes estimate   =  -13465.04039075 Ry
     estimated scf accuracy    <    5771.15261349 Ry

     iteration #  4     ecut=    80.00 Ry     beta=0.70
     Davidson diagonalization with overlap
     ethr =  1.00E-02,  avg # of iterations =  6.0

     negative rho (up, down):  2.157E+01 0.000E+00

     total cpu time spent up to now is     4163.9 secs

     total energy              =  -12853.74859881 Ry
     Harris-Foulkes estimate   =  -13079.39183967 Ry
     estimated scf accuracy    <     921.96270654 Ry

     iteration #  5     ecut=    80.00 Ry     beta=0.70
     Davidson diagonalization with overlap
     ethr =  1.00E-02,  avg # of iterations =  2.0

     negative rho (up, down):  1.820E+01 0.000E+00

     total cpu time spent up to now is     4415.1 secs

     total energy              =  -12852.65770928 Ry
     Harris-Foulkes estimate   =  -12922.44382099 Ry
     estimated scf accuracy    <    1393.48549214 Ry

     iteration #  6     ecut=    80.00 Ry     beta=0.70
     Davidson diagonalization with overlap
     ethr =  1.00E-02,  avg # of iterations =  2.0

     negative rho (up, down):  1.196E+01 0.000E+00

     total cpu time spent up to now is     4595.0 secs

     total energy              =  -12826.29372336 Ry
     Harris-Foulkes estimate   =  -12890.16217837 Ry
     estimated scf accuracy    <     554.31248531 Ry

     iteration #  7     ecut=    80.00 Ry     beta=0.70
     Davidson diagonalization with overlap
     ethr =  1.00E-02,  avg # of iterations =  2.0

     negative rho (up, down):  9.212E+00 0.000E+00

     total cpu time spent up to now is     4774.2 secs

     total energy              =  -12813.83735163 Ry
     Harris-Foulkes estimate   =  -12845.50757855 Ry
     estimated scf accuracy    <     440.24167521 Ry

     iteration #  8     ecut=    80.00 Ry     beta=0.70
     Davidson diagonalization with overlap
     ethr =  1.00E-02,  avg # of iterations =  2.0

     negative rho (up, down):  7.026E+00 0.000E+00

     total cpu time spent up to now is     4952.5 secs

     total energy              =  -12798.69826600 Ry
     Harris-Foulkes estimate   =  -12825.81527397 Ry
     estimated scf accuracy    <     296.51705339 Ry

     iteration #  9     ecut=    80.00 Ry     beta=0.70
     Davidson diagonalization with overlap
     ethr =  1.00E-02,  avg # of iterations =  1.2

     negative rho (up, down):  5.797E+00 0.000E+00

     total cpu time spent up to now is     5119.4 secs

     total energy              =  -12787.61223663 Ry
     Harris-Foulkes estimate   =  -12802.57570940 Ry
     estimated scf accuracy    <     213.74382602 Ry

     iteration # 10     ecut=    80.00 Ry     beta=0.70
     Davidson diagonalization with overlap
     ethr =  1.00E-02,  avg # of iterations =  1.2

     negative rho (up, down):  1.133E+00 0.000E+00

     total cpu time spent up to now is     5287.3 secs

     total energy              =  -12747.83915527 Ry
     Harris-Foulkes estimate   =  -12791.02791443 Ry
     estimated scf accuracy    <     168.91027232 Ry

     iteration # 11     ecut=    80.00 Ry     beta=0.70
     Davidson diagonalization with overlap
     ethr =  1.00E-02,  avg # of iterations =  2.8

     negative rho (up, down):  6.069E-01 0.000E+00

     total cpu time spent up to now is     5474.9 secs

     total energy              =  -12738.02920193 Ry
     Harris-Foulkes estimate   =  -12757.65971313 Ry
     estimated scf accuracy    <     323.98560281 Ry

     iteration # 12     ecut=    80.00 Ry     beta=0.70
     Davidson diagonalization with overlap
     ethr =  1.00E-02,  avg # of iterations =  1.0

     negative rho (up, down):  5.851E-01 0.000E+00

     total cpu time spent up to now is     5640.1 secs

     total energy              =  -12735.83335980 Ry
     Harris-Foulkes estimate   =  -12746.04799129 Ry
     estimated scf accuracy    <      62.35050798 Ry

     iteration # 13     ecut=    80.00 Ry     beta=0.70
     Davidson diagonalization with overlap
     ethr =  4.81E-03,  avg # of iterations =  1.5

     negative rho (up, down):  2.907E+00 0.000E+00

     total cpu time spent up to now is     5811.7 secs

     total energy              =  -12725.98620061 Ry
     Harris-Foulkes estimate   =  -12740.79677986 Ry
     estimated scf accuracy    <      88.46149443 Ry

     iteration # 14     ecut=    80.00 Ry     beta=0.70
     Davidson diagonalization with overlap
     ethr =  4.81E-03,  avg # of iterations =  2.3

     negative rho (up, down):  4.406E+00 0.000E+00

     total cpu time spent up to now is     5993.7 secs

     total energy              =  -12728.99181724 Ry
     Harris-Foulkes estimate   =  -12733.67022135 Ry
     estimated scf accuracy    <      38.51599538 Ry

     iteration # 15     ecut=    80.00 Ry     beta=0.70
     Davidson diagonalization with overlap
     ethr =  2.97E-03,  avg # of iterations =  2.7

     negative rho (up, down):  5.365E+00 0.000E+00

     total cpu time spent up to now is     6179.9 secs

     total energy              =  -12727.16869473 Ry
     Harris-Foulkes estimate   =  -12730.10446665 Ry
     estimated scf accuracy    <      27.07185220 Ry

     iteration # 16     ecut=    80.00 Ry     beta=0.70
     Davidson diagonalization with overlap
     ethr =  2.09E-03,  avg # of iterations =  2.0

     negative rho (up, down):  4.910E+00 0.000E+00

     total cpu time spent up to now is     6357.1 secs

     total energy              =  -12725.18453025 Ry
     Harris-Foulkes estimate   =  -12727.73593558 Ry
     estimated scf accuracy    <      16.90320403 Ry

     iteration # 17     ecut=    80.00 Ry     beta=0.70
     Davidson diagonalization with overlap
     ethr =  1.30E-03,  avg # of iterations =  5.5

     negative rho (up, down):  3.849E+00 0.000E+00

     total cpu time spent up to now is     6577.0 secs

     total energy              =  -12723.96072363 Ry
     Harris-Foulkes estimate   =  -12725.73553724 Ry
     estimated scf accuracy    <       9.92323590 Ry

     iteration # 18     ecut=    80.00 Ry     beta=0.70
     Davidson diagonalization with overlap
     ethr =  7.66E-04,  avg # of iterations =  7.2

     negative rho (up, down):  4.063E+00 0.000E+00

     total cpu time spent up to now is     6820.4 secs

     total energy              =  -12723.72627428 Ry
     Harris-Foulkes estimate   =  -12724.31648146 Ry
     estimated scf accuracy    <       8.82255542 Ry

     iteration # 19     ecut=    80.00 Ry     beta=0.70
     Davidson diagonalization with overlap
     ethr =  6.81E-04,  avg # of iterations =  3.0

     negative rho (up, down):  2.412E+00 0.000E+00

     total cpu time spent up to now is     7010.6 secs

     total energy              =  -12722.32108023 Ry
     Harris-Foulkes estimate   =  -12723.87351098 Ry
     estimated scf accuracy    <       7.29801181 Ry

     iteration # 20     ecut=    80.00 Ry     beta=0.70
     Davidson diagonalization with overlap
     ethr =  5.63E-04,  avg # of iterations =  2.5

     negative rho (up, down):  2.566E+00 0.000E+00

     total cpu time spent up to now is     7192.9 secs

     total energy              =  -12722.62907000 Ry
     Harris-Foulkes estimate   =  -12722.56547332 Ry
     estimated scf accuracy    <      12.77346939 Ry

     iteration # 21     ecut=    80.00 Ry     beta=0.70
     Davidson diagonalization with overlap
     ethr =  5.63E-04,  avg # of iterations =  2.7

     negative rho (up, down):  1.132E+00 0.000E+00

     total cpu time spent up to now is     7378.3 secs

     total energy              =  -12720.55871733 Ry
     Harris-Foulkes estimate   =  -12723.15192612 Ry
     estimated scf accuracy    <       6.39099051 Ry

     iteration # 22     ecut=    80.00 Ry     beta=0.70
     Davidson diagonalization with overlap
     ethr =  4.93E-04,  avg # of iterations =  4.2

     negative rho (up, down):  1.037E+00 0.000E+00

     total cpu time spent up to now is     7583.6 secs

     total energy              =  -12721.11591490 Ry
     Harris-Foulkes estimate   =  -12720.71852048 Ry
     estimated scf accuracy    <       8.12121254 Ry

     iteration # 23     ecut=    80.00 Ry     beta=0.70
     Davidson diagonalization with overlap
     ethr =  4.93E-04,  avg # of iterations =  4.7

     negative rho (up, down):  2.491E-01 0.000E+00

     total cpu time spent up to now is     7792.7 secs

     total energy              =  -12719.57599499 Ry
     Harris-Foulkes estimate   =  -12721.54700296 Ry
     estimated scf accuracy    <       4.81267762 Ry

     iteration # 24     ecut=    80.00 Ry     beta=0.70
     Davidson diagonalization with overlap
     ethr =  3.71E-04,  avg # of iterations =  2.0

     negative rho (up, down):  6.580E-02 0.000E+00

     total cpu time spent up to now is     7971.4 secs

     total energy              =  -12719.24711652 Ry
     Harris-Foulkes estimate   =  -12719.73211525 Ry
     estimated scf accuracy    <       5.76135085 Ry

     iteration # 25     ecut=    80.00 Ry     beta=0.70
     Davidson diagonalization with overlap
     ethr =  3.71E-04,  avg # of iterations =  2.0

     negative rho (up, down):  3.038E-01 0.000E+00

     total cpu time spent up to now is     8149.0 secs

     total energy              =  -12718.90649261 Ry
     Harris-Foulkes estimate   =  -12719.49005708 Ry
     estimated scf accuracy    <       3.17748918 Ry

     iteration # 26     ecut=    80.00 Ry     beta=0.70
     Davidson diagonalization with overlap
     ethr =  2.45E-04,  avg # of iterations =  2.2

     negative rho (up, down):  5.146E-01 0.000E+00

     total cpu time spent up to now is     8328.3 secs

     total energy              =  -12718.54275370 Ry
     Harris-Foulkes estimate   =  -12718.98851160 Ry
     estimated scf accuracy    <       2.29770022 Ry

     iteration # 27     ecut=    80.00 Ry     beta=0.70
     Davidson diagonalization with overlap
     ethr =  1.77E-04,  avg # of iterations =  7.3

     negative rho (up, down):  5.293E-01 0.000E+00

     total cpu time spent up to now is     8573.3 secs

     total energy              =  -12718.38871921 Ry
     Harris-Foulkes estimate   =  -12718.64917412 Ry
     estimated scf accuracy    <       2.08280897 Ry

     iteration # 28     ecut=    80.00 Ry     beta=0.70
     Davidson diagonalization with overlap
     ethr =  1.61E-04,  avg # of iterations =  6.3

     negative rho (up, down):  3.856E-01 0.000E+00

     total cpu time spent up to now is     8806.2 secs

     total energy              =  -12718.32215358 Ry
     Harris-Foulkes estimate   =  -12718.44728420 Ry
     estimated scf accuracy    <       0.60881422 Ry

     iteration # 29     ecut=    80.00 Ry     beta=0.70
     Davidson diagonalization with overlap
     ethr =  4.70E-05,  avg # of iterations =  7.8

     negative rho (up, down):  3.207E-01 0.000E+00

     total cpu time spent up to now is     9079.8 secs

     total energy              =  -12718.32201906 Ry
     Harris-Foulkes estimate   =  -12718.37391499 Ry
     estimated scf accuracy    <       0.42230363 Ry

     iteration # 30     ecut=    80.00 Ry     beta=0.70
     Davidson diagonalization with overlap
     ethr =  3.26E-05,  avg # of iterations =  8.8

     negative rho (up, down):  1.049E-01 0.000E+00

     total cpu time spent up to now is     9358.9 secs

     total energy              =  -12718.34637793 Ry
     Harris-Foulkes estimate   =  -12718.36135805 Ry
     estimated scf accuracy    <       0.15135882 Ry

     iteration # 31     ecut=    80.00 Ry     beta=0.70
     Davidson diagonalization with overlap
     ethr =  1.17E-05,  avg # of iterations = 15.0

     negative rho (up, down):  1.031E-01 0.000E+00

     total cpu time spent up to now is     9710.0 secs

     total energy              =  -12718.35211672 Ry
     Harris-Foulkes estimate   =  -12718.35448093 Ry
     estimated scf accuracy    <       0.03007327 Ry

     iteration # 32     ecut=    80.00 Ry     beta=0.70
     Davidson diagonalization with overlap
     ethr =  2.32E-06,  avg # of iterations =  8.5

     negative rho (up, down):  8.416E-02 0.000E+00

     total cpu time spent up to now is     9978.2 secs

     total energy              =  -12718.35378297 Ry
     Harris-Foulkes estimate   =  -12718.35511005 Ry
     estimated scf accuracy    <       0.01338477 Ry

     iteration # 33     ecut=    80.00 Ry     beta=0.70
     Davidson diagonalization with overlap
     c_bands:  1 eigenvalues not converged
     ethr =  1.03E-06,  avg # of iterations =  8.5

     negative rho (up, down):  5.183E-02 0.000E+00

     total cpu time spent up to now is    10241.5 secs

     total energy              =  -12718.35435334 Ry
     Harris-Foulkes estimate   =  -12718.35472323 Ry
     estimated scf accuracy    <       0.00379420 Ry

     iteration # 34     ecut=    80.00 Ry     beta=0.70
     Davidson diagonalization with overlap
     c_bands:  1 eigenvalues not converged
     c_bands:  1 eigenvalues not converged
     ethr =  2.93E-07,  avg # of iterations = 13.7

     negative rho (up, down):  3.406E-02 0.000E+00

     total cpu time spent up to now is    10575.7 secs

     total energy              =  -12718.35422535 Ry
     Harris-Foulkes estimate   =  -12718.35452832 Ry
     estimated scf accuracy    <       0.00140370 Ry

     iteration # 35     ecut=    80.00 Ry     beta=0.70
     Davidson diagonalization with overlap
     c_bands:  2 eigenvalues not converged
     c_bands:  1 eigenvalues not converged
     c_bands:  2 eigenvalues not converged
     ethr =  1.08E-07,  avg # of iterations = 14.7

     negative rho (up, down):  2.488E-02 0.000E+00

     total cpu time spent up to now is    10926.7 secs

     total energy              =  -12718.35415237 Ry
     Harris-Foulkes estimate   =  -12718.35432885 Ry
     estimated scf accuracy    <       0.00057311 Ry

     iteration # 36     ecut=    80.00 Ry     beta=0.70
     Davidson diagonalization with overlap
     c_bands:  2 eigenvalues not converged
     ethr =  4.42E-08,  avg # of iterations =  9.5

     negative rho (up, down):  1.040E-02 0.000E+00

     total cpu time spent up to now is    11201.2 secs

     total energy              =  -12718.35387188 Ry
     Harris-Foulkes estimate   =  -12718.35419023 Ry
     estimated scf accuracy    <       0.00031167 Ry

     iteration # 37     ecut=    80.00 Ry     beta=0.70
     Davidson diagonalization with overlap
     c_bands:  1 eigenvalues not converged
     ethr =  2.40E-08,  avg # of iterations = 13.0

     negative rho (up, down):  6.881E-03 0.000E+00

     total cpu time spent up to now is    11540.5 secs

     total energy              =  -12718.35380266 Ry
     Harris-Foulkes estimate   =  -12718.35389020 Ry
     estimated scf accuracy    <       0.00012779 Ry

     iteration # 38     ecut=    80.00 Ry     beta=0.70
     Davidson diagonalization with overlap
     ethr =  9.86E-09,  avg # of iterations =  6.5

     negative rho (up, down):  4.306E-03 0.000E+00

     total cpu time spent up to now is    11791.2 secs

     total energy              =  -12718.35377560 Ry
     Harris-Foulkes estimate   =  -12718.35381751 Ry
     estimated scf accuracy    <       0.00003052 Ry

     iteration # 39     ecut=    80.00 Ry     beta=0.70
     Davidson diagonalization with overlap
     ethr =  2.35E-09,  avg # of iterations = 10.5

     negative rho (up, down):  3.651E-03 0.000E+00

     total cpu time spent up to now is    12090.0 secs

     total energy              =  -12718.35377243 Ry
     Harris-Foulkes estimate   =  -12718.35378020 Ry
     estimated scf accuracy    <       0.00001280 Ry

     iteration # 40     ecut=    80.00 Ry     beta=0.70
     Davidson diagonalization with overlap
     ethr =  9.88E-10,  avg # of iterations =  2.0

     negative rho (up, down):  2.887E-03 0.000E+00

     total cpu time spent up to now is    12277.1 secs

     total energy              =  -12718.35376949 Ry
     Harris-Foulkes estimate   =  -12718.35377340 Ry
     estimated scf accuracy    <       0.00000349 Ry

     iteration # 41     ecut=    80.00 Ry     beta=0.70
     Davidson diagonalization with overlap
     ethr =  2.69E-10,  avg # of iterations =  6.8

     negative rho (up, down):  2.249E-03 0.000E+00

     total cpu time spent up to now is    12522.0 secs

     total energy              =  -12718.35376806 Ry
     Harris-Foulkes estimate   =  -12718.35376982 Ry
     estimated scf accuracy    <       0.00000068 Ry

     iteration # 42     ecut=    80.00 Ry     beta=0.70
     Davidson diagonalization with overlap
     ethr =  5.24E-11,  avg # of iterations =  4.7

     negative rho (up, down):  2.176E-03 0.000E+00

     total cpu time spent up to now is    12773.3 secs

     total energy              =  -12718.35376814 Ry
     Harris-Foulkes estimate   =  -12718.35376819 Ry
     estimated scf accuracy    <       0.00000032 Ry

     iteration # 43     ecut=    80.00 Ry     beta=0.70
     Davidson diagonalization with overlap
     ethr =  2.44E-11,  avg # of iterations =  2.0

     negative rho (up, down):  2.104E-03 0.000E+00

     total cpu time spent up to now is    12957.1 secs

     total energy              =  -12718.35376820 Ry
     Harris-Foulkes estimate   =  -12718.35376817 Ry
     estimated scf accuracy    <       0.00000004 Ry

     iteration # 44     ecut=    80.00 Ry     beta=0.70
     Davidson diagonalization with overlap
     ethr =  3.09E-12,  avg # of iterations =  2.5

     negative rho (up, down):  2.092E-03 0.000E+00

     total cpu time spent up to now is    13167.1 secs

     total energy              =  -12718.35376822 Ry
     Harris-Foulkes estimate   =  -12718.35376821 Ry
     estimated scf accuracy    <       0.00000001 Ry

     iteration # 45     ecut=    80.00 Ry     beta=0.70
     Davidson diagonalization with overlap
     ethr =  7.93E-13,  avg # of iterations =  2.2

     negative rho (up, down):  2.083E-03 0.000E+00

     total cpu time spent up to now is    13359.3 secs

     End of self-consistent calculation

          k = 0.0000 0.0000 0.0000 (256287 PWs)   bands (ev):

   -17.4201 -16.2159 -16.0145 -15.4462 -14.9732 -14.7224 -14.5709 -14.2345
   -14.1586 -14.0653 -14.0469 -13.4508 -13.2388 -13.0922 -13.0574 -13.0186
   -13.0080 -11.7169 -11.4417 -11.4095 -11.3206 -11.1530 -10.3082  -9.9278
    -9.6320  -9.5311  -9.4687  -9.1209  -8.8847  -8.6263  -8.5900  -8.5344
    -7.9464  -7.8253  -7.6925  -7.5797  -7.5262  -7.4959  -7.4669  -7.4464
    -6.3074  -6.2853  -6.1049  -5.9971  -5.9684  -5.8815  -5.8211  -5.8043
    -5.7744  -5.5041  -5.4785  -5.1261  -4.9574  -4.8172  -4.7567  -4.6311
    -4.5497  -4.4531  -4.3859  -4.3437  -4.1086  -3.9891  -3.9499  -3.9164
    -3.9100  -3.8178  -3.5756  -3.4945  -3.4559  -3.4014  -3.3894  -3.3552
    -3.3474  -3.2519  -3.1352  -3.1167  -3.0990  -3.0098  -3.0090  -2.9988
    -2.9739  -2.9465  -2.8470  -2.7953  -2.7871  -2.7647  -2.7551  -2.7066
    -2.6607  -2.6593  -2.5872  -2.5605  -2.4703  -2.4050  -2.3484  -2.3115
    -2.2813  -2.2077  -2.1868  -2.1772  -2.1720  -2.1522  -2.1479  -2.1444
    -2.1424  -2.0686  -2.0605  -2.0250  -2.0224  -2.0193  -2.0114  -2.0085
    -1.9630  -1.9229  -1.8771  -1.8250  -1.8108  -1.7672  -1.7410  -1.7317
    -1.7120  -1.6977  -1.6700  -1.6566  -1.6490  -1.6420  -1.6323  -1.5982
    -1.5899  -1.5699  -1.5615  -1.5497  -1.5461  -1.5338  -1.5291  -1.5135
    -1.5119  -1.5091  -1.4979  -1.4624  -1.4408  -1.4365  -1.4057  -1.3630
    -1.3470  -1.3343  -1.3271  -1.2978  -1.2947  -1.2559  -1.2538  -1.2437
    -1.2089  -1.2085  -1.1902  -1.1866  -1.1852  -1.1576  -1.1563  -1.1491
    -1.1071  -1.0970  -1.0938  -1.0563  -1.0524  -1.0465  -1.0364  -1.0319
    -1.0296  -1.0191  -1.0155  -1.0132  -1.0118  -1.0006  -0.9982  -0.9836
    -0.9723  -0.9544  -0.9484  -0.9379  -0.9340  -0.9249  -0.9177  -0.9165
    -0.8912  -0.8874  -0.8808  -0.8716  -0.8574  -0.8566  -0.8553  -0.8503
    -0.8479  -0.8466  -0.8458  -0.8451  -0.8438  -0.8415  -0.8378  -0.8364
    -0.8321  -0.8298  -0.7976  -0.7939  -0.7831  -0.7729  -0.7483  -0.6980
    -0.6889  -0.6827  -0.6799  -0.6774  -0.6686  -0.6466  -0.6395  -0.6369
    -0.6338  -0.6265  -0.6252  -0.6221  -0.6064  -0.6006  -0.5935  -0.5776
    -0.5671  -0.5593  -0.5583  -0.5575  -0.5526  -0.5476  -0.5218  -0.5190
    -0.5149  -0.4946  -0.4930  -0.4471  -0.4385  -0.4344  -0.4281  -0.4226
    -0.4204  -0.4088  -0.4047  -0.4025  -0.4016  -0.3999  -0.3961  -0.3941
    -0.3909  -0.3849  -0.3838  -0.3816  -0.3720  -0.3608  -0.3543  -0.3494
    -0.3467  -0.3044  -0.2971  -0.2921  -0.2893  -0.2850  -0.2792  -0.2667
    -0.2614  -0.2599  -0.2563  -0.2544  -0.2524  -0.2395  -0.2379  -0.2318
    -0.2259  -0.2248  -0.2235  -0.2195  -0.2119  -0.2069  -0.2058  -0.2039
    -0.1995  -0.1961  -0.1866  -0.1830  -0.1776  -0.1716  -0.1586  -0.1341
    -0.1259  -0.1229  -0.1153  -0.1019  -0.0960  -0.0824  -0.0741  -0.0649
    -0.0620  -0.0581  -0.0568  -0.0522  -0.0488  -0.0413  -0.0327  -0.0245
    -0.0173  -0.0073  -0.0051  -0.0031   0.0018   0.0087   0.0111   0.0139
     0.0193   0.0214   0.0258   0.0357   0.0406   0.0465   0.0472   0.0508
     0.0525   0.0562   0.0637   0.0646   0.0668   0.0682   0.0792   0.0908
     0.0999   0.1017   0.1085   0.1181   0.1268   0.1360   0.1383   0.1426
     0.1672   0.1818   0.1886   0.1936   0.2154   0.2201   0.2285   0.2342
     0.2382   0.2476   0.2523   0.2554   0.2574   0.2591   0.2648   0.2674
     0.2697   0.2971   0.3067   0.3311   0.3353   0.3411   0.3435   0.3462
     0.3505   0.3675   0.3778   0.3805   0.3851   0.3859   0.3887   0.3960
     0.4076   0.4126   0.4148   0.4224   0.4311   0.4321   0.4442   0.4595
     0.4667   0.4699   0.4778   0.4877   0.4910   0.4946   0.4981   0.5009
     0.5070   0.5115   0.5136   0.5196   0.5303   0.5329   0.5360   0.5395
     0.5404   0.5472   0.5519   0.5555   0.5585   0.5599   0.5649   0.5778
     0.5807   0.5910   0.5973   0.6021   0.6062   0.6073   0.6155   0.6241
     0.6298   0.6331   0.6470   0.6479   0.6491   0.6515   0.6561   0.6593
     0.6700   0.6718   0.6762   0.6851   0.6871   0.6883   0.6903   0.6993
     0.7029   0.7077   0.7092   0.7151   0.7209   0.7223   0.7322   0.7411
     0.7426   0.7464   0.7501   0.7505   0.7519   0.7526   0.7568   0.7573
     0.7669   0.7810   0.7887   0.7979   0.8043   0.8063   0.8136   0.8186
     0.8232   0.8252   0.8306   0.8357   0.8375   0.8487   0.8553   0.8707
     0.8759   0.8814   0.8825   0.8854   0.8873   0.8986   0.9016   0.9104
     0.9160   0.9180   0.9196   0.9281   0.9317   0.9364   0.9386   0.9426
     0.9458   0.9586   0.9670   0.9709   0.9751   0.9801   0.9865   0.9914
     0.9932   0.9953   0.9991   1.0058   1.0123   1.0129   1.0148   1.0192
     1.0211   1.0265   1.0285   1.0311   1.0330   1.0381   1.0405   1.0471
     1.0499   1.0576   1.0632   1.0675   1.0732   1.0793   1.0936   1.0979
     1.1012   1.1035   1.1101   1.1126   1.1161   1.1212   1.1219   1.1231
     1.1252   1.1314   1.1377   1.1416   1.1439   1.1640   1.1668   1.1778
     1.1857   1.1904   1.1917   1.1937   1.1954   1.2016   1.2067   1.2131
     1.2193   1.2195   1.2232   1.2255   1.2279   1.2314   1.2346   1.2371
     1.2407   1.2424   1.2555   1.2611   1.2623   1.2645   1.2687   1.2693
     1.2706   1.2770   1.2802   1.2861   1.2915   1.2957   1.2972   1.3012
     1.3046   1.3103   1.3108   1.3150   1.3175   1.3208   1.3229   1.3265
     1.3424   1.3488   1.3505   1.3578   1.3585   1.3634   1.3642   1.3671
     1.3715   1.3837   1.3866   1.3878   1.3949   1.4033   1.4044   1.4060
     1.4122   1.4148   1.4171   1.4210   1.4231   1.4260   1.4282   1.4314
     1.4322   1.4343   1.4373   1.4382   1.4413   1.4429   1.4528   1.4605
     1.4613   1.4639   1.4642   1.4772   1.4787   1.4902   1.4970   1.5076
     1.5169   1.5229   1.5255   1.5290   1.5334   1.5372   1.5549   1.5579
     1.5655   1.5849   1.5873   1.6077   1.6135   1.6146   1.6222   1.6285
     1.6297   1.6436   1.6456   1.6495   1.8233   1.8594   1.9597   1.9892
     2.0363   2.1183   2.1441   2.1541   2.1778   2.1863   2.2104   2.2127
     2.2177   2.2232   2.2371   2.2419   2.3090   2.3485   2.4152   2.4281
     2.4593   2.4649   2.4731   2.5809   2.6859   2.7147   2.7185   2.8798
     2.9777   3.0380   3.0797   3.1218   3.3072   3.4015   3.5786   3.5922
     3.7892   3.8186   3.8416   3.8497   3.8662   3.8729   3.9517   3.9660
     3.9794   4.0011   4.0046   4.0064   4.0147   4.0248   4.0967   4.1945
     4.1979   4.2487   4.3116   4.3640   4.5127   4.7946   4.8132   4.9559
     4.9710   5.1203   5.1648   5.3082   5.3871   5.4449   5.5808   5.6895
     5.7208   5.8158   5.9324   5.9439   5.9629   6.1591   6.3473   6.4101
     6.4279   6.4545   6.4764   6.4966   6.5219   6.6177   6.6275   6.7576
     6.7721   6.7890   6.8083   6.8105   6.8298   6.8671   7.0026   7.0471
     7.0723   7.0818   7.2332   7.3273   7.3526   7.4092   7.5665   7.5935
     7.5971   7.6556   7.7043   7.7642   7.8352   7.9066   7.9269   8.1103
     8.1242   8.1420   8.2206   8.2632   8.3089   8.3129   8.3218   8.3385
     8.3478   8.3684   8.4308   8.4594   8.4779   8.5609   8.5702   8.6162
     8.6334   8.6545   8.7053   8.7449   8.7792   8.8255   8.8358   8.8380
     8.9549   8.9863   9.0130   9.0586   9.0647   9.1017   9.1152   9.1496
     9.1845   9.2456   9.3231   9.3307   9.3690   9.5099   9.5562   9.5686
     9.5776   9.6212   9.7016   9.7273   9.7579   9.8560   9.9234  10.0027
    10.0490  10.0727

          k = 0.0000-0.2165 0.0000 (256176 PWs)   bands (ev):

   -17.4199 -16.2604 -15.8821 -15.5891 -15.0673 -14.5521 -14.3129 -14.2964
   -14.2080 -14.1503 -13.7922 -13.7055 -13.6450 -13.6221 -12.6171 -12.3574
   -12.3202 -12.2305 -12.0810 -12.0206 -10.7473 -10.4615 -10.4334 -10.3298
    -9.6082  -9.3049  -9.2695  -9.0763  -8.9237  -8.9030  -8.8595  -8.3262
    -8.1955  -8.1355  -8.0985  -7.3777  -7.2576  -6.9552  -6.9163  -6.8550
    -6.8349  -6.7855  -6.7716  -6.1202  -6.0405  -5.8809  -5.8707  -5.4785
    -5.3660  -5.2327  -5.0992  -5.0682  -4.9532  -4.8635  -4.8492  -4.8255
    -4.6707  -4.6650  -4.5635  -4.5472  -4.4456  -4.1665  -4.0289  -3.8256
    -3.8200  -3.6668  -3.5203  -3.3739  -3.3043  -3.2989  -3.2920  -3.2714
    -3.1939  -3.1772  -3.0720  -3.0298  -3.0270  -3.0238  -2.9870  -2.8984
    -2.8568  -2.8424  -2.8265  -2.7852  -2.7595  -2.7259  -2.7081  -2.6212
    -2.6099  -2.5780  -2.5724  -2.5668  -2.5654  -2.5618  -2.5348  -2.4679
    -2.4008  -2.2954  -2.2883  -2.2674  -2.2266  -2.2260  -2.1817  -2.1718
    -2.1658  -2.1320  -2.1014  -2.0851  -2.0111  -1.9835  -1.9794  -1.9664
    -1.9583  -1.9056  -1.8741  -1.8609  -1.8301  -1.7995  -1.7643  -1.7493
    -1.7477  -1.7424  -1.7370  -1.7335  -1.7175  -1.7061  -1.6922  -1.6456
    -1.6400  -1.6170  -1.5988  -1.5549  -1.5448  -1.5179  -1.5164  -1.4610
    -1.4587  -1.4507  -1.4447  -1.4254  -1.3653  -1.3551  -1.3147  -1.3099
    -1.3057  -1.2930  -1.2745  -1.2723  -1.2676  -1.2627  -1.2619  -1.2533
    -1.2491  -1.2351  -1.2270  -1.2210  -1.2200  -1.2123  -1.2104  -1.1870
    -1.1774  -1.1585  -1.1489  -1.1344  -1.1312  -1.0848  -1.0819  -1.0480
    -1.0450  -1.0430  -1.0421  -1.0165  -0.9934  -0.9892  -0.9852  -0.9769
    -0.9755  -0.9736  -0.9623  -0.9354  -0.9272  -0.9234  -0.9153  -0.9139
    -0.9096  -0.9078  -0.9018  -0.8992  -0.8947  -0.8752  -0.8619  -0.8506
    -0.8247  -0.8202  -0.8177  -0.8126  -0.8121  -0.8004  -0.7975  -0.7876
    -0.7712  -0.7549  -0.7527  -0.7515  -0.7489  -0.6895  -0.6641  -0.6573
    -0.6497  -0.6435  -0.6397  -0.6361  -0.6305  -0.6278  -0.6218  -0.6114
    -0.5993  -0.5974  -0.5945  -0.5934  -0.5875  -0.5697  -0.5540  -0.5502
    -0.5469  -0.5392  -0.5367  -0.5341  -0.5320  -0.5241  -0.5126  -0.5087
    -0.4996  -0.4875  -0.4808  -0.4800  -0.4793  -0.4637  -0.4482  -0.4446
    -0.4376  -0.4357  -0.4336  -0.4200  -0.4180  -0.4018  -0.3779  -0.3666
    -0.3648  -0.3525  -0.3477  -0.3406  -0.3264  -0.3210  -0.3048  -0.3044
    -0.2953  -0.2928  -0.2923  -0.2914  -0.2893  -0.2840  -0.2706  -0.2676
    -0.2601  -0.2575  -0.2562  -0.2487  -0.2458  -0.2418  -0.2408  -0.2376
    -0.2327  -0.2306  -0.2281  -0.2149  -0.2081  -0.2037  -0.1986  -0.1952
    -0.1914  -0.1686  -0.1499  -0.1432  -0.1397  -0.1342  -0.1333  -0.1285
    -0.1261  -0.1210  -0.1194  -0.1149  -0.1005  -0.0961  -0.0935  -0.0875
    -0.0855  -0.0819  -0.0762  -0.0738  -0.0725  -0.0681  -0.0630  -0.0628
    -0.0548  -0.0266  -0.0261  -0.0195  -0.0162  -0.0124  -0.0000   0.0077
     0.0097   0.0157   0.0185   0.0224   0.0312   0.0332   0.0408   0.0480
     0.0550   0.0592   0.0645   0.0733   0.0771   0.0779   0.0796   0.0943
     0.0971   0.0993   0.1050   0.1060   0.1184   0.1216   0.1269   0.1313
     0.1339   0.1426   0.1582   0.1801   0.1813   0.1924   0.1977   0.2009
     0.2068   0.2087   0.2112   0.2201   0.2472   0.2576   0.2664   0.2713
     0.2840   0.2939   0.3130   0.3145   0.3436   0.3506   0.3583   0.3638
     0.3813   0.3924   0.3958   0.3983   0.4026   0.4044   0.4064   0.4135
     0.4260   0.4266   0.4344   0.4403   0.4473   0.4534   0.4555   0.4609
     0.4656   0.4695   0.4712   0.4730   0.4775   0.4809   0.4974   0.5072
     0.5119   0.5170   0.5223   0.5233   0.5256   0.5297   0.5390   0.5397
     0.5434   0.5451   0.5469   0.5502   0.5520   0.5537   0.5594   0.5613
     0.5639   0.5754   0.5797   0.5817   0.5846   0.5855   0.5874   0.5918
     0.5927   0.5986   0.6125   0.6211   0.6276   0.6370   0.6424   0.6538
     0.6572   0.6594   0.6604   0.6685   0.6719   0.6760   0.6783   0.6792
     0.6846   0.6854   0.6901   0.6956   0.7059   0.7201   0.7224   0.7276
     0.7285   0.7324   0.7408   0.7412   0.7486   0.7521   0.7561   0.7622
     0.7735   0.7750   0.7785   0.7810   0.7852   0.8176   0.8275   0.8284
     0.8434   0.8447   0.8534   0.8588   0.8699   0.8816   0.8855   0.8890
     0.8950   0.8968   0.8972   0.9074   0.9132   0.9143   0.9163   0.9170
     0.9194   0.9245   0.9391   0.9420   0.9427   0.9437   0.9466   0.9548
     0.9573   0.9624   0.9630   0.9694   0.9704   0.9736   0.9754   0.9812
     0.9848   0.9875   0.9897   0.9910   0.9935   0.9945   0.9960   1.0022
     1.0059   1.0088   1.0157   1.0163   1.0213   1.0235   1.0244   1.0269
     1.0369   1.0383   1.0417   1.0456   1.0528   1.0752   1.0825   1.0877
     1.0927   1.0983   1.1021   1.1127   1.1257   1.1287   1.1306   1.1321
     1.1373   1.1419   1.1580   1.1613   1.1729   1.1752   1.1763   1.1809
     1.1853   1.1887   1.1945   1.1962   1.1975   1.1996   1.2012   1.2041
     1.2048   1.2085   1.2108   1.2115   1.2163   1.2257   1.2289   1.2309
     1.2321   1.2350   1.2412   1.2518   1.2619   1.2666   1.2669   1.2710
     1.2747   1.2782   1.2791   1.2828   1.2898   1.2918   1.2958   1.2983
     1.3003   1.3018   1.3056   1.3100   1.3190   1.3193   1.3202   1.3299
     1.3311   1.3432   1.3469   1.3532   1.3559   1.3671   1.3683   1.3703
     1.3721   1.3744   1.3785   1.3803   1.3865   1.3944   1.3985   1.4082
     1.4127   1.4184   1.4239   1.4283   1.4293   1.4352   1.4418   1.4452
     1.4481   1.4485   1.4517   1.4530   1.4544   1.4716   1.4731   1.4762
     1.4898   1.4911   1.4954   1.4989   1.5043   1.5101   1.5132   1.5145
     1.5165   1.5249   1.5307   1.5359   1.5429   1.5454   1.5561   1.5852
     1.5869   1.6155   1.6439   1.6999   1.7033   1.7163   1.7194   1.7274
     1.7396   1.7443   1.7514   1.7779   1.7829   1.8041   1.8082   1.8142
     1.8161   1.8490   1.8632   2.0299   2.0551   2.1001   2.1442   2.2270
     2.3085   2.4152   2.4183   2.4450   2.5026   2.5109   2.5499   2.5645
     2.5827   2.5862   2.6003   2.6652   2.7014   2.7018   2.7662   2.7747
     2.9096   2.9202   2.9205   2.9973   3.1633   3.1731   3.1737   3.2027
     3.2834   3.3560   3.4323   3.6372   3.8179   3.8676   3.9930   4.0430
     4.0543   4.0978   4.1236   4.2009   4.2341   4.3235   4.3286   4.4102
     4.5159   4.5685   4.6606   4.7098   4.7385   4.7663   4.8471   5.0850
     5.1059   5.1862   5.2964   5.3456   5.3676   5.3714   5.3950   5.4424
     5.6198   5.6505   5.7279   5.8336   5.8652   5.8936   6.0124   6.3765
     6.3966   6.4193   6.4454   6.4865   6.5694   6.5809   6.6664   6.7155
     6.7554   6.7728   6.8385   7.0300   7.0414   7.0657   7.0703   7.0956
     7.1124   7.1328   7.1502   7.2198   7.2483   7.2782   7.3668   7.4074
     7.4230   7.6241   7.6541   7.7074   7.7371   7.7476   7.8855   7.9735
     8.0964   8.1231   8.1854   8.2883   8.3513   8.3744   8.4447   8.4493
     8.4539   8.4645   8.5114   8.5257   8.5486   8.6850   8.6990   8.7054
     8.7083   8.7310   8.7570   8.7782   8.9030   8.9163   8.9414   8.9838
     9.0331   9.0574   9.1299   9.2258   9.2424   9.2784   9.2854   9.3119
     9.3512   9.3712   9.3809   9.3994   9.4152   9.4430   9.4744   9.4820
     9.4955   9.4995   9.5373   9.5995   9.6769   9.7780   9.7904   9.8585
     9.8922   9.9399

          k = 0.2500 0.0000 0.0000 (256240 PWs)   bands (ev):

   -17.3844 -16.1060 -15.8923 -15.5995 -15.1219 -14.9274 -14.8896 -14.8204
   -14.1035 -13.8854 -13.6830 -13.2131 -13.0977 -13.0306 -12.9750 -12.3323
   -12.1638 -12.0870 -12.0061 -11.2440 -11.0492 -10.7332 -10.6350 -10.3106
   -10.1481  -9.8737  -9.8402  -9.4827  -9.2705  -9.1004  -9.0469  -8.5750
    -7.8733  -7.7132  -7.6349  -7.5046  -7.4803  -7.3833  -7.0134  -6.8938
    -6.2579  -6.1696  -5.9979  -5.9091  -5.8623  -5.8270  -5.4021  -5.3676
    -5.3039  -5.2496  -5.0567  -4.8620  -4.8215  -4.6157  -4.4947  -4.4537
    -4.4167  -4.4148  -4.3197  -4.3024  -4.2473  -4.1364  -3.9975  -3.9677
    -3.9665  -3.8653  -3.8272  -3.8256  -3.7688  -3.7239  -3.5940  -3.5756
    -3.5371  -3.5052  -3.4542  -3.3732  -3.3678  -3.2505  -3.2285  -3.1900
    -3.1520  -3.1146  -2.9990  -2.9115  -2.8587  -2.7978  -2.7939  -2.7897
    -2.7175  -2.6418  -2.6194  -2.5433  -2.4536  -2.4067  -2.3898  -2.3628
    -2.3286  -2.3153  -2.1146  -2.0985  -2.0843  -2.0805  -2.0495  -2.0237
    -1.9949  -1.9667  -1.9485  -1.9088  -1.8594  -1.8104  -1.8018  -1.7965
    -1.7916  -1.7887  -1.7652  -1.7461  -1.7397  -1.7324  -1.7210  -1.6899
    -1.6729  -1.6651  -1.6597  -1.6426  -1.6198  -1.5983  -1.5869  -1.5772
    -1.5736  -1.5718  -1.5700  -1.5549  -1.5531  -1.5060  -1.5007  -1.4911
    -1.4886  -1.4708  -1.4336  -1.3650  -1.3475  -1.3207  -1.3094  -1.2999
    -1.2623  -1.2452  -1.2367  -1.2361  -1.2324  -1.2182  -1.2139  -1.2040
    -1.2014  -1.1800  -1.1790  -1.1749  -1.1686  -1.1589  -1.1516  -1.1431
    -1.1339  -1.1294  -1.1184  -1.1126  -1.1060  -1.1024  -1.0981  -1.0847
    -1.0796  -1.0566  -1.0432  -1.0414  -1.0377  -1.0223  -1.0161  -1.0133
    -1.0067  -1.0029  -1.0012  -0.9849  -0.9806  -0.9791  -0.9761  -0.9743
    -0.9727  -0.9717  -0.9669  -0.9600  -0.9521  -0.9454  -0.9363  -0.9212
    -0.9079  -0.8982  -0.8971  -0.8866  -0.8548  -0.8518  -0.8330  -0.8134
    -0.8111  -0.7989  -0.7937  -0.7851  -0.7753  -0.7676  -0.7587  -0.7526
    -0.7489  -0.7485  -0.7442  -0.7373  -0.7076  -0.6385  -0.6233  -0.6042
    -0.6004  -0.5912  -0.5784  -0.5710  -0.5673  -0.5644  -0.5595  -0.5555
    -0.5473  -0.5463  -0.5348  -0.5299  -0.5258  -0.5228  -0.5117  -0.5053
    -0.5030  -0.4876  -0.4836  -0.4788  -0.4745  -0.4619  -0.4610  -0.4582
    -0.4495  -0.4473  -0.4025  -0.4003  -0.3992  -0.3946  -0.3882  -0.3828
    -0.3783  -0.3712  -0.3678  -0.3652  -0.3596  -0.3520  -0.3329  -0.3291
    -0.3263  -0.3095  -0.2992  -0.2968  -0.2944  -0.2920  -0.2873  -0.2796
    -0.2746  -0.2692  -0.2652  -0.2600  -0.2587  -0.2445  -0.2342  -0.2302
    -0.2120  -0.2085  -0.2049  -0.2002  -0.1937  -0.1882  -0.1833  -0.1815
    -0.1764  -0.1621  -0.1544  -0.1480  -0.1423  -0.1366  -0.1340  -0.1299
    -0.1211  -0.1084  -0.1048  -0.0934  -0.0761  -0.0721  -0.0661  -0.0592
    -0.0506  -0.0435  -0.0367  -0.0258  -0.0228  -0.0184  -0.0127  -0.0081
    -0.0041  -0.0012   0.0031   0.0050   0.0098   0.0117   0.0190   0.0211
     0.0289   0.0320   0.0361   0.0407   0.0489   0.0546   0.0590   0.0685
     0.0742   0.0770   0.0853   0.0949   0.0988   0.1040   0.1128   0.1166
     0.1225   0.1268   0.1306   0.1311   0.1418   0.1452   0.1506   0.1554
     0.1670   0.1739   0.1978   0.2120   0.2269   0.2392   0.2485   0.2614
     0.2661   0.2713   0.2747   0.2781   0.2818   0.2824   0.2854   0.2883
     0.2920   0.2949   0.2961   0.3034   0.3077   0.3106   0.3138   0.3165
     0.3240   0.3284   0.3328   0.3391   0.3408   0.3424   0.3515   0.3691
     0.3715   0.3754   0.3893   0.3977   0.4090   0.4138   0.4199   0.4234
     0.4315   0.4362   0.4420   0.4528   0.4578   0.4668   0.4712   0.4770
     0.4789   0.4825   0.4865   0.4898   0.4954   0.4971   0.5010   0.5059
     0.5187   0.5239   0.5276   0.5317   0.5338   0.5394   0.5460   0.5495
     0.5543   0.5563   0.5606   0.5726   0.5792   0.5844   0.5937   0.5971
     0.5992   0.6037   0.6102   0.6133   0.6181   0.6201   0.6238   0.6322
     0.6438   0.6457   0.6524   0.6595   0.6620   0.6637   0.6702   0.6723
     0.6794   0.6845   0.6974   0.6984   0.7066   0.7183   0.7269   0.7376
     0.7394   0.7427   0.7451   0.7482   0.7552   0.7668   0.7702   0.7744
     0.7758   0.7776   0.7792   0.7832   0.7940   0.8063   0.8090   0.8157
     0.8215   0.8382   0.8457   0.8521   0.8561   0.8592   0.8673   0.8754
     0.8776   0.8797   0.8827   0.8857   0.8885   0.8941   0.8975   0.8993
     0.9064   0.9077   0.9155   0.9206   0.9229   0.9297   0.9384   0.9499
     0.9550   0.9609   0.9677   0.9779   0.9803   0.9815   0.9854   0.9867
     0.9914   0.9950   0.9965   1.0021   1.0049   1.0094   1.0139   1.0149
     1.0196   1.0221   1.0238   1.0268   1.0289   1.0347   1.0362   1.0427
     1.0498   1.0565   1.0590   1.0652   1.0672   1.0700   1.0727   1.0753
     1.0796   1.0837   1.0863   1.0905   1.1005   1.1039   1.1059   1.1108
     1.1196   1.1243   1.1271   1.1351   1.1372   1.1429   1.1468   1.1545
     1.1578   1.1607   1.1687   1.1845   1.1847   1.1871   1.1893   1.1931
     1.2071   1.2168   1.2242   1.2320   1.2368   1.2375   1.2416   1.2456
     1.2474   1.2497   1.2573   1.2617   1.2631   1.2661   1.2695   1.2731
     1.2780   1.2794   1.2848   1.2855   1.2906   1.2929   1.2979   1.2996
     1.3046   1.3057   1.3133   1.3154   1.3182   1.3234   1.3282   1.3323
     1.3363   1.3386   1.3472   1.3510   1.3525   1.3539   1.3598   1.3621
     1.3677   1.3697   1.3772   1.3815   1.3843   1.3872   1.3917   1.4097
     1.4123   1.4151   1.4162   1.4205   1.4227   1.4244   1.4256   1.4306
     1.4358   1.4377   1.4421   1.4435   1.4450   1.4499   1.4578   1.4617
     1.4652   1.4671   1.4689   1.4726   1.4815   1.4835   1.4846   1.4900
     1.4934   1.5043   1.5061   1.5084   1.5126   1.5229   1.5400   1.5467
     1.5562   1.5636   1.5778   1.5860   1.6159   1.6193   1.6253   1.6333
     1.6536   1.6763   1.7274   1.7452   1.7491   1.7531   1.7736   1.7967
     1.8399   1.8518   1.9510   1.9826   2.0280   2.0391   2.0654   2.0748
     2.1199   2.2050   2.2246   2.4250   2.4309   2.5167   2.5528   2.7024
     2.7902   2.9122   2.9676   2.9874   3.0067   3.0934   3.1875   3.1989
     3.2217   3.2244   3.3000   3.4227   3.4861   3.5461   3.5879   3.6122
     3.6594   3.6685   3.7029   3.7185   3.7319   3.8143   3.8744   3.9304
     3.9946   4.0452   4.1017   4.1350   4.1846   4.2845   4.4227   4.4756
     4.5678   4.6233   4.7071   4.8210   4.8485   4.9813   5.0471   5.1778
     5.2233   5.2400   5.2971   5.3801   5.4156   5.4620   5.4986   5.5115
     5.5755   5.5913   5.6371   5.6774   5.7048   5.7656   5.7919   5.8076
     5.8678   5.9821   5.9978   6.0371   6.0960   6.1674   6.2868   6.6400
     6.6757   6.7462   6.7529   6.7703   6.7898   6.8098   6.8286   6.9265
     6.9424   7.0421   7.0433   7.0857   7.1007   7.1850   7.2716   7.3095
     7.4523   7.4662   7.4922   7.5233   7.5694   7.6777   7.7254   7.7413
     7.8090   7.8710   7.9070   8.0239   8.0502   8.0544   8.0938   8.2008
     8.2283   8.2588   8.2775   8.2931   8.3196   8.3334   8.4169   8.4905
     8.5434   8.6057   8.6345   8.7525   8.8517   8.9385   8.9731   9.0094
     9.0257   9.0414   9.1053   9.1536   9.1796   9.1970   9.2107   9.2300
     9.2895   9.3231   9.3580   9.4064   9.4355   9.4502   9.4681   9.5165
     9.5860   9.6167   9.6896   9.7076   9.7338   9.7864   9.8272   9.8577
     9.8754   9.8879

          k = 0.2500-0.2165 0.0000 (256316 PWs)   bands (ev):

   -17.3843 -16.1364 -15.8419 -15.4732 -15.3658 -15.1492 -14.6922 -14.4917
   -14.2160 -14.0414 -13.6461 -13.2240 -13.2011 -13.0834 -12.7252 -12.5907
   -12.1154 -11.9625 -11.5013 -11.3566 -11.2176 -11.0619 -10.8732 -10.5860
    -9.8679  -9.6936  -9.4787  -9.2673  -9.0740  -9.0227  -8.9479  -8.5757
    -8.4988  -8.4102  -8.3627  -7.1803  -6.9381  -6.7747  -6.6173  -6.5436
    -6.4186  -6.4134  -6.2684  -6.0176  -5.9842  -5.7103  -5.6970  -5.3922
    -5.2085  -5.1342  -5.0142  -4.8526  -4.7842  -4.6907  -4.6683  -4.5720
    -4.4863  -4.4298  -4.3413  -4.2985  -4.2897  -4.1426  -4.1075  -4.0985
    -4.0346  -3.8762  -3.7616  -3.7152  -3.6811  -3.5585  -3.5362  -3.4634
    -3.4547  -3.4243  -3.4151  -3.3252  -3.2893  -3.2287  -3.1482  -3.1213
    -3.0369  -2.9830  -2.9772  -2.9286  -2.9081  -2.9007  -2.8860  -2.8081
    -2.7666  -2.7163  -2.6279  -2.6043  -2.4618  -2.3868  -2.3256  -2.2983
    -2.2955  -2.1970  -2.1802  -2.1619  -2.1528  -2.1365  -2.0728  -2.0177
    -2.0093  -1.9798  -1.9636  -1.9461  -1.9285  -1.8630  -1.8532  -1.8388
    -1.8085  -1.8076  -1.7726  -1.7647  -1.7466  -1.7363  -1.7155  -1.7069
    -1.6983  -1.6934  -1.6847  -1.6791  -1.6734  -1.6701  -1.6626  -1.6590
    -1.6422  -1.5966  -1.5797  -1.5689  -1.5436  -1.5323  -1.4539  -1.4359
    -1.3618  -1.3449  -1.3249  -1.3167  -1.2829  -1.2777  -1.2731  -1.2603
    -1.2547  -1.2521  -1.2468  -1.2454  -1.2404  -1.2257  -1.2247  -1.2209
    -1.2130  -1.2087  -1.2035  -1.1965  -1.1942  -1.1882  -1.1760  -1.1710
    -1.1309  -1.1267  -1.1196  -1.1150  -1.1125  -1.1093  -1.1061  -1.1015
    -1.0986  -1.0857  -1.0756  -1.0384  -1.0358  -1.0333  -1.0251  -1.0214
    -1.0175  -0.9946  -0.9915  -0.9901  -0.9813  -0.9639  -0.9583  -0.9576
    -0.9526  -0.9500  -0.9435  -0.9294  -0.9205  -0.9164  -0.9117  -0.8989
    -0.8870  -0.8714  -0.8607  -0.8577  -0.8555  -0.8429  -0.8308  -0.7956
    -0.7759  -0.7751  -0.7676  -0.7618  -0.7577  -0.7287  -0.7172  -0.7125
    -0.7111  -0.7062  -0.7015  -0.6989  -0.6948  -0.6735  -0.6652  -0.6570
    -0.6500  -0.6239  -0.6087  -0.5946  -0.5856  -0.5810  -0.5783  -0.5643
    -0.5607  -0.5564  -0.5521  -0.5306  -0.5297  -0.5162  -0.5025  -0.4949
    -0.4851  -0.4838  -0.4804  -0.4743  -0.4673  -0.4528  -0.4447  -0.4412
    -0.4370  -0.4316  -0.4238  -0.4186  -0.4151  -0.4005  -0.3942  -0.3910
    -0.3816  -0.3796  -0.3661  -0.3642  -0.3615  -0.3591  -0.3575  -0.3552
    -0.3518  -0.3444  -0.3411  -0.3354  -0.3279  -0.3074  -0.3063  -0.2893
    -0.2792  -0.2703  -0.2652  -0.2626  -0.2515  -0.2444  -0.2346  -0.2317
    -0.2301  -0.2225  -0.2146  -0.2111  -0.2021  -0.1852  -0.1731  -0.1578
    -0.1544  -0.1480  -0.1335  -0.1188  -0.1173  -0.1069  -0.1050  -0.1004
    -0.0941  -0.0929  -0.0810  -0.0780  -0.0702  -0.0658  -0.0565  -0.0528
    -0.0471  -0.0436  -0.0410  -0.0353  -0.0328  -0.0175  -0.0149  -0.0134
    -0.0053  -0.0015   0.0001   0.0024   0.0037   0.0060   0.0090   0.0127
     0.0140   0.0251   0.0306   0.0329   0.0353   0.0437   0.0498   0.0556
     0.0628   0.0733   0.0833   0.0984   0.1017   0.1095   0.1179   0.1250
     0.1329   0.1375   0.1396   0.1412   0.1448   0.1499   0.1552   0.1561
     0.1622   0.1754   0.1792   0.1881   0.1895   0.2124   0.2289   0.2445
     0.2542   0.2636   0.2695   0.2760   0.2790   0.2865   0.2886   0.2925
     0.2952   0.2984   0.3035   0.3081   0.3144   0.3170   0.3214   0.3244
     0.3279   0.3334   0.3393   0.3403   0.3483   0.3556   0.3612   0.3780
     0.3835   0.3912   0.3956   0.3971   0.4005   0.4130   0.4198   0.4425
     0.4444   0.4496   0.4527   0.4543   0.4585   0.4617   0.4698   0.4759
     0.4775   0.4807   0.4830   0.4884   0.4922   0.4938   0.5069   0.5160
     0.5245   0.5305   0.5324   0.5359   0.5600   0.5651   0.5675   0.5709
     0.5792   0.5844   0.5929   0.6001   0.6014   0.6041   0.6074   0.6123
     0.6139   0.6184   0.6223   0.6270   0.6333   0.6435   0.6461   0.6486
     0.6528   0.6620   0.6628   0.6679   0.6696   0.6724   0.6739   0.6780
     0.6823   0.6871   0.6889   0.6897   0.6979   0.6999   0.7031   0.7042
     0.7082   0.7142   0.7185   0.7212   0.7275   0.7336   0.7505   0.7549
     0.7658   0.7680   0.7725   0.7834   0.7866   0.7998   0.8027   0.8142
     0.8179   0.8198   0.8224   0.8276   0.8360   0.8438   0.8494   0.8514
     0.8546   0.8561   0.8574   0.8594   0.8652   0.8695   0.8800   0.8846
     0.8870   0.8946   0.9028   0.9059   0.9136   0.9158   0.9234   0.9280
     0.9354   0.9389   0.9483   0.9517   0.9600   0.9681   0.9705   0.9741
     0.9788   0.9834   0.9874   0.9991   1.0034   1.0096   1.0161   1.0235
     1.0276   1.0312   1.0365   1.0441   1.0586   1.0625   1.0709   1.0754
     1.0790   1.0824   1.0883   1.0899   1.0911   1.0928   1.0951   1.0962
     1.0991   1.1010   1.1067   1.1087   1.1167   1.1241   1.1270   1.1300
     1.1453   1.1510   1.1578   1.1600   1.1675   1.1690   1.1727   1.1769
     1.1800   1.1829   1.1856   1.1881   1.1911   1.1922   1.1954   1.1964
     1.2007   1.2040   1.2067   1.2096   1.2114   1.2151   1.2178   1.2217
     1.2319   1.2367   1.2401   1.2421   1.2515   1.2579   1.2651   1.2728
     1.2757   1.2774   1.2810   1.2841   1.2900   1.2937   1.3001   1.3034
     1.3074   1.3100   1.3146   1.3172   1.3244   1.3260   1.3300   1.3334
     1.3391   1.3444   1.3456   1.3484   1.3506   1.3614   1.3665   1.3744
     1.3779   1.3802   1.3815   1.3845   1.3854   1.3867   1.3893   1.3919
     1.3962   1.4028   1.4067   1.4092   1.4132   1.4220   1.4257   1.4283
     1.4336   1.4356   1.4385   1.4394   1.4408   1.4414   1.4438   1.4478
     1.4535   1.4544   1.4776   1.4783   1.4800   1.4881   1.4938   1.4985
     1.5007   1.5046   1.5075   1.5132   1.5155   1.5289   1.5418   1.5503
     1.5549   1.5584   1.5729   1.5791   1.5971   1.6088   1.6320   1.6377
     1.6706   1.7127   1.7420   1.7487   1.7555   1.7631   1.7657   1.7780
     1.7869   1.7966   1.8178   1.8453   2.0369   2.1156   2.1290   2.1454
     2.1616   2.2840   2.3735   2.3963   2.5680   2.5829   2.6912   2.7716
     2.7807   2.7889   2.7919   2.8037   2.8208   2.8903   2.9412   2.9775
     3.0729   3.1866   3.2615   3.3432   3.5319   3.5932   3.6294   3.6816
     3.7319   3.7973   3.8395   3.8716   3.9479   3.9643   4.0546   4.0708
     4.1350   4.1630   4.2098   4.2935   4.3813   4.4278   4.4510   4.4813
     4.6041   4.6105   4.6789   4.7206   4.7534   4.7899   4.8688   4.9493
     4.9629   5.0276   5.1297   5.1923   5.2676   5.2810   5.3809   5.4415
     5.4492   5.4648   5.5218   5.6244   5.7217   5.7613   5.8329   5.9028
     5.9202   5.9520   6.0197   6.1126   6.3555   6.5121   6.5890   6.6223
     6.6620   6.7651   6.7754   6.8006   6.8943   6.9392   7.0364   7.0544
     7.0822   7.0892   7.1157   7.1820   7.2106   7.2182   7.2717   7.3130
     7.3424   7.3929   7.4196   7.4342   7.5104   7.6219   7.6579   7.7108
     7.7964   7.8256   7.8680   7.9112   7.9482   8.1050   8.1750   8.1927
     8.2186   8.2652   8.3244   8.4145   8.4282   8.5888   8.6131   8.6244
     8.6471   8.6575   8.6979   8.7185   8.7406   8.8331   8.8838   8.9033
     8.9191   8.9372   9.0124   9.0583   9.1186   9.1363   9.1733   9.1816
     9.2020   9.2293   9.2332   9.2589   9.2754   9.3388   9.3562   9.4192
     9.4304   9.4816   9.5145   9.6029   9.6334   9.6513   9.6702   9.7224
     9.8045   9.9185

          k =-0.5000 0.0000 0.0000 (256496 PWs)   bands (ev):

   -17.3446 -15.9210 -15.7209 -15.5629 -15.5476 -15.4884 -14.8033 -14.5368
   -14.4528 -14.4121 -13.2755 -12.8208 -12.6944 -12.6347 -12.3887 -12.2941
   -11.8891 -11.8520 -11.7360 -11.7307 -11.2209 -11.1537 -10.9402 -10.6906
   -10.2403 -10.2238 -10.0144  -9.6898  -9.3618  -9.0591  -8.9649  -8.8840
    -8.8235  -7.7057  -7.5619  -7.5230  -7.3594  -7.3071  -7.2811  -6.2121
    -6.1506  -5.7964  -5.4342  -5.2972  -5.2499  -5.1373  -5.0518  -4.9429
    -4.8002  -4.7936  -4.7889  -4.7859  -4.7321  -4.7179  -4.6766  -4.6458
    -4.6392  -4.6042  -4.5075  -4.4750  -4.4112  -4.3219  -4.3121  -4.3050
    -4.0077  -3.9888  -3.9506  -3.9446  -3.8477  -3.6776  -3.6702  -3.5985
    -3.5261  -3.5213  -3.5118  -3.4251  -3.4146  -3.4051  -3.3728  -3.3700
    -3.3549  -3.3169  -3.3036  -3.1444  -2.8942  -2.8928  -2.8045  -2.7802
    -2.7724  -2.7529  -2.7166  -2.6248  -2.6179  -2.5209  -2.4408  -2.4066
    -2.3916  -2.3327  -2.3270  -2.3045  -2.1545  -1.9205  -1.8912  -1.8784
    -1.8733  -1.8695  -1.8668  -1.8620  -1.8467  -1.8384  -1.8049  -1.7817
    -1.7482  -1.6803  -1.6603  -1.6485  -1.6455  -1.6415  -1.6203  -1.6120
    -1.5939  -1.5921  -1.5891  -1.5588  -1.5265  -1.4876  -1.4868  -1.4690
    -1.4478  -1.4375  -1.4232  -1.4200  -1.4169  -1.4090  -1.4019  -1.3991
    -1.3990  -1.3810  -1.3559  -1.3527  -1.3491  -1.3455  -1.3395  -1.3357
    -1.3322  -1.3043  -1.2964  -1.2955  -1.2889  -1.2800  -1.2677  -1.2638
    -1.2605  -1.2510  -1.2309  -1.2011  -1.1980  -1.1923  -1.1803  -1.1767
    -1.1753  -1.1731  -1.1548  -1.1509  -1.1492  -1.1406  -1.1303  -1.1043
    -1.1033  -1.1032  -1.1018  -1.0828  -1.0767  -1.0710  -1.0559  -1.0520
    -1.0475  -1.0217  -1.0128  -0.9960  -0.9886  -0.9811  -0.9774  -0.9714
    -0.9695  -0.9567  -0.9511  -0.9461  -0.9399  -0.9375  -0.9322  -0.9258
    -0.9233  -0.9228  -0.9199  -0.9172  -0.9097  -0.8754  -0.8739  -0.8605
    -0.8372  -0.8038  -0.8001  -0.7910  -0.7478  -0.7350  -0.7117  -0.7070
    -0.7052  -0.7034  -0.6802  -0.6749  -0.6735  -0.6700  -0.6668  -0.6632
    -0.6573  -0.6447  -0.6409  -0.6325  -0.6281  -0.6239  -0.6150  -0.6116
    -0.5980  -0.5929  -0.5921  -0.5711  -0.5441  -0.5302  -0.5067  -0.5038
    -0.4953  -0.4886  -0.4800  -0.4635  -0.4607  -0.4505  -0.4235  -0.4219
    -0.4095  -0.4083  -0.4007  -0.3987  -0.3956  -0.3903  -0.3832  -0.3766
    -0.3686  -0.3639  -0.3629  -0.3624  -0.3582  -0.3389  -0.3360  -0.3337
    -0.3330  -0.3013  -0.3003  -0.2889  -0.2874  -0.2839  -0.2812  -0.2555
    -0.2506  -0.2494  -0.2465  -0.2442  -0.2410  -0.2369  -0.2314  -0.2018
    -0.1968  -0.1925  -0.1825  -0.1635  -0.1584  -0.1445  -0.1401  -0.1384
    -0.1276  -0.1251  -0.1244  -0.1123  -0.1065  -0.0888  -0.0850  -0.0693
    -0.0664  -0.0554  -0.0523  -0.0515  -0.0322  -0.0275  -0.0241  -0.0237
    -0.0218  -0.0179  -0.0164  -0.0138  -0.0091  -0.0081  -0.0056   0.0162
     0.0358   0.0429   0.0524   0.0602   0.0621   0.0640   0.0685   0.0703
     0.0752   0.0774   0.0813   0.0849   0.0892   0.0926   0.0954   0.0995
     0.1026   0.1102   0.1137   0.1177   0.1187   0.1212   0.1237   0.1249
     0.1275   0.1280   0.1314   0.1363   0.1432   0.1460   0.1464   0.1512
     0.1526   0.1551   0.1576   0.1596   0.1721   0.1845   0.1987   0.2050
     0.2448   0.2589   0.2700   0.2756   0.2957   0.3008   0.3114   0.3157
     0.3203   0.3233   0.3270   0.3326   0.3354   0.3387   0.3403   0.3436
     0.3465   0.3491   0.3498   0.3527   0.3546   0.3615   0.3635   0.3664
     0.3695   0.3743   0.3761   0.3768   0.3779   0.3822   0.3880   0.3907
     0.3937   0.3990   0.4042   0.4092   0.4282   0.4484   0.4532   0.4598
     0.4705   0.4782   0.4861   0.4967   0.5016   0.5030   0.5120   0.5162
     0.5187   0.5238   0.5255   0.5273   0.5284   0.5309   0.5353   0.5375
     0.5410   0.5412   0.5437   0.5463   0.5526   0.5571   0.5598   0.5698
     0.5753   0.5828   0.5855   0.5921   0.6002   0.6047   0.6104   0.6188
     0.6206   0.6232   0.6256   0.6302   0.6327   0.6355   0.6393   0.6419
     0.6432   0.6521   0.6556   0.6610   0.6633   0.6660   0.6704   0.6814
     0.6869   0.6929   0.7058   0.7107   0.7133   0.7153   0.7222   0.7249
     0.7278   0.7342   0.7431   0.7565   0.7630   0.7668   0.7718   0.7856
     0.7973   0.8031   0.8256   0.8283   0.8329   0.8349   0.8387   0.8407
     0.8438   0.8455   0.8458   0.8493   0.8528   0.8546   0.8599   0.8616
     0.8660   0.8717   0.8774   0.8809   0.8860   0.8864   0.8916   0.9019
     0.9064   0.9110   0.9132   0.9149   0.9265   0.9308   0.9390   0.9475
     0.9535   0.9636   0.9706   1.0015   1.0053   1.0071   1.0128   1.0197
     1.0269   1.0314   1.0344   1.0565   1.0625   1.0649   1.0677   1.0703
     1.0752   1.0784   1.0858   1.0900   1.0927   1.0987   1.1002   1.1108
     1.1171   1.1188   1.1205   1.1253   1.1270   1.1295   1.1301   1.1311
     1.1351   1.1372   1.1396   1.1415   1.1442   1.1529   1.1671   1.1706
     1.1771   1.1800   1.1806   1.1835   1.1863   1.1974   1.2017   1.2085
     1.2092   1.2178   1.2247   1.2334   1.2356   1.2364   1.2419   1.2447
     1.2464   1.2465   1.2499   1.2528   1.2570   1.2602   1.2643   1.2658
     1.2748   1.2820   1.2861   1.2992   1.3048   1.3071   1.3095   1.3120
     1.3149   1.3161   1.3171   1.3192   1.3204   1.3227   1.3249   1.3283
     1.3286   1.3303   1.3316   1.3324   1.3337   1.3352   1.3364   1.3408
     1.3469   1.3491   1.3496   1.3597   1.3600   1.3646   1.3703   1.3740
     1.3785   1.3796   1.3837   1.3848   1.4038   1.4147   1.4162   1.4182
     1.4216   1.4224   1.4276   1.4300   1.4326   1.4389   1.4426   1.4435
     1.4496   1.4544   1.4570   1.4612   1.4626   1.4642   1.4666   1.4712
     1.4718   1.4755   1.4765   1.4770   1.4870   1.4926   1.5132   1.5139
     1.5151   1.5155   1.5161   1.5202   1.5213   1.5336   1.5713   1.5727
     1.5925   1.5976   1.6058   1.6074   1.6108   1.6196   1.7865   1.9091
     1.9959   2.0299   2.0661   2.1457   2.2304   2.2335   2.2422   2.2730
     2.2849   2.2907   2.4171   2.4728   2.4985   2.6134   2.6768   2.7592
     2.8086   2.8234   2.8427   2.8449   3.1120   3.1320   3.1788   3.1944
     3.2587   3.2844   3.5030   3.6024   3.7517   3.7783   3.8228   3.8393
     3.9156   3.9202   4.0123   4.0544   4.0716   4.0977   4.1128   4.1493
     4.2910   4.4578   4.4595   4.6205   4.6591   4.7296   4.7325   4.7971
     4.8119   4.8402   4.8564   4.8894   4.9089   4.9347   5.0162   5.0276
     5.0333   5.0457   5.0574   5.0621   5.0669   5.1009   5.1645   5.1840
     5.3268   5.3825   5.4162   5.4520   5.5103   5.5377   5.6300   5.7419
     5.8155   5.8413   5.9049   5.9704   5.9925   5.9983   6.0097   6.0306
     6.0862   6.1603   6.2754   6.3746   6.4162   6.4457   6.4826   6.5061
     6.5393   6.5523   7.0175   7.0683   7.0951   7.1035   7.2074   7.2477
     7.4870   7.5682   7.5957   7.6030   7.6060   7.6154   7.7210   7.7265
     7.7487   7.8001   7.8231   7.8653   7.8855   7.9078   7.9696   7.9998
     8.0489   8.0791   8.0874   8.1208   8.1423   8.2737   8.3868   8.4431
     8.7081   8.7102   8.7698   8.7745   8.7811   8.7889   8.8174   8.8229
     8.8799   8.9308   9.0037   9.0090   9.0380   9.0758   9.1676   9.2308
     9.2483   9.2645   9.3166   9.3954   9.4276   9.4777   9.4942   9.5135
     9.5140   9.5154   9.5174   9.5210   9.5544   9.6698   9.7308   9.7818
     9.8278   9.8735

          k =-0.5000-0.2165 0.0000 (256328 PWs)   bands (ev):

   -17.3446 -15.8748 -15.7755 -15.7554 -15.3601 -15.1411 -15.0932 -15.0430
   -14.0751 -13.7561 -13.6451 -13.6061 -12.7209 -12.3051 -11.9580 -11.9554
   -11.8548 -11.7016 -11.6063 -11.5308 -11.4806 -11.4657 -11.3698 -11.3527
   -10.0561  -9.8986  -9.7346  -9.6806  -9.3044  -9.0416  -8.7417  -8.7245
    -8.6982  -8.1814  -8.1313  -7.9607  -7.9520  -6.4608  -6.2575  -6.0934
    -5.8925  -5.7686  -5.5401  -5.3893  -5.3234  -5.2556  -5.2205  -5.1761
    -5.1756  -5.1618  -5.1173  -4.9815  -4.9662  -4.8832  -4.4989  -4.3485
    -4.3139  -4.2928  -4.2849  -4.2016  -4.2013  -4.1980  -4.1900  -4.1828
    -4.1506  -4.0423  -3.9839  -3.8838  -3.8406  -3.8373  -3.7898  -3.7181
    -3.6888  -3.6299  -3.6226  -3.5637  -3.5547  -3.5386  -3.4765  -3.4404
    -3.4068  -3.1736  -3.0466  -3.0394  -3.0214  -2.6380  -2.6057  -2.6012
    -2.5745  -2.5670  -2.5489  -2.5438  -2.5395  -2.5296  -2.5211  -2.3582
    -2.3288  -2.2845  -2.1919  -2.1572  -2.0917  -2.0821  -2.0680  -2.0506
    -2.0445  -2.0368  -2.0132  -2.0056  -1.9638  -1.9028  -1.8512  -1.7989
    -1.7947  -1.7890  -1.7819  -1.7715  -1.6858  -1.5942  -1.5409  -1.5180
    -1.4942  -1.4903  -1.4865  -1.4842  -1.4798  -1.4742  -1.4715  -1.4544
    -1.4389  -1.4333  -1.4245  -1.4240  -1.4060  -1.4011  -1.3918  -1.3836
    -1.3822  -1.3760  -1.3738  -1.3681  -1.3606  -1.3555  -1.3541  -1.3523
    -1.3455  -1.3235  -1.3175  -1.3021  -1.3003  -1.2992  -1.2806  -1.2707
    -1.2321  -1.2049  -1.1927  -1.1888  -1.1870  -1.1849  -1.1823  -1.1699
    -1.1638  -1.1612  -1.1574  -1.1398  -1.1377  -1.1177  -1.1159  -1.1142
    -1.1107  -1.1096  -1.0965  -1.0910  -1.0864  -1.0845  -1.0601  -1.0543
    -1.0474  -1.0464  -1.0427  -1.0411  -1.0391  -1.0348  -1.0328  -1.0305
    -1.0291  -1.0259  -1.0249  -0.9848  -0.9758  -0.9547  -0.9333  -0.9205
    -0.8775  -0.8529  -0.8522  -0.8513  -0.8476  -0.8346  -0.8333  -0.8252
    -0.7879  -0.7775  -0.7704  -0.7663  -0.7644  -0.7633  -0.7595  -0.7568
    -0.7511  -0.7258  -0.7061  -0.7002  -0.6965  -0.6956  -0.6918  -0.6910
    -0.6829  -0.6799  -0.6753  -0.6722  -0.6592  -0.6473  -0.6117  -0.5841
    -0.5804  -0.5741  -0.5664  -0.5609  -0.5601  -0.5471  -0.5190  -0.5120
    -0.5039  -0.4978  -0.4822  -0.4774  -0.4698  -0.4517  -0.4502  -0.4457
    -0.4446  -0.4283  -0.4265  -0.4221  -0.4058  -0.4026  -0.3992  -0.3977
    -0.3920  -0.3872  -0.3775  -0.3605  -0.3539  -0.3423  -0.3137  -0.2920
    -0.2849  -0.2724  -0.2714  -0.2626  -0.2589  -0.2554  -0.2516  -0.2499
    -0.2398  -0.2362  -0.2337  -0.2071  -0.1773  -0.1694  -0.1677  -0.1654
    -0.1612  -0.1548  -0.1517  -0.1503  -0.1452  -0.1428  -0.1392  -0.1212
    -0.1164  -0.1098  -0.1080  -0.1070  -0.1047  -0.1022  -0.0999  -0.0964
    -0.0947  -0.0869  -0.0853  -0.0651  -0.0618  -0.0456  -0.0393  -0.0343
    -0.0219  -0.0090  -0.0060  -0.0009   0.0105   0.0197   0.0300   0.0560
     0.0607   0.0645   0.0701   0.0756   0.0772   0.0782   0.0800   0.0833
     0.0849   0.0865   0.0888   0.0901   0.0932   0.0972   0.0987   0.0996
     0.1020   0.1054   0.1114   0.1138   0.1193   0.1209   0.1238   0.1283
     0.1302   0.1338   0.1365   0.1418   0.1477   0.1490   0.1587   0.1607
     0.1649   0.1681   0.1696   0.2045   0.2072   0.2123   0.2171   0.2292
     0.2377   0.2431   0.2463   0.2501   0.2718   0.2809   0.3105   0.3154
     0.3237   0.3245   0.3290   0.3315   0.3351   0.3371   0.3433   0.3434
     0.3486   0.3496   0.3570   0.3608   0.3619   0.3660   0.3672   0.3702
     0.3745   0.3760   0.3777   0.3832   0.3870   0.3943   0.3970   0.4004
     0.4074   0.4123   0.4232   0.4247   0.4279   0.4353   0.4391   0.4462
     0.4665   0.4679   0.4705   0.4715   0.4753   0.4822   0.4868   0.4916
     0.4959   0.5006   0.5123   0.5161   0.5182   0.5263   0.5310   0.5352
     0.5391   0.5500   0.5533   0.5544   0.5618   0.5668   0.5718   0.5720
     0.5728   0.5735   0.5751   0.5779   0.5810   0.5835   0.5861   0.5872
     0.5912   0.5982   0.6045   0.6061   0.6226   0.6329   0.6489   0.6646
     0.6704   0.6709   0.6763   0.6803   0.6847   0.6876   0.6889   0.6900
     0.6937   0.7017   0.7073   0.7152   0.7173   0.7178   0.7204   0.7237
     0.7295   0.7318   0.7333   0.7340   0.7510   0.7598   0.7643   0.7718
     0.7822   0.7849   0.7917   0.8001   0.8088   0.8101   0.8146   0.8206
     0.8303   0.8347   0.8434   0.8463   0.8519   0.8556   0.8617   0.8670
     0.8752   0.8782   0.8830   0.9143   0.9246   0.9257   0.9281   0.9358
     0.9414   0.9473   0.9523   0.9640   0.9888   0.9920   0.9980   1.0037
     1.0081   1.0098   1.0160   1.0169   1.0211   1.0312   1.0321   1.0365
     1.0385   1.0418   1.0445   1.0460   1.0476   1.0482   1.0498   1.0529
     1.0563   1.0615   1.0626   1.0651   1.0698   1.0704   1.0750   1.0779
     1.0841   1.0850   1.0939   1.0974   1.1030   1.1049   1.1212   1.1230
     1.1241   1.1267   1.1282   1.1293   1.1340   1.1345   1.1381   1.1414
     1.1467   1.1506   1.1653   1.1690   1.1816   1.1863   1.1896   1.1956
     1.1979   1.2034   1.2068   1.2135   1.2190   1.2228   1.2309   1.2345
     1.2381   1.2419   1.2524   1.2543   1.2568   1.2596   1.2620   1.2690
     1.2714   1.2758   1.2791   1.2812   1.2824   1.2865   1.2902   1.2930
     1.3149   1.3221   1.3268   1.3283   1.3365   1.3390   1.3439   1.3501
     1.3547   1.3553   1.3570   1.3592   1.3603   1.3609   1.3644   1.3697
     1.3738   1.3740   1.3757   1.3762   1.3797   1.3833   1.3870   1.3881
     1.3891   1.3906   1.3921   1.3942   1.3977   1.4019   1.4049   1.4062
     1.4066   1.4083   1.4099   1.4121   1.4295   1.4331   1.4422   1.4445
     1.4481   1.4497   1.4538   1.4568   1.4598   1.4661   1.4718   1.4734
     1.4934   1.4952   1.5012   1.5025   1.5207   1.5331   1.5377   1.5436
     1.5489   1.5619   1.5701   1.5743   1.5747   1.5803   1.5887   1.5954
     1.5964   1.6003   1.6031   1.6093   1.6109   1.6114   1.6174   1.6181
     1.7664   1.7777   1.8296   1.8311   2.0700   2.1378   2.3089   2.3422
     2.4132   2.4356   2.5028   2.5560   2.5600   2.5994   2.7818   2.7890
     2.8014   2.8643   2.9580   2.9859   3.0856   3.1685   3.2918   3.4050
     3.4519   3.4588   3.5271   3.5960   3.6389   3.6434   3.7800   3.8290
     3.9279   3.9359   3.9568   4.0071   4.2169   4.2272   4.2320   4.2964
     4.3217   4.3549   4.3744   4.4044   4.5441   4.5551   4.5895   4.5947
     4.6492   4.6790   4.7658   4.8648   4.9005   4.9227   4.9516   5.0273
     5.0631   5.0950   5.1110   5.1612   5.1660   5.1959   5.2455   5.2740
     5.2853   5.2962   5.3348   5.3443   5.4905   5.5978   5.6578   5.6708
     5.7267   5.7426   5.7524   5.7549   5.7609   5.7761   5.8284   5.8944
     5.9566   6.0610   6.7345   6.7624   6.8035   6.8168   6.8571   6.9487
     7.1051   7.1165   7.1281   7.1428   7.1510   7.1886   7.2078   7.2608
     7.2955   7.3229   7.3421   7.3655   7.3769   7.4042   7.4521   7.5440
     7.5887   7.7687   7.8076   7.8922   7.9338   7.9741   7.9881   8.0353
     8.1476   8.1646   8.2143   8.2341   8.2394   8.3790   8.4043   8.4113
     8.4506   8.5805   8.6981   8.7781   8.8620   8.8837   8.8998   8.9235
     8.9314   8.9350   8.9443   8.9653   9.0064   9.0591   9.1157   9.1358
     9.1380   9.1528   9.1764   9.2561   9.4002   9.4062   9.4129   9.4308
     9.5071   9.5444   9.5560   9.5612   9.6113   9.6247   9.6703   9.7668
     9.8208   9.9212

     the Fermi energy is     3.3243 ev

!    total energy              =  -12718.35376823 Ry
     Harris-Foulkes estimate   =  -12718.35376822 Ry
     estimated scf accuracy    <          4.4E-09 Ry

     The total energy is the sum of the following terms:

     one-electron contribution = -109437.99743039 Ry
     hartree contribution      =   56082.11683376 Ry
     xc contribution           =   -4451.04791137 Ry
     ewald contribution        =   45094.94259420 Ry
     Dispersion Correction     =      -3.00636478 Ry
     smearing contrib. (-TS)   =      -3.36148965 Ry

     convergence has been achieved in  45 iterations

     Writing output data file gc.save
 
     init_run     :     98.84s CPU    106.92s WALL (       1 calls)
     electrons    :  12402.72s CPU  13252.11s WALL (       1 calls)

     Called by init_run:
     wfcinit      :     96.63s CPU    104.22s WALL (       1 calls)
     potinit      :      0.36s CPU      0.38s WALL (       1 calls)

     Called by electrons:
     c_bands      :  11398.56s CPU  12148.19s WALL (      45 calls)
     sum_band     :    832.16s CPU    904.85s WALL (      45 calls)
     v_of_rho     :      3.17s CPU      3.71s WALL (      46 calls)
     newd         :      9.47s CPU     15.00s WALL (      46 calls)
     mix_rho      :    159.17s CPU    180.19s WALL (      45 calls)

     Called by c_bands:
     init_us_2    :     37.21s CPU     37.63s WALL (     546 calls)
     cegterg      :  11217.29s CPU  11961.16s WALL (     276 calls)

     Called by sum_band:
     sum_band:bec :      4.49s CPU      5.18s WALL (     270 calls)
     addusdens    :      9.04s CPU     14.56s WALL (      45 calls)

     Called by *egterg:
     h_psi        :   4084.81s CPU   4416.83s WALL (    1925 calls)
     s_psi        :    961.42s CPU    972.92s WALL (    1925 calls)
     g_psi        :     10.28s CPU     10.27s WALL (    1643 calls)
     cdiaghg      :   3315.64s CPU   3441.50s WALL (    1913 calls)

     Called by h_psi:
     add_vuspsi   :    966.62s CPU    979.15s WALL (    1925 calls)

     General routines
     calbec       :   1402.16s CPU   1412.46s WALL (    2195 calls)
     fft          :      4.75s CPU      5.34s WALL (     597 calls)
     ffts         :     94.28s CPU    106.94s WALL (   24254 calls)
     fftw         :   2388.93s CPU   2658.72s WALL ( 1311756 calls)
     davcio       :      0.23s CPU      5.95s WALL (       6 calls)
 
     Parallel routines
     fft_scatter  :   1559.63s CPU   1705.88s WALL ( 1336607 calls)
 
     PWSCF        :     3h28m CPU        3h42m WALL

 
   This run was terminated on:   1:16:37  27Apr2017            

=------------------------------------------------------------------------------=
   JOB DONE.
=------------------------------------------------------------------------------=
