mpirun: INFO: switching to OpenMPI runtime version 1.10.2

     Program PWSCF v.5.4.0 starts on 12May2017 at 10:20: 5 

     This program is part of the open-source Quantum ESPRESSO suite
     for quantum simulation of materials; please cite
         "P. Giannozzi et al., J. Phys.:Condens. Matter 21 395502 (2009);
          URL http://www.quantum-espresso.org", 
     in publications or presentations arising from this work. More details at
     http://www.quantum-espresso.org/quote

     Parallel version (MPI & OpenMP), running on      56 processor cores
     Number of MPI processes:                56
     Threads/MPI process:                     1
     R & G space division:  proc/nbgrp/npool/nimage =      56
     Waiting for input...
     Reading input from standard input
Warning: card &IONS ignored
Warning: card / ignored

     Current dimensions of program PWSCF are:
     Max number of different atomic species (ntypx) = 10
     Max number of k-points (npk) =  40000
     Max angular momentum in pseudopotentials (lmaxx) =  3

     -------------------------------------
     Parameters for Dispersion Correction:
     -------------------------------------
       atom      VdW radius       C_6     

        Cu         2.952        374.666
        C_h        2.744         60.710
        C          2.744         60.710
        H          1.892          4.857

     Subspace diagonalization in iterative solution of the eigenvalue problem:
     one sub-group per band group will be used
     scalapack distributed-memory algorithm (size of sub-group:  5*  5 procs)

 
     Parallelization info
     --------------------
     sticks:   dense  smooth     PW     G-vecs:    dense   smooth      PW
     Min         204     204     54                36612    36612    4962
     Max         205     205     55                36617    36617    4968
     Sum       11433   11433   3039              2050409  2050409  278033
 


     bravais-lattice index     =            0
     lattice parameter (alat)  =      13.9425  a.u.
     unit-cell volume          =   21209.0878 (a.u.)^3
     number of atoms/cell      =          149
     number of atomic types    =            4
     number of electrons       =      1293.00
     number of Kohn-Sham states=          776
     kinetic-energy cutoff     =      80.0000  Ry
     charge density cutoff     =     320.0000  Ry
     convergence threshold     =      1.0E-08
     mixing beta               =       0.7000
     number of iterations used =            8  local-TF  mixing
     Exchange-correlation      =  SLA  PW   PBE  PBE ( 1  4  3  4 0 0)

     celldm(1)=  13.942539  celldm(2)=   0.000000  celldm(3)=   0.000000
     celldm(4)=   0.000000  celldm(5)=   0.000000  celldm(6)=   0.000000

     crystal axes: (cart. coord. in units of alat)
               a(1) = (   1.000000   0.000000   0.000000 )  
               a(2) = (   0.000000   2.309401   0.000000 )  
               a(3) = (   0.000000   0.000000   3.388418 )  

     reciprocal axes: (cart. coord. in units 2 pi/alat)
               b(1) = (  1.000000  0.000000  0.000000 )  
               b(2) = (  0.000000  0.433013  0.000000 )  
               b(3) = (  0.000000  0.000000  0.295123 )  


     PseudoPot. # 1 for Cu read from file:
     /home/549/hxw549/Short/pseudopotentials/Cu.pbe-n-van_ak.UPF
     MD5 check sum: 601f7c30f7467666bec936e0661ce3e1
     Pseudo is Ultrasoft + core correction, Zval = 11.0
     Generated by new atomic code, or converted to UPF format
     Using radial grid of  867 points,  6 beta functions with: 
                l(1) =   0
                l(2) =   0
                l(3) =   1
                l(4) =   1
                l(5) =   2
                l(6) =   2
     Q(r) pseudized with  8 coefficients,  rinner =    1.400   1.400   1.400
                                                       1.400   1.400

     PseudoPot. # 2 for C  read from file:
     /home/549/hxw549/Short/pseudopotentials/C.star1s-pbe-mt_gipaw.UPF
     MD5 check sum: ef0cb3dee31bd9e4ba2a832a2c716264
     Pseudo is Norm-conserving, Zval =  5.0
     Generated by new atomic code, or converted to UPF format
     Using radial grid of 1073 points,  1 beta functions with: 
                l(1) =   0

     PseudoPot. # 3 for C  read from file:
     /home/549/hxw549/Short/pseudopotentials/C.pbe-mt_gipaw.UPF
     MD5 check sum: 5ac2f21f2c440b14befe521540822c15
     Pseudo is Norm-conserving, Zval =  4.0
     Generated by new atomic code, or converted to UPF format
     Using radial grid of 1073 points,  1 beta functions with: 
                l(1) =   0

     PseudoPot. # 4 for H  read from file:
     /home/549/hxw549/Short/pseudopotentials/H.pbe-van_ak.UPF
     MD5 check sum: 077eb6d537518a38cb46c6de387227b7
     Pseudo is Ultrasoft, Zval =  1.0
     Generated by new atomic code, or converted to UPF format
     Using radial grid of  615 points,  1 beta functions with: 
                l(1) =   0
     Q(r) pseudized with  8 coefficients,  rinner =    0.800

     atomic species   valence    mass     pseudopotential
        Cu            11.00    63.54600     Cu( 1.00)
        C_h            5.00    12.01070     C ( 1.00)
        C              4.00    12.01070     C ( 1.00)
        H              1.00     1.00783     H ( 1.00)

     No symmetry found



   Cartesian axes

     site n.     atom                  positions (alat units)
         1           Cu  tau(   1) = (   0.0001062  -0.0002701   0.9985021  )
         2           Cu  tau(   2) = (   0.2500787   0.2310134   0.9985351  )
         3           Cu  tau(   3) = (   0.5001031  -0.0002030   0.9984957  )
         4           Cu  tau(   4) = (   0.7501278   0.2310331   0.9985380  )
         5           Cu  tau(   5) = (   0.0000980   0.4619866   0.9984814  )
         6           Cu  tau(   6) = (   0.2501083   0.6927319   0.9981769  )
         7           Cu  tau(   7) = (   0.5001095   0.4619569   0.9984100  )
         8           Cu  tau(   8) = (   0.7501047   0.6927365   0.9981595  )
         9           Cu  tau(   9) = (   0.0001111   0.9234701   0.9979600  )
        10           Cu  tau(  10) = (   0.2501267   1.1541690   0.9980943  )
        11           Cu  tau(  11) = (   0.5001118   0.9234548   0.9979528  )
        12           Cu  tau(  12) = (   0.7501036   1.1541603   0.9980828  )
        13           Cu  tau(  13) = (   0.0001161   1.3847735   0.9984261  )
        14           Cu  tau(  14) = (   0.2501209   1.6154338   0.9987173  )
        15           Cu  tau(  15) = (   0.5001193   1.3847925   0.9985012  )
        16           Cu  tau(  16) = (   0.7501117   1.6154180   0.9987198  )
        17           Cu  tau(  17) = (   0.0001077   1.8463630   0.9986692  )
        18           Cu  tau(  18) = (   0.2501164   2.0776756   0.9985055  )
        19           Cu  tau(  19) = (   0.5001155   1.8463207   0.9986800  )
        20           Cu  tau(  20) = (   0.7500984   2.0776748   0.9985316  )
        21           Cu  tau(  21) = (   0.0001142   0.2310039   1.2467663  )
        22           Cu  tau(  22) = (   0.2501082  -0.0003075   1.2464524  )
        23           Cu  tau(  23) = (   0.5001128   0.2310801   1.2467556  )
        24           Cu  tau(  24) = (   0.7501188  -0.0003027   1.2464412  )
        25           Cu  tau(  25) = (   0.0001174   0.6930674   1.2468122  )
        26           Cu  tau(  26) = (   0.2501222   0.4621895   1.2468825  )
        27           Cu  tau(  27) = (   0.5001258   0.6930014   1.2467758  )
        28           Cu  tau(  28) = (   0.7501104   0.4622021   1.2469065  )
        29           Cu  tau(  29) = (   0.0001284   1.1538705   1.2468417  )
        30           Cu  tau(  30) = (   0.2501381   0.9235067   1.2466962  )
        31           Cu  tau(  31) = (   0.5001386   1.1538127   1.2468886  )
        32           Cu  tau(  32) = (   0.7501164   0.9235074   1.2467107  )
        33           Cu  tau(  33) = (   0.0001378   1.6152162   1.2472012  )
        34           Cu  tau(  34) = (   0.2501478   1.3843762   1.2471956  )
        35           Cu  tau(  35) = (   0.5001388   1.6152561   1.2473273  )
        36           Cu  tau(  36) = (   0.7501281   1.3843636   1.2472131  )
        37           Cu  tau(  37) = (   0.0001187   2.0777131   1.2464476  )
        38           Cu  tau(  38) = (   0.2501285   1.8464123   1.2468533  )
        39           Cu  tau(  39) = (   0.5001218   2.0777351   1.2463692  )
        40           Cu  tau(  40) = (   0.7501305   1.8464055   1.2468590  )
        41           Cu  tau(  41) = (   0.0001398  -0.0005976   1.4956460  )
        42           Cu  tau(  42) = (   0.2501884   0.2308765   1.4958148  )
        43           Cu  tau(  43) = (   0.5001240  -0.0005707   1.4955169  )
        44           Cu  tau(  44) = (   0.7500756   0.2308766   1.4958139  )
        45           Cu  tau(  45) = (   0.0001366   0.4623698   1.4961838  )
        46           Cu  tau(  46) = (   0.2501764   0.6932994   1.4967045  )
        47           Cu  tau(  47) = (   0.5001356   0.4624606   1.4964121  )
        48           Cu  tau(  48) = (   0.7501124   0.6933120   1.4967337  )
        49           Cu  tau(  49) = (   0.0001553   0.9235898   1.4970496  )
        50           Cu  tau(  50) = (   0.2501228   1.1534113   1.4971363  )
        51           Cu  tau(  51) = (   0.5001412   0.9233830   1.4970945  )
        52           Cu  tau(  52) = (   0.7501941   1.1533954   1.4971565  )
        53           Cu  tau(  53) = (   0.0001622   1.3839302   1.4970342  )
        54           Cu  tau(  54) = (   0.2501526   1.6151711   1.4965927  )
        55           Cu  tau(  55) = (   0.5001668   1.3837547   1.4970188  )
        56           Cu  tau(  56) = (   0.7501879   1.6151672   1.4966010  )
        57           Cu  tau(  57) = (   0.0001650   1.8465727   1.4960685  )
        58           Cu  tau(  58) = (   0.2500999   2.0778210   1.4957140  )
        59           Cu  tau(  59) = (   0.5001584   1.8468456   1.4960878  )
        60           Cu  tau(  60) = (   0.7501879   2.0778198   1.4957306  )
        61           Cu  tau(  61) = (   0.0001517   0.2305471   1.7439360  )
        62           Cu  tau(  62) = (   0.2502748  -0.0006169   1.7447258  )
        63           Cu  tau(  63) = (   0.5001687   0.2302578   1.7444685  )
        64           Cu  tau(  64) = (   0.7500432  -0.0006116   1.7447253  )
        65           Cu  tau(  65) = (   0.0001525   0.6931548   1.7461986  )
        66           Cu  tau(  66) = (   0.2506154   0.4620556   1.7449625  )
        67           Cu  tau(  67) = (   0.5001896   0.6934823   1.7472335  )
        68           Cu  tau(  68) = (   0.7497210   0.4620354   1.7449991  )
        69           Cu  tau(  69) = (   0.0001607   1.1532693   1.7480559  )
        70           Cu  tau(  70) = (   0.2503663   0.9233382   1.7478123  )
        71           Cu  tau(  71) = (   0.5001786   1.1527037   1.7477931  )
        72           Cu  tau(  72) = (   0.7499536   0.9233549   1.7478449  )
        73           Cu  tau(  73) = (   0.0001791   1.6153090   1.7455076  )
        74           Cu  tau(  74) = (   0.2499874   1.3836365   1.7463173  )
        75           Cu  tau(  75) = (   0.5001888   1.6153878   1.7445883  )
        76           Cu  tau(  76) = (   0.7503648   1.3836347   1.7463380  )
        77           Cu  tau(  77) = (   0.0001652   2.0778124   1.7452608  )
        78           Cu  tau(  78) = (   0.2499577   1.8469924   1.7449953  )
        79           Cu  tau(  79) = (   0.5001761   2.0781916   1.7452680  )
        80           Cu  tau(  80) = (   0.7504179   1.8469935   1.7450127  )
        81           Cu  tau(  81) = (   0.0001715   0.0001696   1.9902234  )
        82           Cu  tau(  82) = (   0.2502611   0.2304366   1.9900343  )
        83           Cu  tau(  83) = (   0.5002197  -0.0000844   1.9920463  )
        84           Cu  tau(  84) = (   0.7501451   0.2303807   1.9901791  )
        85           Cu  tau(  85) = (   0.0001409   0.4610770   1.9887770  )
        86           Cu  tau(  86) = (   0.2519728   0.6915446   1.9926216  )
        87           Cu  tau(  87) = (   0.5002714   0.4595661   1.9916901  )
        88           Cu  tau(  88) = (   0.7484151   0.6915568   1.9927390  )
        89           Cu  tau(  89) = (   0.0001109   0.9219076   1.9940306  )
        90           Cu  tau(  90) = (   0.2509317   1.1538053   1.9950377  )
        91           Cu  tau(  91) = (   0.5002227   0.9233362   1.9991762  )
        92           Cu  tau(  92) = (   0.7493995   1.1538291   1.9951609  )
        93           Cu  tau(  93) = (   0.0001298   1.3845380   1.9935689  )
        94           Cu  tau(  94) = (   0.2494337   1.6156610   1.9901388  )
        95           Cu  tau(  95) = (   0.5002175   1.3857850   1.9912431  )
        96           Cu  tau(  96) = (   0.7509197   1.6157167   1.9901779  )
        97           Cu  tau(  97) = (   0.0002010   1.8470434   1.9918987  )
        98           Cu  tau(  98) = (   0.2503312   2.0781345   1.9911027  )
        99           Cu  tau(  99) = (   0.5001876   1.8460428   1.9897390  )
       100           Cu  tau( 100) = (   0.7500454   2.0781106   1.9911824  )
       101           C   tau( 101) = (   0.0003000   0.0978087   2.3877304  )
       102           C   tau( 102) = (   0.0003184   0.2900119   2.3856958  )
       103           C   tau( 103) = (   0.1669668   0.0017950   2.3872556  )
       104           C   tau( 104) = (   0.1667498   0.3861250   2.3825853  )
       105           C   tau( 105) = (   0.3335057   0.0979316   2.3852403  )
       106           C   tau( 106) = (   0.3334842   0.2901708   2.3834463  )
       107           C   tau( 107) = (   0.5002978   0.0015822   2.3846346  )
       108           C   tau( 108) = (   0.5003897   0.3869811   2.3836731  )
       109           C   tau( 109) = (   0.6671305   0.0978857   2.3858069  )
       110           C   tau( 110) = (   0.6672112   0.2901189   2.3840939  )
       111           C   tau( 111) = (   0.8336390   0.0017613   2.3876797  )
       112           C   tau( 112) = (   0.8338939   0.3861424   2.3831273  )
       113           C   tau( 113) = (   0.0003325   0.6747222   2.3774287  )
       114           C   tau( 114) = (   0.0003109   0.8670655   2.3756581  )
       115           C   tau( 115) = (   0.1665696   0.5783202   2.3786596  )
       116           C   tau( 116) = (   0.1673342   0.9630378   2.3844795  )
       117           C   tau( 117) = (   0.3330081   0.6754849   2.3837621  )
       118           C   tau( 118) = (   0.3308756   0.8659615   2.3913750  )
       119           C   tau( 119) = (   0.5003706   0.5786899   2.3870649  )
       120           C   tau( 120) = (   0.5002405   0.9634325   2.4431809  )
       121           H   tau( 121) = (   0.4995975   0.9609870   2.5959454  )
       122           C   tau( 122) = (   0.6677086   0.6755115   2.3842438  )
       123           C   tau( 123) = (   0.6697853   0.8659772   2.3921054  )
       124           C   tau( 124) = (   0.8341199   0.5783477   2.3792482  )
       125           C   tau( 125) = (   0.8333105   0.9630290   2.3849179  )
       126           C   tau( 126) = (   0.0004020   1.2520724   2.3870267  )
       127           C   tau( 127) = (   0.0004025   1.4451755   2.3815712  )
       128           C   tau( 128) = (   0.1670681   1.1564086   2.3893699  )
       129           C   tau( 129) = (   0.1671401   1.5416071   2.3811226  )
       130           C_h tau( 130) = (   0.3345797   1.2533025   2.3895913  )
       131           C   tau( 131) = (   0.3339906   1.4459872   2.3843272  )
       132           C   tau( 132) = (   0.5004360   1.1601743   2.3973219  )
       133           C   tau( 133) = (   0.5004344   1.5419259   2.3857438  )
       134           C   tau( 134) = (   0.6662994   1.2533218   2.3900622  )
       135           C   tau( 135) = (   0.6669051   1.4459974   2.3848351  )
       136           C   tau( 136) = (   0.8337342   1.1564012   2.3899329  )
       137           C   tau( 137) = (   0.8336802   1.5416439   2.3815460  )
       138           C   tau( 138) = (   0.0003242   1.8304356   2.3806540  )
       139           C   tau( 139) = (   0.0002579   2.0228029   2.3850643  )
       140           C   tau( 140) = (   0.1671501   1.7340969   2.3815095  )
       141           C   tau( 141) = (   0.1668791   2.1188753   2.3858106  )
       142           C   tau( 142) = (   0.3336897   1.8302293   2.3846875  )
       143           C   tau( 143) = (   0.3336549   2.0226017   2.3851744  )
       144           C   tau( 144) = (   0.5003773   1.7343588   2.3854412  )
       145           C   tau( 145) = (   0.5002558   2.1186784   2.3861815  )
       146           C   tau( 146) = (   0.6669817   1.8302723   2.3850179  )
       147           C   tau( 147) = (   0.6668813   2.0226289   2.3856046  )
       148           C   tau( 148) = (   0.8335225   1.7341201   2.3817501  )
       149           C   tau( 149) = (   0.8336415   2.1188792   2.3862952  )

     number of k points=     6  gaussian smearing, width (Ry)=  0.1000
                       cart. coord. in units 2pi/alat
        k(    1) = (   0.0000000   0.0000000   0.0000000), wk =   0.2500000
        k(    2) = (   0.0000000  -0.2165064   0.0000000), wk =   0.2500000
        k(    3) = (   0.2500000   0.0000000   0.0000000), wk =   0.5000000
        k(    4) = (   0.2500000  -0.2165064   0.0000000), wk =   0.5000000
        k(    5) = (  -0.5000000   0.0000000   0.0000000), wk =   0.2500000
        k(    6) = (  -0.5000000  -0.2165064   0.0000000), wk =   0.2500000

     Dense  grid:  2050409 G-vectors     FFT dimensions: (  80, 192, 270)

     Largest allocated arrays     est. size (Mb)     dimensions
        Kohn-Sham Wavefunctions        54.52 Mb     (    4604,  776)
        NL pseudopotentials           129.89 Mb     (    4604, 1849)
        Each V/rho on FFT grid          1.17 Mb     (   76800)
        Each G-vector array             0.28 Mb     (   36616)
        G-vector shells                 0.14 Mb     (   17932)
     Largest temporary arrays     est. size (Mb)     dimensions
        Auxiliary wavefunctions       218.06 Mb     (    4604, 3104)
        Each subspace H/S matrix        5.87 Mb     (     620,  620)
        Each <psi_i|beta_j> matrix     21.89 Mb     (    1849,  776)
        Arrays for rho mixing           9.38 Mb     (   76800,    8)

     Initial potential from superposition of free atoms
     Check: negative starting charge=   -0.001825

     starting charge 1267.81750, renormalised to 1293.00000

     negative rho (up, down):  1.861E-03 0.000E+00
     Starting wfc are 1285 randomized atomic wfcs

     total cpu time spent up to now is      106.3 secs

     Self-consistent Calculation

     iteration #  1     ecut=    80.00 Ry     beta=0.70
     Davidson diagonalization with overlap
     c_bands:  1 eigenvalues not converged
     c_bands:  1 eigenvalues not converged
     c_bands:  2 eigenvalues not converged
     c_bands:  2 eigenvalues not converged
     ethr =  1.00E-04,  avg # of iterations = 37.7

     negative rho (up, down):  2.541E+01 0.000E+00

     total cpu time spent up to now is     2084.1 secs

     total energy              =   -9653.00108047 Ry
     Harris-Foulkes estimate   =  -17298.12879546 Ry
     estimated scf accuracy    <  179413.26690840 Ry

     iteration #  2     ecut=    80.00 Ry     beta=0.70
     Davidson diagonalization with overlap
     ethr =  1.00E-02,  avg # of iterations = 11.7

     negative rho (up, down):  2.949E+01 0.000E+00

     total cpu time spent up to now is     2984.8 secs

     total energy              =  -12196.30431261 Ry
     Harris-Foulkes estimate   =  -13639.16080334 Ry
     estimated scf accuracy    <   23786.29615148 Ry

     iteration #  3     ecut=    80.00 Ry     beta=0.70
     Davidson diagonalization with overlap
     ethr =  1.00E-02,  avg # of iterations =  7.0

     negative rho (up, down):  3.018E+01 0.000E+00

     total cpu time spent up to now is     3509.8 secs

     total energy              =  -12433.01734116 Ry
     Harris-Foulkes estimate   =  -13378.84347346 Ry
     estimated scf accuracy    <    5886.87215617 Ry

     iteration #  4     ecut=    80.00 Ry     beta=0.70
     Davidson diagonalization with overlap
     ethr =  1.00E-02,  avg # of iterations =  5.0

     negative rho (up, down):  2.235E+01 0.000E+00

     total cpu time spent up to now is     4028.7 secs

     total energy              =  -12828.56123589 Ry
     Harris-Foulkes estimate   =  -13059.97207082 Ry
     estimated scf accuracy    <    1711.03933404 Ry

     iteration #  5     ecut=    80.00 Ry     beta=0.70
     Davidson diagonalization with overlap
     ethr =  1.00E-02,  avg # of iterations =  3.2

     negative rho (up, down):  1.736E+01 0.000E+00

     total cpu time spent up to now is     4288.5 secs

     total energy              =  -12829.62368068 Ry
     Harris-Foulkes estimate   =  -12938.58469245 Ry
     estimated scf accuracy    <    1194.79065300 Ry

     iteration #  6     ecut=    80.00 Ry     beta=0.70
     Davidson diagonalization with overlap
     ethr =  1.00E-02,  avg # of iterations =  3.0

     negative rho (up, down):  1.183E+01 0.000E+00

     total cpu time spent up to now is     4491.6 secs

     total energy              =  -12819.19619694 Ry
     Harris-Foulkes estimate   =  -12886.99102138 Ry
     estimated scf accuracy    <     513.72934777 Ry

     iteration #  7     ecut=    80.00 Ry     beta=0.70
     Davidson diagonalization with overlap
     ethr =  1.00E-02,  avg # of iterations =  2.0

     negative rho (up, down):  7.511E+00 0.000E+00

     total cpu time spent up to now is     4674.4 secs

     total energy              =  -12785.74142586 Ry
     Harris-Foulkes estimate   =  -12832.97466330 Ry
     estimated scf accuracy    <     376.27231112 Ry

     iteration #  8     ecut=    80.00 Ry     beta=0.70
     Davidson diagonalization with overlap
     ethr =  1.00E-02,  avg # of iterations =  2.0

     negative rho (up, down):  6.366E+00 0.000E+00

     total cpu time spent up to now is     4853.0 secs

     total energy              =  -12777.07682661 Ry
     Harris-Foulkes estimate   =  -12801.65260623 Ry
     estimated scf accuracy    <     541.69695134 Ry

     iteration #  9     ecut=    80.00 Ry     beta=0.70
     Davidson diagonalization with overlap
     ethr =  1.00E-02,  avg # of iterations =  2.0

     negative rho (up, down):  5.580E+00 0.000E+00

     total cpu time spent up to now is     5030.1 secs

     total energy              =  -12778.29747623 Ry
     Harris-Foulkes estimate   =  -12787.11130409 Ry
     estimated scf accuracy    <     155.55633106 Ry

     iteration # 10     ecut=    80.00 Ry     beta=0.70
     Davidson diagonalization with overlap
     ethr =  1.00E-02,  avg # of iterations =  1.0

     negative rho (up, down):  1.550E+00 0.000E+00

     total cpu time spent up to now is     5196.3 secs

     total energy              =  -12742.25690011 Ry
     Harris-Foulkes estimate   =  -12779.36399288 Ry
     estimated scf accuracy    <     132.46680419 Ry

     iteration # 11     ecut=    80.00 Ry     beta=0.70
     Davidson diagonalization with overlap
     ethr =  1.00E-02,  avg # of iterations =  1.5

     negative rho (up, down):  1.049E+00 0.000E+00

     total cpu time spent up to now is     5368.0 secs

     total energy              =  -12726.17781479 Ry
     Harris-Foulkes estimate   =  -12754.05237749 Ry
     estimated scf accuracy    <     335.01315478 Ry

     iteration # 12     ecut=    80.00 Ry     beta=0.70
     Davidson diagonalization with overlap
     ethr =  1.00E-02,  avg # of iterations =  1.0

     negative rho (up, down):  2.989E+00 0.000E+00

     total cpu time spent up to now is     5533.9 secs

     total energy              =  -12723.38929317 Ry
     Harris-Foulkes estimate   =  -12741.72811166 Ry
     estimated scf accuracy    <     379.31868852 Ry

     iteration # 13     ecut=    80.00 Ry     beta=0.70
     Davidson diagonalization with overlap
     ethr =  1.00E-02,  avg # of iterations =  1.7

     negative rho (up, down):  5.130E+00 0.000E+00

     total cpu time spent up to now is     5707.3 secs

     total energy              =  -12716.03074374 Ry
     Harris-Foulkes estimate   =  -12730.61575392 Ry
     estimated scf accuracy    <     248.83673003 Ry

     iteration # 14     ecut=    80.00 Ry     beta=0.70
     Davidson diagonalization with overlap
     ethr =  1.00E-02,  avg # of iterations =  2.2

     negative rho (up, down):  5.854E+00 0.000E+00

     total cpu time spent up to now is     5886.1 secs

     total energy              =  -12720.03623177 Ry
     Harris-Foulkes estimate   =  -12723.92938010 Ry
     estimated scf accuracy    <      62.11028694 Ry

     iteration # 15     ecut=    80.00 Ry     beta=0.70
     Davidson diagonalization with overlap
     ethr =  4.80E-03,  avg # of iterations =  2.8

     negative rho (up, down):  5.696E+00 0.000E+00

     total cpu time spent up to now is     6073.3 secs

     total energy              =  -12717.73406984 Ry
     Harris-Foulkes estimate   =  -12721.38755847 Ry
     estimated scf accuracy    <      43.65675318 Ry

     iteration # 16     ecut=    80.00 Ry     beta=0.70
     Davidson diagonalization with overlap
     ethr =  3.38E-03,  avg # of iterations =  2.3

     negative rho (up, down):  4.946E+00 0.000E+00

     total cpu time spent up to now is     6253.3 secs

     total energy              =  -12714.88094467 Ry
     Harris-Foulkes estimate   =  -12718.89015575 Ry
     estimated scf accuracy    <      32.10096726 Ry

     iteration # 17     ecut=    80.00 Ry     beta=0.70
     Davidson diagonalization with overlap
     ethr =  2.48E-03,  avg # of iterations =  3.5

     negative rho (up, down):  4.776E+00 0.000E+00

     total cpu time spent up to now is     6449.3 secs

     total energy              =  -12714.93240497 Ry
     Harris-Foulkes estimate   =  -12716.89259909 Ry
     estimated scf accuracy    <      17.27458898 Ry

     iteration # 18     ecut=    80.00 Ry     beta=0.70
     Davidson diagonalization with overlap
     ethr =  1.34E-03,  avg # of iterations =  6.5

     negative rho (up, down):  3.873E+00 0.000E+00

     total cpu time spent up to now is     6679.8 secs

     total energy              =  -12713.48450506 Ry
     Harris-Foulkes estimate   =  -12715.39794109 Ry
     estimated scf accuracy    <      13.04639933 Ry

     iteration # 19     ecut=    80.00 Ry     beta=0.70
     Davidson diagonalization with overlap
     ethr =  1.01E-03,  avg # of iterations =  5.8

     negative rho (up, down):  3.581E+00 0.000E+00

     total cpu time spent up to now is     6903.4 secs

     total energy              =  -12713.06206797 Ry
     Harris-Foulkes estimate   =  -12713.89389037 Ry
     estimated scf accuracy    <      10.07116376 Ry

     iteration # 20     ecut=    80.00 Ry     beta=0.70
     Davidson diagonalization with overlap
     ethr =  7.79E-04,  avg # of iterations =  3.0

     negative rho (up, down):  2.662E+00 0.000E+00

     total cpu time spent up to now is     7091.8 secs

     total energy              =  -12712.68663872 Ry
     Harris-Foulkes estimate   =  -12713.32069961 Ry
     estimated scf accuracy    <       7.42513394 Ry

     iteration # 21     ecut=    80.00 Ry     beta=0.70
     Davidson diagonalization with overlap
     ethr =  5.74E-04,  avg # of iterations =  2.0

     negative rho (up, down):  1.050E+00 0.000E+00

     total cpu time spent up to now is     7269.4 secs

     total energy              =  -12711.32120005 Ry
     Harris-Foulkes estimate   =  -12712.80572522 Ry
     estimated scf accuracy    <       6.34395705 Ry

     iteration # 22     ecut=    80.00 Ry     beta=0.70
     Davidson diagonalization with overlap
     ethr =  4.91E-04,  avg # of iterations =  9.5

     negative rho (up, down):  1.283E+00 0.000E+00

     total cpu time spent up to now is     7540.7 secs

     total energy              =  -12711.56118854 Ry
     Harris-Foulkes estimate   =  -12711.73039129 Ry
     estimated scf accuracy    <      14.43502486 Ry

     iteration # 23     ecut=    80.00 Ry     beta=0.70
     Davidson diagonalization with overlap
     ethr =  4.91E-04,  avg # of iterations =  1.0

     negative rho (up, down):  3.685E-01 0.000E+00

     total cpu time spent up to now is     7707.9 secs

     total energy              =  -12710.88291712 Ry
     Harris-Foulkes estimate   =  -12712.01922965 Ry
     estimated scf accuracy    <       5.40099210 Ry

     iteration # 24     ecut=    80.00 Ry     beta=0.70
     Davidson diagonalization with overlap
     c_bands:  1 eigenvalues not converged
     ethr =  4.18E-04,  avg # of iterations =  8.0

     negative rho (up, down):  4.905E-03 0.000E+00

     total cpu time spent up to now is     7955.3 secs

     total energy              =  -12710.60013014 Ry
     Harris-Foulkes estimate   =  -12711.08534060 Ry
     estimated scf accuracy    <      10.04355524 Ry

     iteration # 25     ecut=    80.00 Ry     beta=0.70
     Davidson diagonalization with overlap
     ethr =  4.18E-04,  avg # of iterations =  5.3

     negative rho (up, down):  1.555E-03 0.000E+00

     total cpu time spent up to now is     8170.3 secs

     total energy              =  -12710.61894117 Ry
     Harris-Foulkes estimate   =  -12710.64580212 Ry
     estimated scf accuracy    <       9.40960441 Ry

     iteration # 26     ecut=    80.00 Ry     beta=0.70
     Davidson diagonalization with overlap
     ethr =  4.18E-04,  avg # of iterations =  1.0

     total cpu time spent up to now is     8335.6 secs

     total energy              =  -12709.99012411 Ry
     Harris-Foulkes estimate   =  -12710.76526184 Ry
     estimated scf accuracy    <       5.82563792 Ry

     iteration # 27     ecut=    80.00 Ry     beta=0.70
     Davidson diagonalization with overlap
     ethr =  4.18E-04,  avg # of iterations =  2.0

     total cpu time spent up to now is     8511.5 secs

     total energy              =  -12709.74881539 Ry
     Harris-Foulkes estimate   =  -12710.09437248 Ry
     estimated scf accuracy    <       6.86435530 Ry

     iteration # 28     ecut=    80.00 Ry     beta=0.70
     Davidson diagonalization with overlap
     ethr =  4.18E-04,  avg # of iterations =  1.0

     total cpu time spent up to now is     8678.2 secs

     total energy              =  -12709.14871128 Ry
     Harris-Foulkes estimate   =  -12709.87732990 Ry
     estimated scf accuracy    <       4.41454524 Ry

     iteration # 29     ecut=    80.00 Ry     beta=0.70
     Davidson diagonalization with overlap
     ethr =  3.41E-04,  avg # of iterations =  2.3

     negative rho (up, down):  6.314E-02 0.000E+00

     total cpu time spent up to now is     8860.0 secs

     total energy              =  -12708.69942109 Ry
     Harris-Foulkes estimate   =  -12709.25246098 Ry
     estimated scf accuracy    <       3.24228946 Ry

     iteration # 30     ecut=    80.00 Ry     beta=0.70
     Davidson diagonalization with overlap
     ethr =  2.51E-04,  avg # of iterations =  6.0

     negative rho (up, down):  3.967E-01 0.000E+00

     total cpu time spent up to now is     9085.4 secs

     total energy              =  -12708.30453559 Ry
     Harris-Foulkes estimate   =  -12708.84405095 Ry
     estimated scf accuracy    <       1.91754093 Ry

     iteration # 31     ecut=    80.00 Ry     beta=0.70
     Davidson diagonalization with overlap
     ethr =  1.48E-04,  avg # of iterations =  6.7

     negative rho (up, down):  1.860E-01 0.000E+00

     total cpu time spent up to now is     9341.7 secs

     total energy              =  -12708.29793656 Ry
     Harris-Foulkes estimate   =  -12708.46802479 Ry
     estimated scf accuracy    <       1.15213658 Ry

     iteration # 32     ecut=    80.00 Ry     beta=0.70
     Davidson diagonalization with overlap
     ethr =  8.91E-05,  avg # of iterations =  6.5

     negative rho (up, down):  4.616E-01 0.000E+00

     total cpu time spent up to now is     9572.5 secs

     total energy              =  -12708.27866723 Ry
     Harris-Foulkes estimate   =  -12708.35421857 Ry
     estimated scf accuracy    <       0.75346301 Ry

     iteration # 33     ecut=    80.00 Ry     beta=0.70
     Davidson diagonalization with overlap
     ethr =  5.83E-05,  avg # of iterations =  8.3

     negative rho (up, down):  9.189E-02 0.000E+00

     total cpu time spent up to now is     9834.4 secs

     total energy              =  -12708.23062608 Ry
     Harris-Foulkes estimate   =  -12708.30875124 Ry
     estimated scf accuracy    <       0.23492610 Ry

     iteration # 34     ecut=    80.00 Ry     beta=0.70
     Davidson diagonalization with overlap
     ethr =  1.82E-05,  avg # of iterations =  8.0

     negative rho (up, down):  1.425E-01 0.000E+00

     total cpu time spent up to now is    10095.8 secs

     total energy              =  -12708.24146951 Ry
     Harris-Foulkes estimate   =  -12708.25763786 Ry
     estimated scf accuracy    <       0.10191108 Ry

     iteration # 35     ecut=    80.00 Ry     beta=0.70
     Davidson diagonalization with overlap
     ethr =  7.88E-06,  avg # of iterations =  9.7

     negative rho (up, down):  6.665E-02 0.000E+00

     total cpu time spent up to now is    10374.6 secs

     total energy              =  -12708.24951750 Ry
     Harris-Foulkes estimate   =  -12708.25108215 Ry
     estimated scf accuracy    <       0.01113722 Ry

     iteration # 36     ecut=    80.00 Ry     beta=0.70
     Davidson diagonalization with overlap
     c_bands:  1 eigenvalues not converged
     ethr =  8.61E-07,  avg # of iterations = 13.2

     negative rho (up, down):  2.976E-02 0.000E+00

     total cpu time spent up to now is    10705.1 secs

     total energy              =  -12708.24960638 Ry
     Harris-Foulkes estimate   =  -12708.25025370 Ry
     estimated scf accuracy    <       0.00584288 Ry

     iteration # 37     ecut=    80.00 Ry     beta=0.70
     Davidson diagonalization with overlap
     c_bands:  2 eigenvalues not converged
     c_bands:  1 eigenvalues not converged
     ethr =  4.52E-07,  avg # of iterations = 14.5

     negative rho (up, down):  1.463E-02 0.000E+00

     total cpu time spent up to now is    11047.3 secs

     total energy              =  -12708.25001439 Ry
     Harris-Foulkes estimate   =  -12708.25002823 Ry
     estimated scf accuracy    <       0.00094105 Ry

     iteration # 38     ecut=    80.00 Ry     beta=0.70
     Davidson diagonalization with overlap
     ethr =  7.28E-08,  avg # of iterations = 11.2

     negative rho (up, down):  8.808E-03 0.000E+00

     total cpu time spent up to now is    11361.3 secs

     total energy              =  -12708.25000804 Ry
     Harris-Foulkes estimate   =  -12708.25009244 Ry
     estimated scf accuracy    <       0.00082101 Ry

     iteration # 39     ecut=    80.00 Ry     beta=0.70
     Davidson diagonalization with overlap
     ethr =  6.35E-08,  avg # of iterations =  6.2

     negative rho (up, down):  3.551E-03 0.000E+00

     total cpu time spent up to now is    11593.4 secs

     total energy              =  -12708.25003208 Ry
     Harris-Foulkes estimate   =  -12708.25003463 Ry
     estimated scf accuracy    <       0.00029289 Ry

     iteration # 40     ecut=    80.00 Ry     beta=0.70
     Davidson diagonalization with overlap
     c_bands:  1 eigenvalues not converged
     c_bands:  1 eigenvalues not converged
     c_bands:  1 eigenvalues not converged
     ethr =  2.27E-08,  avg # of iterations = 14.3

     negative rho (up, down):  3.591E-03 0.000E+00

     total cpu time spent up to now is    11936.0 secs

     total energy              =  -12708.25009983 Ry
     Harris-Foulkes estimate   =  -12708.25006069 Ry
     estimated scf accuracy    <       0.00012004 Ry

     iteration # 41     ecut=    80.00 Ry     beta=0.70
     Davidson diagonalization with overlap
     ethr =  9.28E-09,  avg # of iterations = 10.0

     negative rho (up, down):  2.471E-03 0.000E+00

     total cpu time spent up to now is    12226.8 secs

     total energy              =  -12708.25010048 Ry
     Harris-Foulkes estimate   =  -12708.25010997 Ry
     estimated scf accuracy    <       0.00001256 Ry

     iteration # 42     ecut=    80.00 Ry     beta=0.70
     Davidson diagonalization with overlap
     ethr =  9.71E-10,  avg # of iterations =  3.2

     negative rho (up, down):  2.230E-03 0.000E+00

     total cpu time spent up to now is    12435.5 secs

     total energy              =  -12708.25010151 Ry
     Harris-Foulkes estimate   =  -12708.25010180 Ry
     estimated scf accuracy    <       0.00000518 Ry

     iteration # 43     ecut=    80.00 Ry     beta=0.70
     Davidson diagonalization with overlap
     ethr =  4.00E-10,  avg # of iterations =  3.3

     negative rho (up, down):  2.266E-03 0.000E+00

     total cpu time spent up to now is    12640.3 secs

     total energy              =  -12708.25010227 Ry
     Harris-Foulkes estimate   =  -12708.25010215 Ry
     estimated scf accuracy    <       0.00000239 Ry

     iteration # 44     ecut=    80.00 Ry     beta=0.70
     Davidson diagonalization with overlap
     ethr =  1.85E-10,  avg # of iterations =  3.0

     negative rho (up, down):  2.118E-03 0.000E+00

     total cpu time spent up to now is    12837.5 secs

     total energy              =  -12708.25010242 Ry
     Harris-Foulkes estimate   =  -12708.25010248 Ry
     estimated scf accuracy    <       0.00000092 Ry

     iteration # 45     ecut=    80.00 Ry     beta=0.70
     Davidson diagonalization with overlap
     ethr =  7.11E-11,  avg # of iterations =  2.2

     negative rho (up, down):  2.192E-03 0.000E+00

     total cpu time spent up to now is    13022.0 secs

     total energy              =  -12708.25010243 Ry
     Harris-Foulkes estimate   =  -12708.25010249 Ry
     estimated scf accuracy    <       0.00000031 Ry

     iteration # 46     ecut=    80.00 Ry     beta=0.70
     Davidson diagonalization with overlap
     ethr =  2.42E-11,  avg # of iterations =  2.5

     negative rho (up, down):  2.135E-03 0.000E+00

     total cpu time spent up to now is    13218.8 secs

     total energy              =  -12708.25010247 Ry
     Harris-Foulkes estimate   =  -12708.25010247 Ry
     estimated scf accuracy    <       0.00000012 Ry

     iteration # 47     ecut=    80.00 Ry     beta=0.70
     Davidson diagonalization with overlap
     ethr =  8.92E-12,  avg # of iterations =  2.8

     negative rho (up, down):  2.129E-03 0.000E+00

     total cpu time spent up to now is    13412.6 secs

     total energy              =  -12708.25010248 Ry
     Harris-Foulkes estimate   =  -12708.25010248 Ry
     estimated scf accuracy    <       0.00000003 Ry

     iteration # 48     ecut=    80.00 Ry     beta=0.70
     Davidson diagonalization with overlap
     ethr =  2.67E-12,  avg # of iterations =  3.2

     negative rho (up, down):  2.091E-03 0.000E+00

     total cpu time spent up to now is    13619.6 secs

     End of self-consistent calculation

          k = 0.0000 0.0000 0.0000 (256287 PWs)   bands (ev):

   -17.2306 -16.2104 -16.0561 -15.3969 -15.0018 -14.7310 -14.6369 -14.2301
   -14.1675 -14.1107 -14.0904 -13.4423 -13.2816 -13.1201 -13.0926 -13.0532
   -13.0340 -11.6534 -11.4922 -11.4475 -11.3626 -11.1796 -10.2912  -9.7466
    -9.7122  -9.5849  -9.5384  -8.9598  -8.7324  -8.6768  -8.5832  -8.0230
    -7.8782  -7.7058  -7.6451  -7.5852  -7.5027  -7.4963  -7.4392  -6.4017
    -6.3148  -6.1206  -6.0011  -5.9795  -5.8950  -5.8609  -5.7952  -5.7860
    -5.4723  -5.4518  -5.3526  -4.9308  -4.8394  -4.7419  -4.6914  -4.5822
    -4.5555  -4.3653  -4.2389  -4.2187  -3.9659  -3.9556  -3.9290  -3.8842
    -3.7163  -3.5928  -3.5159  -3.4730  -3.4306  -3.3932  -3.3710  -3.3641
    -3.3148  -3.1607  -3.0993  -3.0929  -3.0334  -2.9832  -2.9745  -2.9666
    -2.9644  -2.9492  -2.8037  -2.7908  -2.7799  -2.7289  -2.7054  -2.6999
    -2.6727  -2.6299  -2.5511  -2.5030  -2.3658  -2.3583  -2.3104  -2.3078
    -2.2156  -2.1703  -2.1582  -2.1566  -2.1365  -2.1182  -2.1179  -2.1178
    -2.1171  -2.1012  -2.0663  -1.9881  -1.9879  -1.9853  -1.9853  -1.9241
    -1.9123  -1.8075  -1.7963  -1.7424  -1.7073  -1.7041  -1.7030  -1.6972
    -1.6630  -1.6390  -1.6364  -1.6247  -1.6209  -1.5750  -1.5611  -1.5532
    -1.5303  -1.5283  -1.5250  -1.5204  -1.5107  -1.4978  -1.4852  -1.4812
    -1.4796  -1.4768  -1.4128  -1.4043  -1.3815  -1.3781  -1.3656  -1.3524
    -1.3393  -1.3182  -1.2907  -1.2644  -1.2291  -1.2277  -1.2177  -1.1921
    -1.1773  -1.1763  -1.1575  -1.1546  -1.1326  -1.1296  -1.1277  -1.0987
    -1.0815  -1.0759  -1.0159  -1.0131  -1.0045  -0.9980  -0.9947  -0.9891
    -0.9877  -0.9875  -0.9867  -0.9825  -0.9815  -0.9698  -0.9634  -0.9553
    -0.9324  -0.9172  -0.9070  -0.9008  -0.8910  -0.8841  -0.8836  -0.8816
    -0.8796  -0.8415  -0.8246  -0.8221  -0.8215  -0.8213  -0.8207  -0.8199
    -0.8184  -0.8157  -0.8147  -0.8141  -0.8134  -0.8133  -0.8095  -0.8080
    -0.8074  -0.7975  -0.7936  -0.7922  -0.7812  -0.7505  -0.6551  -0.6549
    -0.6490  -0.6485  -0.6257  -0.6245  -0.6072  -0.6071  -0.5903  -0.5859
    -0.5846  -0.5741  -0.5682  -0.5665  -0.5632  -0.5527  -0.5297  -0.5296
    -0.5262  -0.5255  -0.5191  -0.5182  -0.5075  -0.5066  -0.4577  -0.4574
    -0.4040  -0.4036  -0.3934  -0.3928  -0.3909  -0.3880  -0.3816  -0.3754
    -0.3728  -0.3704  -0.3693  -0.3687  -0.3654  -0.3652  -0.3651  -0.3501
    -0.3500  -0.3450  -0.3423  -0.3398  -0.3168  -0.3161  -0.2665  -0.2636
    -0.2616  -0.2560  -0.2557  -0.2337  -0.2307  -0.2305  -0.2276  -0.2274
    -0.2140  -0.2116  -0.2076  -0.2074  -0.1983  -0.1876  -0.1854  -0.1840
    -0.1808  -0.1801  -0.1792  -0.1773  -0.1759  -0.1739  -0.1695  -0.1559
    -0.1546  -0.1522  -0.1521  -0.1335  -0.1082  -0.0860  -0.0832  -0.0827
    -0.0797  -0.0783  -0.0444  -0.0367  -0.0338  -0.0328  -0.0318  -0.0278
    -0.0269  -0.0265  -0.0256  -0.0245  -0.0141   0.0059   0.0094   0.0248
     0.0259   0.0300   0.0311   0.0352   0.0542   0.0556   0.0573   0.0597
     0.0614   0.0669   0.0807   0.0812   0.0814   0.0817   0.0840   0.0874
     0.0983   0.0988   0.0994   0.0995   0.1086   0.1105   0.1130   0.1186
     0.1363   0.1383   0.1696   0.1706   0.1801   0.1990   0.2009   0.2234
     0.2315   0.2355   0.2678   0.2691   0.2713   0.2769   0.2789   0.2807
     0.3026   0.3073   0.3079   0.3095   0.3096   0.3159   0.3172   0.3201
     0.3622   0.3760   0.3765   0.3769   0.3823   0.3850   0.3856   0.4122
     0.4151   0.4175   0.4189   0.4209   0.4328   0.4357   0.4502   0.4531
     0.4571   0.4651   0.4717   0.4747   0.4765   0.4863   0.5136   0.5178
     0.5279   0.5299   0.5334   0.5351   0.5357   0.5435   0.5593   0.5615
     0.5640   0.5686   0.5707   0.5710   0.5716   0.5753   0.5786   0.5797
     0.5837   0.5854   0.5903   0.5925   0.5941   0.5997   0.6004   0.6314
     0.6413   0.6414   0.6464   0.6560   0.6620   0.6834   0.6841   0.6849
     0.6879   0.6889   0.6893   0.6909   0.6963   0.6979   0.7025   0.7096
     0.7141   0.7147   0.7158   0.7231   0.7233   0.7253   0.7316   0.7340
     0.7363   0.7553   0.7569   0.7574   0.7613   0.7678   0.7690   0.7779
     0.7830   0.7844   0.7845   0.7871   0.7903   0.7909   0.7936   0.7942
     0.7973   0.8034   0.8412   0.8417   0.8523   0.8550   0.8578   0.8584
     0.8601   0.8608   0.8911   0.8919   0.9052   0.9062   0.9119   0.9121
     0.9260   0.9264   0.9347   0.9360   0.9363   0.9371   0.9445   0.9561
     0.9721   0.9736   0.9738   0.9772   0.9779   0.9789   0.9926   0.9980
     1.0103   1.0134   1.0147   1.0217   1.0222   1.0326   1.0399   1.0428
     1.0465   1.0479   1.0486   1.0490   1.0509   1.0571   1.0619   1.0636
     1.0645   1.0647   1.0649   1.0797   1.0802   1.0948   1.0984   1.0989
     1.1009   1.1036   1.1100   1.1335   1.1387   1.1399   1.1422   1.1453
     1.1462   1.1485   1.1515   1.1545   1.1549   1.1554   1.1558   1.1560
     1.1573   1.1711   1.1718   1.1845   1.2038   1.2179   1.2209   1.2315
     1.2345   1.2363   1.2389   1.2392   1.2418   1.2436   1.2478   1.2564
     1.2602   1.2710   1.2730   1.2754   1.2760   1.2771   1.2796   1.2814
     1.2820   1.2905   1.3086   1.3099   1.3105   1.3108   1.3123   1.3137
     1.3139   1.3154   1.3301   1.3302   1.3309   1.3351   1.3392   1.3460
     1.3463   1.3473   1.3480   1.3495   1.3564   1.3599   1.3637   1.3772
     1.3802   1.3888   1.3900   1.3905   1.3914   1.3924   1.3959   1.4079
     1.4185   1.4238   1.4242   1.4282   1.4382   1.4507   1.4514   1.4517
     1.4579   1.4593   1.4600   1.4651   1.4664   1.4696   1.4705   1.4715
     1.4727   1.4727   1.4746   1.4827   1.4842   1.4862   1.5016   1.5026
     1.5035   1.5045   1.5066   1.5141   1.5173   1.5223   1.5353   1.5455
     1.5475   1.5567   1.5925   1.5936   1.5962   1.5987   1.6147   1.6154
     1.6164   1.6216   1.6270   1.6416   1.6646   1.6675   1.6690   1.6692
     1.6711   1.6787   1.6797   1.6803   1.9336   1.9918   2.0820   2.1446
     2.1599   2.1936   2.2068   2.2382   2.2420   2.2435   2.2507   2.2537
     2.2608   2.2613   2.3170   2.4341   2.4486   2.4947   2.5040   2.5083
     2.5103   2.5186   2.5306   2.7111   2.7573   2.7624   2.7630   2.8396
     3.0188   3.0216   3.2152   3.5589   3.5616   3.7707   3.8511   3.8625
     3.8804   3.8930   3.8943   3.9120   3.9598   3.9999   4.0287   4.0396
     4.0436   4.0450   4.0459   4.0534   4.0586   4.0932   4.2700   4.2899
     4.2968   4.3217   4.4386   4.5339   4.6853   4.8008   4.8818   4.9000
     5.3350   5.3991   5.4405   5.4653   5.6345   5.7412   5.7639   5.7709
     5.8029   5.9550   5.9663   6.2150   6.3859   6.4097   6.4379   6.4542
     6.5161   6.5203   6.5235   6.5354   6.6043   6.6307   6.7282   6.7390
     6.7987   6.8196   6.8277   6.8385   7.0044   7.0551   7.0888   7.1272
     7.1310   7.1350   7.2601   7.3911   7.3963   7.5882   7.5950   7.6474
     7.7345   7.7407   7.7448   7.7650   7.9400   7.9718   8.1321   8.2029
     8.2521   8.2847   8.3048   8.3436   8.3681   8.3712   8.3746   8.4045
     8.4307   8.4493   8.4980   8.5401   8.5921   8.5935   8.7035   8.7081
     8.7088   8.7251   8.8106   8.8214   8.8700   8.8772   8.8859   8.8867
     9.0777   9.1336   9.1437   9.1552   9.1569   9.1623   9.1739   9.2354
     9.3059   9.3798   9.3813   9.3859   9.4033   9.6136   9.6158   9.6256
     9.6402   9.8194   9.8552   9.8670   9.9653  10.0173  10.0779  10.0798

          k = 0.0000-0.2165 0.0000 (256176 PWs)   bands (ev):

   -17.2301 -16.2759 -15.8717 -15.6220 -15.0170 -14.6231 -14.3330 -14.3115
   -14.2240 -14.1915 -13.8051 -13.7350 -13.6804 -13.6607 -12.5880 -12.3977
   -12.3430 -12.2801 -12.1177 -12.0363 -10.6350 -10.5150 -10.4830 -10.3758
    -9.4127  -9.3545  -9.2969  -9.0709  -8.9722  -8.9570  -8.3864  -8.2419
    -8.2192  -8.1187  -7.4505  -7.2950  -6.9658  -6.9558  -6.9039  -6.8572
    -6.8281  -6.7463  -6.1949  -6.0165  -5.8605  -5.8511  -5.6246  -5.3736
    -5.3219  -5.1466  -5.0809  -4.9611  -4.8687  -4.8113  -4.8102  -4.7130
    -4.6686  -4.5918  -4.5597  -4.4499  -4.1927  -4.1397  -3.7867  -3.7401
    -3.6794  -3.5774  -3.3539  -3.2866  -3.2708  -3.2697  -3.2477  -3.2030
    -3.1751  -3.0731  -3.0518  -3.0293  -3.0164  -2.9985  -2.9912  -2.9540
    -2.8590  -2.8333  -2.8102  -2.7970  -2.7439  -2.7265  -2.6782  -2.6157
    -2.5770  -2.5461  -2.5455  -2.5441  -2.5429  -2.5239  -2.4800  -2.4145
    -2.3237  -2.2864  -2.2364  -2.2154  -2.2084  -2.2078  -2.1349  -2.1154
    -2.1118  -2.1113  -2.0912  -2.0285  -1.9523  -1.9522  -1.9269  -1.9266
    -1.8882  -1.8567  -1.8270  -1.8257  -1.7776  -1.7652  -1.7333  -1.7323
    -1.7159  -1.7154  -1.7063  -1.7062  -1.6896  -1.6865  -1.6125  -1.6121
    -1.6092  -1.5975  -1.5700  -1.5430  -1.4986  -1.4361  -1.4344  -1.4264
    -1.4260  -1.3525  -1.3461  -1.3366  -1.3353  -1.2827  -1.2815  -1.2667
    -1.2497  -1.2447  -1.2417  -1.2401  -1.2397  -1.2356  -1.2321  -1.2153
    -1.1981  -1.1918  -1.1907  -1.1884  -1.1807  -1.1768  -1.1538  -1.1324
    -1.1163  -1.1061  -1.0988  -1.0962  -1.0541  -1.0539  -1.0161  -1.0159
    -1.0128  -1.0127  -0.9726  -0.9680  -0.9537  -0.9507  -0.9495  -0.9478
    -0.9439  -0.9424  -0.9270  -0.8933  -0.8917  -0.8849  -0.8841  -0.8756
    -0.8755  -0.8675  -0.8605  -0.8597  -0.8567  -0.7966  -0.7950  -0.7910
    -0.7843  -0.7840  -0.7828  -0.7809  -0.7625  -0.7611  -0.7565  -0.7452
    -0.7427  -0.7201  -0.7200  -0.7156  -0.7090  -0.6230  -0.6227  -0.6172
    -0.6165  -0.6000  -0.5988  -0.5986  -0.5738  -0.5713  -0.5705  -0.5694
    -0.5666  -0.5665  -0.5417  -0.5391  -0.5086  -0.5076  -0.5067  -0.5047
    -0.5046  -0.5027  -0.5007  -0.4983  -0.4871  -0.4694  -0.4686  -0.4540
    -0.4482  -0.4482  -0.4452  -0.4139  -0.4130  -0.4126  -0.4103  -0.4061
    -0.4033  -0.3991  -0.3970  -0.3968  -0.3593  -0.3265  -0.3260  -0.3189
    -0.3183  -0.2951  -0.2909  -0.2865  -0.2758  -0.2686  -0.2680  -0.2620
    -0.2611  -0.2594  -0.2525  -0.2396  -0.2367  -0.2334  -0.2312  -0.2302
    -0.2216  -0.2146  -0.2138  -0.2117  -0.2099  -0.2086  -0.2084  -0.2082
    -0.1998  -0.1962  -0.1843  -0.1719  -0.1708  -0.1689  -0.1686  -0.1237
    -0.1096  -0.1054  -0.1046  -0.1013  -0.0976  -0.0962  -0.0940  -0.0924
    -0.0910  -0.0753  -0.0640  -0.0568  -0.0534  -0.0518  -0.0498  -0.0485
    -0.0434  -0.0424  -0.0401  -0.0392  -0.0376  -0.0374  -0.0271   0.0181
     0.0182   0.0198   0.0209   0.0220   0.0388   0.0396   0.0409   0.0423
     0.0436   0.0486   0.0619   0.0629   0.0655   0.0677   0.0712   0.0786
     0.0938   0.0948   0.1108   0.1110   0.1111   0.1119   0.1290   0.1302
     0.1460   0.1462   0.1559   0.1583   0.1681   0.1700   0.1707   0.1715
     0.2119   0.2124   0.2203   0.2216   0.2285   0.2350   0.2363   0.2367
     0.2630   0.2646   0.2934   0.2973   0.3003   0.3024   0.3294   0.3416
     0.3491   0.3645   0.3963   0.4179   0.4184   0.4239   0.4244   0.4454
     0.4472   0.4475   0.4483   0.4519   0.4743   0.4841   0.4849   0.4878
     0.4882   0.4892   0.4908   0.4946   0.4953   0.4978   0.5100   0.5120
     0.5123   0.5128   0.5166   0.5195   0.5199   0.5236   0.5502   0.5503
     0.5524   0.5625   0.5627   0.5630   0.5646   0.5719   0.5719   0.5826
     0.5908   0.5919   0.5927   0.5940   0.5945   0.5948   0.5952   0.5962
     0.6130   0.6153   0.6162   0.6191   0.6193   0.6206   0.6233   0.6249
     0.6336   0.6419   0.6800   0.6804   0.6924   0.6928   0.6970   0.7025
     0.7035   0.7041   0.7076   0.7096   0.7112   0.7153   0.7175   0.7180
     0.7183   0.7193   0.7549   0.7598   0.7602   0.7602   0.7634   0.7738
     0.7771   0.7778   0.7780   0.7794   0.7907   0.7971   0.8098   0.8103
     0.8117   0.8151   0.8172   0.8181   0.8689   0.8703   0.9185   0.9210
     0.9242   0.9258   0.9280   0.9292   0.9347   0.9397   0.9450   0.9463
     0.9505   0.9522   0.9530   0.9576   0.9596   0.9606   0.9613   0.9720
     0.9763   0.9764   0.9772   0.9776   0.9814   0.9909   0.9957   1.0018
     1.0023   1.0024   1.0039   1.0051   1.0058   1.0093   1.0096   1.0185
     1.0245   1.0251   1.0252   1.0273   1.0293   1.0296   1.0443   1.0473
     1.0503   1.0567   1.0591   1.0618   1.0649   1.0657   1.0736   1.0740
     1.0750   1.0751   1.0754   1.0771   1.1162   1.1249   1.1332   1.1485
     1.1627   1.1632   1.1722   1.1794   1.1819   1.1866   1.1874   1.1894
     1.2049   1.2057   1.2180   1.2201   1.2227   1.2272   1.2284   1.2310
     1.2319   1.2353   1.2355   1.2358   1.2365   1.2377   1.2382   1.2384
     1.2456   1.2462   1.2541   1.2597   1.2642   1.2657   1.2668   1.2685
     1.2753   1.2764   1.2941   1.3048   1.3049   1.3053   1.3115   1.3127
     1.3130   1.3162   1.3242   1.3287   1.3332   1.3338   1.3364   1.3458
     1.3479   1.3487   1.3490   1.3505   1.3655   1.3678   1.3683   1.3694
     1.3758   1.3864   1.3864   1.3893   1.4047   1.4090   1.4135   1.4147
     1.4155   1.4163   1.4287   1.4303   1.4307   1.4318   1.4403   1.4474
     1.4480   1.4619   1.4620   1.4623   1.4648   1.4813   1.4829   1.4836
     1.4838   1.4860   1.4863   1.4876   1.4878   1.5142   1.5156   1.5229
     1.5235   1.5281   1.5340   1.5380   1.5528   1.5547   1.5553   1.5559
     1.5608   1.5675   1.5735   1.5769   1.5796   1.6190   1.6242   1.6253
     1.6277   1.7182   1.7285   1.7385   1.7558   1.7585   1.7629   1.7657
     1.8018   1.8224   1.8255   1.8273   1.8298   1.8437   1.8490   1.8495
     1.8718   1.8876   1.8906   1.9652   2.0944   2.1120   2.4435   2.4498
     2.4607   2.4610   2.5291   2.5345   2.5900   2.6000   2.6052   2.6061
     2.6167   2.6173   2.7439   2.7444   2.7897   2.7985   2.8177   2.8196
     2.9580   2.9585   3.0563   3.2053   3.2054   3.2133   3.2425   3.4502
     3.4689   3.6917   3.7083   3.7192   3.9353   3.9479   4.1151   4.1295
     4.1452   4.1557   4.3540   4.3641   4.3687   4.3734   4.5328   4.5358
     4.6419   4.7466   4.7779   4.8137   4.8606   5.0192   5.1246   5.1372
     5.1702   5.3417   5.3946   5.3961   5.3970   5.3973   5.4620   5.5548
     5.6839   5.7215   5.7566   5.7916   6.3269   6.4334   6.4514   6.4615
     6.4891   6.4948   6.5429   6.5890   6.6750   6.7002   6.7055   6.8482
     6.8598   7.0173   7.0636   7.0763   7.1063   7.1122   7.1302   7.1531
     7.1595   7.1702   7.1789   7.2663   7.3649   7.3801   7.4012   7.4250
     7.4399   7.5327   7.6180   7.6721   7.7581   7.7969   8.1616   8.1822
     8.1833   8.3285   8.3940   8.3977   8.4155   8.4422   8.4594   8.4863
     8.4964   8.5003   8.5265   8.5700   8.7139   8.7449   8.7511   8.7543
     8.7624   8.7938   8.8040   8.9090   8.9686   8.9873   9.0465   9.0642
     9.1802   9.1890   9.2234   9.2318   9.2775   9.3016   9.4096   9.4109
     9.4296   9.4311   9.4570   9.4657   9.5117   9.5242   9.5410   9.5491
     9.7006   9.7103   9.8187   9.8225   9.8326   9.8582   9.9248   9.9255

          k = 0.2500 0.0000 0.0000 (256240 PWs)   bands (ev):

   -17.1804 -16.1031 -15.9330 -15.6084 -15.1176 -14.9714 -14.9064 -14.8567
   -14.0815 -13.9132 -13.7231 -13.2192 -13.1336 -13.0574 -13.0090 -12.3255
   -12.1881 -12.1192 -12.0498 -11.2126 -11.0983 -10.7516 -10.6412 -10.3384
   -10.1812  -9.9504  -9.8522  -9.4702  -9.2262  -9.1219  -8.6492  -7.9893
    -7.7955  -7.6702  -7.5337  -7.5107  -7.4283  -7.0227  -6.9279  -6.2997
    -6.2074  -6.0491  -5.9202  -5.8488  -5.8097  -5.5200  -5.3398  -5.2796
    -5.2614  -5.1511  -4.8689  -4.7991  -4.6685  -4.5452  -4.4743  -4.4342
    -4.4068  -4.3871  -4.3215  -4.2151  -4.1397  -4.0707  -3.9683  -3.9667
    -3.9015  -3.8352  -3.8096  -3.8045  -3.7147  -3.6139  -3.5864  -3.5423
    -3.5315  -3.4537  -3.4049  -3.3707  -3.3462  -3.2330  -3.2053  -3.1651
    -3.1097  -3.0024  -2.9507  -2.9191  -2.7993  -2.7652  -2.7643  -2.7487
    -2.6226  -2.5962  -2.5854  -2.4589  -2.4071  -2.3627  -2.3265  -2.2974
    -2.2696  -2.0888  -2.0651  -2.0641  -2.0490  -2.0473  -2.0326  -1.9656
    -1.9451  -1.8681  -1.8597  -1.8301  -1.8010  -1.7674  -1.7673  -1.7597
    -1.7595  -1.7455  -1.7395  -1.7247  -1.7106  -1.7039  -1.6855  -1.6748
    -1.6655  -1.6209  -1.6142  -1.5912  -1.5690  -1.5492  -1.5469  -1.5461
    -1.5441  -1.5438  -1.5370  -1.4943  -1.4833  -1.4698  -1.4676  -1.4564
    -1.4545  -1.3915  -1.3372  -1.2995  -1.2964  -1.2783  -1.2426  -1.2340
    -1.2193  -1.2099  -1.2084  -1.2035  -1.2008  -1.1941  -1.1742  -1.1728
    -1.1606  -1.1512  -1.1485  -1.1457  -1.1363  -1.1225  -1.1084  -1.1016
    -1.0988  -1.0969  -1.0914  -1.0780  -1.0764  -1.0652  -1.0517  -1.0414
    -1.0208  -1.0179  -1.0153  -1.0139  -0.9908  -0.9837  -0.9809  -0.9780
    -0.9737  -0.9681  -0.9650  -0.9581  -0.9537  -0.9474  -0.9457  -0.9454
    -0.9430  -0.9416  -0.9405  -0.9296  -0.9179  -0.9114  -0.9090  -0.9021
    -0.8825  -0.8679  -0.8673  -0.8607  -0.8190  -0.8167  -0.7816  -0.7815
    -0.7633  -0.7606  -0.7526  -0.7366  -0.7362  -0.7224  -0.7211  -0.7184
    -0.7144  -0.7086  -0.7056  -0.6880  -0.5860  -0.5726  -0.5660  -0.5646
    -0.5507  -0.5338  -0.5328  -0.5304  -0.5165  -0.5150  -0.5146  -0.5140
    -0.5041  -0.4935  -0.4921  -0.4919  -0.4879  -0.4798  -0.4619  -0.4559
    -0.4503  -0.4496  -0.4477  -0.4458  -0.4258  -0.4257  -0.4236  -0.4132
    -0.3665  -0.3647  -0.3644  -0.3624  -0.3573  -0.3541  -0.3454  -0.3430
    -0.3303  -0.3222  -0.3216  -0.3076  -0.3027  -0.2978  -0.2966  -0.2918
    -0.2638  -0.2595  -0.2590  -0.2568  -0.2528  -0.2460  -0.2451  -0.2353
    -0.2333  -0.2297  -0.2176  -0.2108  -0.1956  -0.1943  -0.1760  -0.1647
    -0.1638  -0.1615  -0.1610  -0.1523  -0.1462  -0.1458  -0.1447  -0.1384
    -0.1212  -0.1167  -0.1165  -0.1042  -0.1012  -0.0970  -0.0786  -0.0760
    -0.0754  -0.0516  -0.0316  -0.0281  -0.0277  -0.0214  -0.0197  -0.0070
     0.0125   0.0163   0.0166   0.0219   0.0241   0.0262   0.0279   0.0352
     0.0389   0.0396   0.0418   0.0420   0.0446   0.0478   0.0511   0.0661
     0.0690   0.0695   0.0725   0.0769   0.0816   0.0943   0.0946   0.1092
     0.1125   0.1284   0.1485   0.1491   0.1515   0.1523   0.1535   0.1692
     0.1740   0.1751   0.1764   0.1775   0.1779   0.1980   0.2103   0.2157
     0.2256   0.2820   0.2881   0.2893   0.2915   0.3036   0.3052   0.3075
     0.3092   0.3099   0.3139   0.3165   0.3202   0.3209   0.3235   0.3242
     0.3316   0.3338   0.3415   0.3421   0.3432   0.3534   0.3555   0.3610
     0.3645   0.3657   0.3704   0.3716   0.3907   0.3956   0.4006   0.4173
     0.4285   0.4409   0.4469   0.4586   0.4594   0.4774   0.4783   0.4787
     0.4826   0.4874   0.4973   0.5120   0.5146   0.5164   0.5201   0.5207
     0.5257   0.5265   0.5302   0.5315   0.5503   0.5533   0.5588   0.5673
     0.5712   0.5780   0.5794   0.5829   0.5852   0.5871   0.5899   0.5910
     0.6056   0.6144   0.6149   0.6218   0.6236   0.6274   0.6314   0.6329
     0.6336   0.6453   0.6463   0.6516   0.6526   0.6543   0.6721   0.6740
     0.6901   0.6936   0.6975   0.7009   0.7040   0.7056   0.7094   0.7210
     0.7370   0.7403   0.7587   0.7636   0.7680   0.7756   0.7762   0.7793
     0.7812   0.7864   0.8008   0.8061   0.8102   0.8130   0.8141   0.8192
     0.8234   0.8359   0.8382   0.8427   0.8504   0.8579   0.8597   0.8600
     0.8773   0.8865   0.8904   0.8920   0.8932   0.9141   0.9151   0.9240
     0.9257   0.9281   0.9295   0.9299   0.9326   0.9377   0.9411   0.9425
     0.9530   0.9707   0.9824   0.9858   0.9863   0.9901   0.9909   1.0035
     1.0057   1.0249   1.0260   1.0273   1.0280   1.0340   1.0348   1.0375
     1.0493   1.0525   1.0539   1.0541   1.0548   1.0569   1.0575   1.0591
     1.0607   1.0643   1.0680   1.0690   1.0732   1.0785   1.0836   1.0921
     1.0952   1.0971   1.0996   1.1048   1.1050   1.1111   1.1120   1.1254
     1.1260   1.1359   1.1413   1.1427   1.1433   1.1468   1.1516   1.1576
     1.1677   1.1710   1.1729   1.1755   1.1826   1.1869   1.1903   1.1912
     1.1937   1.1972   1.2109   1.2198   1.2248   1.2271   1.2288   1.2565
     1.2662   1.2701   1.2743   1.2788   1.2802   1.2842   1.2881   1.2889
     1.2895   1.2935   1.2981   1.3034   1.3106   1.3139   1.3146   1.3157
     1.3264   1.3332   1.3358   1.3361   1.3375   1.3412   1.3461   1.3487
     1.3497   1.3515   1.3527   1.3554   1.3582   1.3591   1.3680   1.3699
     1.3786   1.3839   1.3857   1.3880   1.3922   1.3928   1.3952   1.3970
     1.4090   1.4157   1.4159   1.4166   1.4379   1.4384   1.4462   1.4497
     1.4546   1.4576   1.4582   1.4591   1.4623   1.4630   1.4675   1.4693
     1.4696   1.4706   1.4766   1.4780   1.4921   1.4981   1.4992   1.5010
     1.5019   1.5045   1.5054   1.5171   1.5188   1.5203   1.5266   1.5303
     1.5396   1.5424   1.5428   1.5495   1.5501   1.5542   1.5718   1.5820
     1.5882   1.6079   1.6174   1.6553   1.6591   1.6622   1.6651   1.6913
     1.7004   1.7767   1.7917   1.7968   1.7982   1.8154   1.8180   1.8364
     1.8726   1.8943   2.0655   2.0813   2.1016   2.1143   2.1234   2.1270
     2.2256   2.2836   2.2979   2.5918   2.5965   2.6001   2.6030   2.9195
     3.0105   3.0112   3.0586   3.2282   3.2287   3.2534   3.2535   3.3078
     3.3264   3.4937   3.5171   3.6110   3.6261   3.6466   3.6678   3.7080
     3.7375   3.7474   3.7588   3.7766   3.8465   3.9075   3.9127   4.0080
     4.0155   4.1946   4.2254   4.2430   4.2909   4.3138   4.4353   4.5524
     4.7187   4.8311   4.8527   4.8924   5.1511   5.2182   5.2546   5.2571
     5.2676   5.3895   5.4512   5.5077   5.5146   5.5410   5.5956   5.6249
     5.6539   5.7036   5.7210   5.7515   5.7750   5.7866   5.8654   5.8715
     6.0378   6.0426   6.0578   6.0702   6.2206   6.4307   6.6848   6.7184
     6.7403   6.7533   6.7849   6.8106   6.9077   6.9304   7.0512   7.0717
     7.0835   7.0892   7.1018   7.1931   7.2763   7.3135   7.3574   7.3768
     7.5045   7.5484   7.5709   7.5921   7.6098   7.7614   7.8039   7.8300
     7.9066   8.0292   8.0437   8.0557   8.0834   8.1138   8.1401   8.1521
     8.2807   8.3263   8.3515   8.3526   8.4148   8.4396   8.4753   8.4801
     8.6803   8.6844   8.7358   8.9765   8.9849   8.9898   8.9940   9.0644
     9.1768   9.2139   9.2284   9.2485   9.2627   9.2875   9.2981   9.3064
     9.3277   9.3980   9.4315   9.4489   9.4613   9.4674   9.5295   9.6057
     9.6193   9.7525   9.7583   9.7979   9.8058   9.8469   9.9028   9.9808

          k = 0.2500-0.2165 0.0000 (256316 PWs)   bands (ev):

   -17.1801 -16.1520 -15.8408 -15.5015 -15.4044 -15.1646 -14.6847 -14.5276
   -14.2247 -14.0714 -13.6655 -13.2411 -13.2263 -13.1191 -12.7384 -12.6295
   -12.1254 -11.9809 -11.4864 -11.3944 -11.2567 -11.0893 -10.9130 -10.5941
    -9.8503  -9.7797  -9.3302  -9.3188  -9.0601  -9.0327  -8.6366  -8.6108
    -8.4487  -8.3780  -7.2486  -7.0551  -6.8236  -6.6455  -6.5627  -6.4288
    -6.4107  -6.2910  -6.0791  -5.9689  -5.6853  -5.6729  -5.4693  -5.3570
    -5.1311  -5.0118  -4.8623  -4.7990  -4.6509  -4.6465  -4.5873  -4.4923
    -4.4502  -4.3539  -4.3145  -4.3119  -4.2194  -4.1478  -4.1208  -4.0235
    -3.9848  -3.8015  -3.7292  -3.6827  -3.6012  -3.5434  -3.4997  -3.4542
    -3.4253  -3.4248  -3.3202  -3.2761  -3.2410  -3.1748  -3.1403  -3.0422
    -3.0220  -2.9542  -2.9122  -2.8861  -2.8777  -2.8750  -2.8617  -2.8083
    -2.6893  -2.6417  -2.6006  -2.5431  -2.3787  -2.2841  -2.2812  -2.2685
    -2.1639  -2.1485  -2.1347  -2.1344  -2.1092  -2.0675  -1.9973  -1.9753
    -1.9750  -1.9485  -1.9321  -1.9285  -1.8788  -1.8137  -1.7936  -1.7793
    -1.7786  -1.7767  -1.7190  -1.7159  -1.7043  -1.6906  -1.6766  -1.6755
    -1.6738  -1.6603  -1.6457  -1.6427  -1.6424  -1.6420  -1.6337  -1.6329
    -1.6120  -1.5497  -1.5458  -1.4384  -1.4340  -1.4052  -1.3405  -1.3327
    -1.3292  -1.2957  -1.2948  -1.2701  -1.2435  -1.2422  -1.2287  -1.2284
    -1.2187  -1.2148  -1.2122  -1.2063  -1.1961  -1.1898  -1.1868  -1.1806
    -1.1777  -1.1756  -1.1664  -1.1642  -1.1560  -1.1505  -1.1492  -1.1273
    -1.0991  -1.0971  -1.0956  -1.0897  -1.0883  -1.0833  -1.0792  -1.0770
    -1.0487  -1.0447  -1.0082  -1.0049  -1.0046  -1.0029  -0.9942  -0.9893
    -0.9621  -0.9618  -0.9577  -0.9417  -0.9375  -0.9274  -0.9263  -0.9249
    -0.9211  -0.9209  -0.9129  -0.9026  -0.8979  -0.8904  -0.8885  -0.8695
    -0.8584  -0.8366  -0.8307  -0.8280  -0.8273  -0.8026  -0.7458  -0.7428
    -0.7418  -0.7363  -0.7359  -0.7358  -0.7009  -0.6890  -0.6868  -0.6805
    -0.6778  -0.6760  -0.6714  -0.6708  -0.6605  -0.6584  -0.6203  -0.6178
    -0.5851  -0.5801  -0.5693  -0.5467  -0.5334  -0.5303  -0.5297  -0.5284
    -0.4995  -0.4979  -0.4936  -0.4870  -0.4826  -0.4674  -0.4658  -0.4551
    -0.4541  -0.4421  -0.4350  -0.4225  -0.4193  -0.4158  -0.4113  -0.4057
    -0.3931  -0.3749  -0.3735  -0.3721  -0.3600  -0.3593  -0.3469  -0.3426
    -0.3330  -0.3327  -0.3283  -0.3279  -0.3230  -0.3223  -0.3172  -0.3162
    -0.3011  -0.2970  -0.2851  -0.2827  -0.2806  -0.2570  -0.2524  -0.2396
    -0.2338  -0.2245  -0.2205  -0.2052  -0.2049  -0.1983  -0.1904  -0.1834
    -0.1820  -0.1797  -0.1752  -0.1499  -0.1426  -0.1193  -0.1190  -0.0835
    -0.0820  -0.0735  -0.0732  -0.0713  -0.0693  -0.0619  -0.0524  -0.0521
    -0.0353  -0.0347  -0.0320  -0.0253  -0.0169  -0.0117  -0.0097  -0.0069
    -0.0046  -0.0039   0.0012   0.0185   0.0225   0.0254   0.0310   0.0317
     0.0321   0.0338   0.0347   0.0359   0.0405   0.0422   0.0450   0.0660
     0.0664   0.0667   0.0672   0.0980   0.1006   0.1033   0.1083   0.1094
     0.1123   0.1268   0.1325   0.1357   0.1426   0.1561   0.1666   0.1676
     0.1738   0.1779   0.1867   0.1873   0.1887   0.1934   0.2024   0.2049
     0.2100   0.2110   0.2383   0.2404   0.2948   0.3025   0.3052   0.3134
     0.3143   0.3162   0.3177   0.3205   0.3215   0.3254   0.3277   0.3291
     0.3345   0.3473   0.3491   0.3536   0.3564   0.3574   0.3630   0.3654
     0.3704   0.3716   0.3829   0.3993   0.4056   0.4158   0.4162   0.4260
     0.4283   0.4361   0.4411   0.4685   0.4786   0.4817   0.4848   0.4889
     0.4914   0.4921   0.4958   0.5038   0.5048   0.5092   0.5134   0.5146
     0.5178   0.5193   0.5199   0.5454   0.5480   0.5526   0.5544   0.5632
     0.5694   0.5719   0.6011   0.6018   0.6026   0.6035   0.6338   0.6364
     0.6377   0.6404   0.6413   0.6442   0.6451   0.6487   0.6578   0.6591
     0.6603   0.6635   0.6654   0.6717   0.6810   0.6864   0.6916   0.6934
     0.7024   0.7028   0.7061   0.7063   0.7073   0.7145   0.7183   0.7203
     0.7238   0.7248   0.7353   0.7416   0.7446   0.7463   0.7505   0.7515
     0.7526   0.7548   0.7557   0.7564   0.7886   0.7908   0.7996   0.8036
     0.8127   0.8192   0.8322   0.8421   0.8579   0.8581   0.8597   0.8601
     0.8627   0.8650   0.8661   0.8831   0.8883   0.8893   0.8898   0.8901
     0.8912   0.8951   0.9013   0.9071   0.9178   0.9187   0.9233   0.9300
     0.9332   0.9387   0.9513   0.9635   0.9638   0.9692   0.9874   0.9880
     0.9902   0.9958   0.9990   1.0000   1.0032   1.0038   1.0095   1.0226
     1.0335   1.0377   1.0443   1.0511   1.0539   1.0594   1.0652   1.0720
     1.0787   1.0828   1.0970   1.0980   1.1146   1.1153   1.1214   1.1223
     1.1245   1.1254   1.1262   1.1265   1.1296   1.1313   1.1392   1.1409
     1.1423   1.1486   1.1522   1.1543   1.1674   1.1714   1.1859   1.1976
     1.2005   1.2014   1.2062   1.2088   1.2100   1.2112   1.2143   1.2203
     1.2214   1.2247   1.2256   1.2268   1.2310   1.2345   1.2367   1.2392
     1.2408   1.2451   1.2515   1.2568   1.2582   1.2589   1.2600   1.2604
     1.2684   1.2732   1.2792   1.2801   1.2839   1.3039   1.3059   1.3130
     1.3134   1.3240   1.3285   1.3324   1.3347   1.3433   1.3456   1.3471
     1.3557   1.3582   1.3654   1.3664   1.3680   1.3699   1.3717   1.3801
     1.3820   1.3831   1.3848   1.3942   1.3955   1.4033   1.4092   1.4168
     1.4170   1.4172   1.4201   1.4208   1.4215   1.4277   1.4282   1.4386
     1.4398   1.4404   1.4447   1.4482   1.4538   1.4555   1.4595   1.4695
     1.4717   1.4726   1.4732   1.4775   1.4789   1.4791   1.4797   1.4821
     1.4888   1.4889   1.5135   1.5137   1.5154   1.5202   1.5238   1.5354
     1.5376   1.5537   1.5574   1.5612   1.5636   1.5784   1.5857   1.5869
     1.5924   1.5933   1.6168   1.6204   1.6403   1.6793   1.6992   1.7015
     1.7309   1.7849   1.7911   1.8006   1.8087   1.8220   1.8228   1.8237
     1.8247   1.8470   1.8744   1.8857   2.1589   2.1602   2.1905   2.1925
     2.3136   2.3249   2.6155   2.6179   2.7402   2.8146   2.8233   2.8244
     2.8315   2.8358   2.8625   2.8723   2.9936   3.0172   3.0247   3.1184
     3.1276   3.5570   3.5782   3.6385   3.6492   3.7042   3.7255   3.8539
     3.8735   3.8769   3.8819   3.9375   4.0295   4.0503   4.1006   4.1358
     4.1963   4.2071   4.3949   4.4070   4.4091   4.5737   4.5818   4.5964
     4.6572   4.6972   4.7164   4.7399   4.9490   4.9683   5.0124   5.0500
     5.0764   5.1246   5.2710   5.3278   5.4014   5.4414   5.4791   5.4894
     5.4902   5.4958   5.5745   5.7841   5.7954   5.8751   5.9289   5.9560
     5.9719   6.0012   6.3666   6.6073   6.6329   6.6530   6.6673   6.7737
     6.7919   6.8456   6.9069   6.9147   7.0629   7.0960   7.1043   7.1249
     7.1388   7.1539   7.1974   7.2452   7.2561   7.3500   7.3553   7.3739
     7.3844   7.4044   7.4541   7.4740   7.4756   7.6866   7.7086   7.7944
     7.8292   7.8351   7.9544   8.0279   8.0930   8.2112   8.2349   8.2567
     8.2898   8.3092   8.5493   8.6088   8.6183   8.6235   8.6304   8.6754
     8.6806   8.7222   8.7417   8.7455   8.8477   8.8749   8.9407   8.9642
     8.9821   9.0140   9.1433   9.1678   9.1797   9.1909   9.2151   9.2223
     9.2574   9.2882   9.3032   9.3083   9.3766   9.3913   9.3984   9.4547
     9.4641   9.4703   9.6267   9.6331   9.9046   9.9723   9.9824   9.9956

          k =-0.5000 0.0000 0.0000 (256496 PWs)   bands (ev):

   -17.1210 -15.9610 -15.7150 -15.5902 -15.5710 -15.5357 -14.7829 -14.5732
   -14.4832 -14.4462 -13.1802 -12.8567 -12.7366 -12.6653 -12.4030 -12.3881
   -11.8860 -11.8649 -11.7897 -11.7522 -11.2069 -11.1777 -10.9646 -10.7302
   -10.3415 -10.2404 -10.0146  -9.7177  -9.1664  -9.1139  -8.9062  -8.8990
    -7.8214  -7.6187  -7.5573  -7.3844  -7.3253  -7.3062  -6.2362  -6.1685
    -5.8550  -5.5014  -5.2831  -5.2743  -5.1822  -5.0495  -4.9415  -4.8277
    -4.7997  -4.7720  -4.7709  -4.7613  -4.7302  -4.7166  -4.7058  -4.6657
    -4.6132  -4.5892  -4.4474  -4.4293  -4.3797  -4.3217  -4.2576  -4.1680
    -4.0086  -3.9991  -3.9398  -3.9353  -3.7136  -3.6488  -3.6459  -3.5634
    -3.5416  -3.5276  -3.3949  -3.3874  -3.3869  -3.3857  -3.3565  -3.3496
    -3.3317  -3.3049  -3.2063  -2.9347  -2.8915  -2.8074  -2.7945  -2.7590
    -2.7171  -2.6935  -2.6047  -2.5863  -2.5640  -2.5126  -2.4160  -2.4107
    -2.2772  -2.2682  -2.2663  -2.2614  -1.8851  -1.8453  -1.8449  -1.8447
    -1.8429  -1.8426  -1.8399  -1.8075  -1.7495  -1.7337  -1.7211  -1.7035
    -1.6677  -1.6253  -1.6167  -1.6163  -1.6160  -1.6015  -1.5684  -1.5678
    -1.5674  -1.5653  -1.4761  -1.4676  -1.4532  -1.4530  -1.4446  -1.4277
    -1.4231  -1.3924  -1.3918  -1.3900  -1.3842  -1.3728  -1.3714  -1.3244
    -1.3238  -1.3212  -1.3188  -1.3180  -1.3075  -1.3070  -1.3046  -1.3005
    -1.2956  -1.2589  -1.2572  -1.2562  -1.2552  -1.2344  -1.2338  -1.2336
    -1.2322  -1.1701  -1.1700  -1.1547  -1.1492  -1.1476  -1.1472  -1.1460
    -1.1224  -1.1211  -1.1191  -1.1160  -1.1159  -1.1141  -1.0908  -1.0735
    -1.0726  -1.0719  -1.0716  -1.0594  -1.0518  -1.0512  -1.0214  -1.0212
    -0.9789  -0.9751  -0.9746  -0.9482  -0.9476  -0.9456  -0.9447  -0.9409
    -0.9186  -0.9177  -0.9165  -0.9141  -0.9131  -0.9098  -0.8982  -0.8979
    -0.8949  -0.8938  -0.8839  -0.8690  -0.8679  -0.8172  -0.8062  -0.8048
    -0.8038  -0.7944  -0.7602  -0.7598  -0.6794  -0.6776  -0.6766  -0.6759
    -0.6735  -0.6520  -0.6388  -0.6383  -0.6374  -0.6371  -0.6322  -0.6316
    -0.6126  -0.6008  -0.5977  -0.5972  -0.5934  -0.5892  -0.5838  -0.5729
    -0.5673  -0.5654  -0.5475  -0.5341  -0.4900  -0.4829  -0.4652  -0.4416
    -0.4394  -0.4311  -0.4218  -0.4216  -0.4098  -0.3966  -0.3807  -0.3783
    -0.3721  -0.3717  -0.3699  -0.3681  -0.3677  -0.3536  -0.3336  -0.3330
    -0.3326  -0.3321  -0.3140  -0.2950  -0.2943  -0.2940  -0.2935  -0.2734
    -0.2610  -0.2608  -0.2604  -0.2599  -0.2496  -0.2492  -0.2164  -0.2164
    -0.2149  -0.2144  -0.2134  -0.2097  -0.1953  -0.1858  -0.1752  -0.1680
    -0.1609  -0.1110  -0.1009  -0.1000  -0.0996  -0.0963  -0.0945  -0.0940
    -0.0921  -0.0911  -0.0549  -0.0544  -0.0506  -0.0484  -0.0183  -0.0177
     0.0100   0.0103   0.0113   0.0122   0.0125   0.0132   0.0146   0.0148
     0.0150   0.0156   0.0160   0.0168   0.0697   0.0884   0.0916   0.0942
     0.0982   0.1005   0.1041   0.1049   0.1065   0.1077   0.1106   0.1122
     0.1148   0.1152   0.1186   0.1204   0.1211   0.1226   0.1294   0.1371
     0.1373   0.1495   0.1520   0.1524   0.1530   0.1531   0.1531   0.1544
     0.1626   0.1628   0.1633   0.1641   0.1761   0.1766   0.1881   0.1883
     0.1891   0.1894   0.2026   0.2069   0.2177   0.2187   0.2701   0.2900
     0.3198   0.3202   0.3232   0.3233   0.3529   0.3536   0.3542   0.3548
     0.3671   0.3691   0.3711   0.3726   0.3779   0.3787   0.3794   0.3796
     0.3841   0.3843   0.3863   0.3865   0.3881   0.3918   0.4008   0.4024
     0.4046   0.4067   0.4105   0.4155   0.4227   0.4231   0.4315   0.4319
     0.4371   0.4380   0.4601   0.4659   0.5197   0.5243   0.5270   0.5275
     0.5382   0.5403   0.5522   0.5557   0.5582   0.5605   0.5615   0.5621
     0.5647   0.5660   0.5686   0.5689   0.5692   0.5719   0.5730   0.5735
     0.5782   0.5789   0.5807   0.5820   0.5971   0.5992   0.6138   0.6188
     0.6191   0.6313   0.6343   0.6408   0.6521   0.6544   0.6551   0.6579
     0.6647   0.6652   0.6653   0.6691   0.6694   0.6702   0.6812   0.6844
     0.6865   0.6870   0.7013   0.7030   0.7039   0.7045   0.7361   0.7398
     0.7408   0.7415   0.7442   0.7474   0.7561   0.7608   0.7753   0.7851
     0.7936   0.7997   0.8011   0.8015   0.8022   0.8031   0.8044   0.8364
     0.8678   0.8703   0.8744   0.8750   0.8752   0.8761   0.8785   0.8799
     0.8848   0.8864   0.8875   0.8888   0.8979   0.8994   0.9125   0.9190
     0.9204   0.9220   0.9233   0.9323   0.9396   0.9404   0.9405   0.9418
     0.9428   0.9430   0.9776   0.9801   0.9813   0.9826   0.9884   1.0245
     1.0465   1.0476   1.0484   1.0487   1.0617   1.0771   1.0809   1.0814
     1.0828   1.0833   1.0986   1.0992   1.1088   1.1113   1.1135   1.1145
     1.1244   1.1331   1.1410   1.1451   1.1502   1.1512   1.1520   1.1529
     1.1570   1.1587   1.1596   1.1615   1.1694   1.1701   1.1706   1.1711
     1.1718   1.1726   1.1731   1.1756   1.2070   1.2112   1.2114   1.2115
     1.2130   1.2258   1.2384   1.2412   1.2429   1.2474   1.2477   1.2490
     1.2545   1.2646   1.2665   1.2759   1.2763   1.2769   1.2777   1.2833
     1.2866   1.2873   1.2883   1.2905   1.2939   1.3034   1.3059   1.3116
     1.3332   1.3342   1.3428   1.3464   1.3499   1.3501   1.3502   1.3504
     1.3505   1.3507   1.3592   1.3606   1.3641   1.3646   1.3657   1.3663
     1.3666   1.3673   1.3703   1.3731   1.3766   1.3771   1.3772   1.3778
     1.3839   1.3846   1.3989   1.4001   1.4103   1.4168   1.4201   1.4252
     1.4257   1.4260   1.4274   1.4277   1.4301   1.4447   1.4488   1.4496
     1.4505   1.4638   1.4639   1.4706   1.4717   1.4823   1.4836   1.4839
     1.4843   1.4991   1.5023   1.5049   1.5065   1.5074   1.5133   1.5138
     1.5140   1.5141   1.5184   1.5257   1.5325   1.5339   1.5441   1.5481
     1.5482   1.5489   1.5489   1.5580   1.5583   1.5637   1.6091   1.6109
     1.6181   1.6416   1.6418   1.6452   1.6468   1.6528   2.0549   2.0640
     2.0688   2.0705   2.2552   2.2685   2.2842   2.2939   2.3172   2.3182
     2.3255   2.3261   2.6091   2.6518   2.6560   2.6662   2.8198   2.8622
     2.8679   2.8708   3.0004   3.2166   3.2186   3.2221   3.2225   3.5041
     3.5117   3.7738   3.7959   3.7986   3.8061   3.8999   3.9570   3.9635
     3.9678   4.0127   4.1026   4.1040   4.1095   4.1223   4.2307   4.2374
     4.4159   4.4352   4.7237   4.7734   4.7901   4.8018   4.8035   4.8494
     4.8599   4.8607   4.9234   4.9624   5.0516   5.0531   5.0744   5.0780
     5.0837   5.0878   5.1087   5.1098   5.1223   5.1288   5.1610   5.1775
     5.4494   5.5168   5.5641   5.5671   5.6401   5.7168   5.7418   5.7825
     6.0087   6.0192   6.0258   6.0413   6.0470   6.0732   6.0806   6.0952
     6.1329   6.2452   6.4391   6.4630   6.4712   6.4884   6.5028   6.5174
     7.1076   7.1305   7.1333   7.1510   7.1555   7.1632   7.4312   7.6181
     7.6260   7.6317   7.6368   7.6378   7.6419   7.6720   7.6959   7.8454
     7.8505   7.9096   7.9163   7.9255   7.9293   8.0318   8.0851   8.0860
     8.0934   8.1028   8.1315   8.1661   8.1749   8.1952   8.4045   8.5719
     8.6247   8.6612   8.7193   8.8624   8.8650   8.8687   8.8730   8.9833
     8.9926   9.0009   9.1034   9.1134   9.1178   9.1371   9.2946   9.3007
     9.4012   9.4251   9.4840   9.5001   9.5013   9.5052   9.5479   9.5537
     9.5655   9.5713   9.5772   9.5825   9.7817   9.7980   9.9155   9.9957

          k =-0.5000-0.2165 0.0000 (256328 PWs)   bands (ev):

   -17.1209 -15.9216 -15.7904 -15.7721 -15.3597 -15.1763 -15.1160 -15.0839
   -14.0301 -13.7932 -13.6808 -13.6350 -12.6276 -12.4158 -11.9771 -11.9706
   -11.8879 -11.7269 -11.6423 -11.5567 -11.5210 -11.5051 -11.3972 -11.3552
   -10.0685  -9.9956  -9.7076  -9.6900  -9.1458  -8.9190  -8.7501  -8.7340
    -8.2817  -8.1900  -7.9585  -7.9544  -6.5837  -6.2943  -6.0879  -5.9438
    -5.7865  -5.5912  -5.4778  -5.2953  -5.2877  -5.1782  -5.1669  -5.1486
    -5.1474  -5.1403  -5.0170  -4.9688  -4.9575  -4.5485  -4.4741  -4.3428
    -4.3159  -4.3029  -4.2109  -4.1728  -4.1699  -4.1653  -4.1643  -4.1430
    -4.0896  -4.0381  -4.0328  -3.8707  -3.8373  -3.8032  -3.7664  -3.7261
    -3.6801  -3.6110  -3.6035  -3.5599  -3.5274  -3.5114  -3.4346  -3.4112
    -3.1953  -3.1338  -3.0380  -3.0345  -2.6130  -2.5809  -2.5476  -2.5459
    -2.5452  -2.5363  -2.5167  -2.5047  -2.4869  -2.4836  -2.4532  -2.3599
    -2.2959  -2.1238  -2.0904  -2.0684  -2.0656  -2.0483  -2.0366  -2.0131
    -2.0008  -1.9816  -1.9786  -1.9569  -1.9429  -1.8306  -1.7704  -1.7690
    -1.7670  -1.7665  -1.7122  -1.7034  -1.5622  -1.5276  -1.4794  -1.4740
    -1.4596  -1.4591  -1.4590  -1.4589  -1.4268  -1.4194  -1.4186  -1.4168
    -1.3997  -1.3991  -1.3972  -1.3971  -1.3519  -1.3512  -1.3505  -1.3496
    -1.3495  -1.3490  -1.3449  -1.3437  -1.3238  -1.3237  -1.3236  -1.3235
    -1.2779  -1.2757  -1.2727  -1.2723  -1.2445  -1.2199  -1.2025  -1.1967
    -1.1953  -1.1591  -1.1571  -1.1566  -1.1555  -1.1553  -1.1385  -1.1381
    -1.1373  -1.1228  -1.0926  -1.0867  -1.0863  -1.0855  -1.0815  -1.0808
    -1.0807  -1.0790  -1.0778  -1.0622  -1.0555  -1.0423  -1.0256  -1.0253
    -1.0200  -1.0193  -1.0085  -1.0080  -1.0039  -1.0033  -1.0031  -1.0029
    -1.0020  -1.0014  -1.0013  -0.9899  -0.9075  -0.8493  -0.8487  -0.8469
    -0.8465  -0.8190  -0.8185  -0.8181  -0.8178  -0.7597  -0.7373  -0.7364
    -0.7357  -0.7338  -0.7317  -0.7291  -0.7279  -0.7276  -0.7274  -0.7260
    -0.7068  -0.6697  -0.6658  -0.6653  -0.6634  -0.6564  -0.6546  -0.6539
    -0.6529  -0.6394  -0.6345  -0.6308  -0.6282  -0.6024  -0.5411  -0.5392
    -0.5355  -0.5346  -0.5339  -0.5317  -0.5278  -0.4671  -0.4643  -0.4635
    -0.4617  -0.4505  -0.4144  -0.4137  -0.4127  -0.4110  -0.3938  -0.3936
    -0.3924  -0.3923  -0.3675  -0.3649  -0.3632  -0.3554  -0.3546  -0.3536
    -0.3524  -0.3382  -0.3183  -0.3164  -0.3142  -0.2777  -0.2407  -0.2404
    -0.2372  -0.2371  -0.2226  -0.2223  -0.2221  -0.2219  -0.2056  -0.2055
    -0.2055  -0.2021  -0.1242  -0.1237  -0.1227  -0.1214  -0.1189  -0.1184
    -0.1170  -0.1167  -0.1151  -0.1149  -0.1131  -0.1127  -0.0770  -0.0769
    -0.0769  -0.0766  -0.0649  -0.0649  -0.0646  -0.0644  -0.0611  -0.0604
    -0.0600  -0.0592   0.0074   0.0080   0.0087   0.0102   0.0325   0.0332
     0.0353   0.0368   0.0693   0.0794   0.0859   0.0874   0.0942   0.0983
     0.1112   0.1148   0.1155   0.1162   0.1171   0.1201   0.1215   0.1223
     0.1239   0.1254   0.1269   0.1275   0.1298   0.1352   0.1354   0.1365
     0.1370   0.1414   0.1416   0.1432   0.1435   0.1577   0.1581   0.1586
     0.1602   0.1861   0.1864   0.1866   0.1868   0.1914   0.1956   0.1966
     0.1980   0.2118   0.2454   0.2457   0.2463   0.2466   0.2766   0.2782
     0.2792   0.2796   0.3031   0.3332   0.3464   0.3501   0.3525   0.3586
     0.3603   0.3612   0.3637   0.3693   0.3721   0.3787   0.3795   0.3814
     0.3830   0.3923   0.3929   0.3966   0.3997   0.4004   0.4011   0.4032
     0.4041   0.4064   0.4076   0.4117   0.4132   0.4173   0.4266   0.4292
     0.4804   0.4820   0.4853   0.4886   0.4912   0.4920   0.4929   0.4960
     0.5041   0.5045   0.5047   0.5054   0.5364   0.5390   0.5424   0.5433
     0.5440   0.5448   0.5493   0.5502   0.5723   0.5870   0.5874   0.5889
     0.5903   0.5929   0.5990   0.6010   0.6020   0.6026   0.6039   0.6044
     0.6097   0.6098   0.6104   0.6137   0.6249   0.6258   0.6269   0.6276
     0.6294   0.6368   0.6435   0.6442   0.6948   0.7014   0.7093   0.7119
     0.7141   0.7162   0.7174   0.7185   0.7195   0.7207   0.7221   0.7256
     0.7275   0.7363   0.7410   0.7447   0.7628   0.7640   0.7642   0.7646
     0.7655   0.7660   0.7664   0.7693   0.8034   0.8111   0.8178   0.8184
     0.8309   0.8432   0.8464   0.8467   0.8485   0.8516   0.8640   0.8665
     0.8820   0.8823   0.8831   0.8852   0.9052   0.9074   0.9085   0.9094
     0.9593   0.9605   0.9611   0.9614   0.9927   0.9931   0.9941   0.9950
     1.0163   1.0350   1.0452   1.0463   1.0501   1.0511   1.0610   1.0634
     1.0659   1.0730   1.0741   1.0747   1.0764   1.0791   1.0796   1.0798
     1.0802   1.0825   1.0827   1.0842   1.0846   1.0931   1.0952   1.1046
     1.1076   1.1114   1.1133   1.1143   1.1156   1.1165   1.1175   1.1188
     1.1212   1.1281   1.1320   1.1329   1.1532   1.1542   1.1583   1.1595
     1.1609   1.1661   1.1674   1.1677   1.1760   1.1774   1.1783   1.1788
     1.2152   1.2187   1.2267   1.2271   1.2296   1.2301   1.2325   1.2328
     1.2531   1.2562   1.2567   1.2571   1.2599   1.2699   1.2737   1.2756
     1.2764   1.2789   1.2929   1.2937   1.3035   1.3051   1.3060   1.3069
     1.3133   1.3141   1.3149   1.3162   1.3205   1.3216   1.3219   1.3228
     1.3615   1.3869   1.3872   1.3879   1.3881   1.3891   1.3893   1.3897
     1.3899   1.3922   1.3962   1.3983   1.4004   1.4026   1.4065   1.4078
     1.4108   1.4143   1.4178   1.4181   1.4188   1.4202   1.4227   1.4243
     1.4287   1.4297   1.4300   1.4300   1.4318   1.4385   1.4404   1.4411
     1.4496   1.4503   1.4513   1.4519   1.4829   1.4837   1.4839   1.4842
     1.4955   1.4991   1.4991   1.4994   1.5057   1.5111   1.5134   1.5168
     1.5286   1.5350   1.5360   1.5365   1.5623   1.5826   1.5888   1.5894
     1.6079   1.6082   1.6084   1.6090   1.6353   1.6372   1.6381   1.6405
     1.6429   1.6455   1.6472   1.6480   1.6498   1.6500   1.6520   1.6532
     1.8653   1.8684   1.8701   1.8708   2.3456   2.3789   2.3845   2.3869
     2.5760   2.5907   2.5945   2.5964   2.7514   2.8251   2.8321   2.8345
     2.9621   3.1196   3.1307   3.1353   3.1832   3.4850   3.4868   3.4878
     3.4909   3.6660   3.6769   3.6813   3.6816   3.9376   3.9626   3.9631
     3.9646   4.0519   4.2601   4.2614   4.2626   4.2701   4.3635   4.3725
     4.3852   4.3870   4.5790   4.5862   4.5955   4.6023   4.6233   4.6325
     4.6425   4.7269   4.8731   4.9135   4.9170   4.9741   5.0517   5.0940
     5.1822   5.1984   5.2063   5.2112   5.2426   5.2701   5.3047   5.3120
     5.3630   5.3756   5.3868   5.3991   5.4373   5.5645   5.7570   5.7631
     5.7806   5.7829   5.7871   5.7882   5.8613   5.9288   5.9342   5.9415
     6.7593   6.8027   6.8187   6.8330   6.8357   7.1341   7.1517   7.1648
     7.1736   7.1857   7.1870   7.1920   7.2145   7.3029   7.3162   7.3317
     7.3700   7.3972   7.4030   7.4041   7.4152   7.5488   7.6526   7.6646
     7.6724   7.7011   7.9065   7.9320   7.9800   8.0136   8.0234   8.0300
     8.0782   8.1575   8.2622   8.2698   8.2753   8.2907   8.3201   8.3499
     8.8546   8.9246   8.9266   8.9313   8.9331   8.9454   8.9530   8.9552
     8.9996   9.0007   9.0021   9.0052   9.0411   9.1057   9.1163   9.1316
     9.1373   9.2088   9.2712   9.2972   9.3887   9.5562   9.5628   9.5900
     9.5991   9.6044   9.6158   9.6306   9.7328   9.8850   9.9198   9.9566

     the Fermi energy is     3.3568 ev

!    total energy              =  -12708.25010251 Ry
     Harris-Foulkes estimate   =  -12708.25010248 Ry
     estimated scf accuracy    <          8.0E-09 Ry

     The total energy is the sum of the following terms:

     one-electron contribution = -109388.07250210 Ry
     hartree contribution      =   56057.49507959 Ry
     xc contribution           =   -4448.55534152 Ry
     ewald contribution        =   45077.25143487 Ry
     Dispersion Correction     =      -2.99695788 Ry
     smearing contrib. (-TS)   =      -3.37181547 Ry

     convergence has been achieved in  48 iterations

     Writing output data file gc.save
 
     init_run     :     99.39s CPU    106.12s WALL (       1 calls)
     electrons    :  12640.45s CPU  13513.46s WALL (       1 calls)

     Called by init_run:
     wfcinit      :     97.01s CPU    103.44s WALL (       1 calls)
     potinit      :      0.41s CPU      0.42s WALL (       1 calls)

     Called by electrons:
     c_bands      :  11583.95s CPU  12355.88s WALL (      48 calls)
     sum_band     :    886.53s CPU    960.61s WALL (      48 calls)
     v_of_rho     :      3.26s CPU      3.95s WALL (      49 calls)
     newd         :      9.56s CPU     15.11s WALL (      49 calls)
     mix_rho      :    157.06s CPU    177.87s WALL (      48 calls)

     Called by c_bands:
     init_us_2    :     39.23s CPU     40.07s WALL (     582 calls)
     cegterg      :  11408.48s CPU  12173.98s WALL (     294 calls)

     Called by sum_band:
     sum_band:bec :      4.98s CPU      5.68s WALL (     288 calls)
     addusdens    :      8.57s CPU     14.65s WALL (      48 calls)

     Called by *egterg:
     h_psi        :   4284.73s CPU   4625.25s WALL (    1930 calls)
     s_psi        :   1038.40s CPU   1049.80s WALL (    1930 calls)
     g_psi        :     10.58s CPU     10.58s WALL (    1630 calls)
     cdiaghg      :   3205.55s CPU   3328.88s WALL (    1918 calls)

     Called by h_psi:
     add_vuspsi   :   1042.84s CPU   1056.35s WALL (    1930 calls)

     General routines
     calbec       :   1474.79s CPU   1484.70s WALL (    2218 calls)
     fft          :      4.07s CPU      4.60s WALL (     636 calls)
     ffts         :     92.82s CPU    105.32s WALL (   24067 calls)
     fftw         :   2481.24s CPU   2755.98s WALL ( 1369912 calls)
     davcio       :      0.21s CPU      4.07s WALL (       6 calls)
 
     Parallel routines
     fft_scatter  :   1609.42s CPU   1756.73s WALL ( 1394615 calls)
 
     PWSCF        :     3h32m CPU        3h47m WALL

 
   This run was terminated on:  14: 7:12  12May2017            

=------------------------------------------------------------------------------=
   JOB DONE.
=------------------------------------------------------------------------------=
