
     Program PWSCF v.5.4.0 starts on 21Mar2017 at  8:30: 0 

     This program is part of the open-source Quantum ESPRESSO suite
     for quantum simulation of materials; please cite
         "P. Giannozzi et al., J. Phys.:Condens. Matter 21 395502 (2009);
          URL http://www.quantum-espresso.org", 
     in publications or presentations arising from this work. More details at
     http://www.quantum-espresso.org/quote

     Parallel version (MPI & OpenMP), running on      56 processor cores
     Number of MPI processes:                56
     Threads/MPI process:                     1
     R & G space division:  proc/nbgrp/npool/nimage =      56
     Waiting for input...
     Reading input from standard input

     Current dimensions of program PWSCF are:
     Max number of different atomic species (ntypx) = 10
     Max number of k-points (npk) =  40000
     Max angular momentum in pseudopotentials (lmaxx) =  3

     -------------------------------------
     Parameters for Dispersion Correction:
     -------------------------------------
       atom      VdW radius       C_6     

        Cu         2.952        374.666
        C          2.744         60.710
        H          1.892          4.857

     Subspace diagonalization in iterative solution of the eigenvalue problem:
     one sub-group per band group will be used
     scalapack distributed-memory algorithm (size of sub-group:  5*  5 procs)

 
     Parallelization info
     --------------------
     sticks:   dense  smooth     PW     G-vecs:    dense   smooth      PW
     Min         204     204     54                36612    36612    4962
     Max         205     205     55                36617    36617    4968
     Sum       11433   11433   3039              2050409  2050409  278033
 


     bravais-lattice index     =            0
     lattice parameter (alat)  =      13.9425  a.u.
     unit-cell volume          =   21209.0878 (a.u.)^3
     number of atoms/cell      =          154
     number of atomic types    =            3
     number of electrons       =      1304.00
     number of Kohn-Sham states=          782
     kinetic-energy cutoff     =      80.0000  Ry
     charge density cutoff     =     320.0000  Ry
     convergence threshold     =      1.0E-08
     mixing beta               =       0.7000
     number of iterations used =            8  local-TF  mixing
     Exchange-correlation      =  SLA  PW   PBE  PBE ( 1  4  3  4 0 0)
     nstep                     =           50


     celldm(1)=  13.942539  celldm(2)=   0.000000  celldm(3)=   0.000000
     celldm(4)=   0.000000  celldm(5)=   0.000000  celldm(6)=   0.000000

     crystal axes: (cart. coord. in units of alat)
               a(1) = (   1.000000   0.000000   0.000000 )  
               a(2) = (   0.000000   2.309401   0.000000 )  
               a(3) = (   0.000000   0.000000   3.388418 )  

     reciprocal axes: (cart. coord. in units 2 pi/alat)
               b(1) = (  1.000000  0.000000  0.000000 )  
               b(2) = (  0.000000  0.433013  0.000000 )  
               b(3) = (  0.000000  0.000000  0.295123 )  


     PseudoPot. # 1 for Cu read from file:
     /home/549/hxw549/Short/pseudopotentials/Cu.pbe-n-van_ak.UPF
     MD5 check sum: 601f7c30f7467666bec936e0661ce3e1
     Pseudo is Ultrasoft + core correction, Zval = 11.0
     Generated by new atomic code, or converted to UPF format
     Using radial grid of  867 points,  6 beta functions with: 
                l(1) =   0
                l(2) =   0
                l(3) =   1
                l(4) =   1
                l(5) =   2
                l(6) =   2
     Q(r) pseudized with  8 coefficients,  rinner =    1.400   1.400   1.400
                                                       1.400   1.400

     PseudoPot. # 2 for C  read from file:
     /home/549/hxw549/Short/pseudopotentials/C.pbe-mt_gipaw.UPF
     MD5 check sum: 5ac2f21f2c440b14befe521540822c15
     Pseudo is Norm-conserving, Zval =  4.0
     Generated by new atomic code, or converted to UPF format
     Using radial grid of 1073 points,  1 beta functions with: 
                l(1) =   0

     PseudoPot. # 3 for H  read from file:
     /home/549/hxw549/Short/pseudopotentials/H.pbe-van_ak.UPF
     MD5 check sum: 077eb6d537518a38cb46c6de387227b7
     Pseudo is Ultrasoft, Zval =  1.0
     Generated by new atomic code, or converted to UPF format
     Using radial grid of  615 points,  1 beta functions with: 
                l(1) =   0
     Q(r) pseudized with  8 coefficients,  rinner =    0.800

     atomic species   valence    mass     pseudopotential
        Cu            11.00    63.54600     Cu( 1.00)
        C              4.00    12.01070     C ( 1.00)
        H              1.00     1.00783     H ( 1.00)

     No symmetry found



   Cartesian axes

     site n.     atom                  positions (alat units)
         1           Cu  tau(   1) = (  -0.0000057   0.0001629   0.9977181  )
         2           Cu  tau(   2) = (   0.2499945   0.2309667   0.9976025  )
         3           Cu  tau(   3) = (   0.4999766   0.0000658   0.9976130  )
         4           Cu  tau(   4) = (   0.7499835   0.2309812   0.9976450  )
         5           Cu  tau(   5) = (  -0.0000116   0.4618218   0.9975653  )
         6           Cu  tau(   6) = (   0.2500411   0.6928189   0.9975231  )
         7           Cu  tau(   7) = (   0.5000004   0.4619270   0.9977047  )
         8           Cu  tau(   8) = (   0.7499565   0.6928149   0.9975533  )
         9           Cu  tau(   9) = (  -0.0000061   0.9237576   0.9974545  )
        10           Cu  tau(  10) = (   0.2500708   1.1546664   0.9975305  )
        11           Cu  tau(  11) = (   0.5000073   0.9237212   0.9975532  )
        12           Cu  tau(  12) = (   0.7499223   1.1546553   0.9975688  )
        13           Cu  tau(  13) = (  -0.0000086   1.3856205   0.9975488  )
        14           Cu  tau(  14) = (   0.2499917   1.6164767   0.9977176  )
        15           Cu  tau(  15) = (   0.4999910   1.3855683   0.9978066  )
        16           Cu  tau(  16) = (   0.7499820   1.6165202   0.9976909  )
        17           Cu  tau(  17) = (   0.0000027   1.8473668   0.9977467  )
        18           Cu  tau(  18) = (   0.2499584   2.0785164   0.9976665  )
        19           Cu  tau(  19) = (   0.4999664   1.8474466   0.9976499  )
        20           Cu  tau(  20) = (   0.7500097   2.0784727   0.9975626  )
        21           Cu  tau(  21) = (   0.0000222   0.2311220   1.2463174  )
        22           Cu  tau(  22) = (   0.2499471   0.0002372   1.2461751  )
        23           Cu  tau(  23) = (   0.4999797   0.2306998   1.2457044  )
        24           Cu  tau(  24) = (   0.7500296   0.0001012   1.2460200  )
        25           Cu  tau(  25) = (   0.0000492   0.6927114   1.2453804  )
        26           Cu  tau(  26) = (   0.2498759   0.4617282   1.2456617  )
        27           Cu  tau(  27) = (   0.5000195   0.6928281   1.2461362  )
        28           Cu  tau(  28) = (   0.7501612   0.4617382   1.2456980  )
        29           Cu  tau(  29) = (   0.0000518   1.1547207   1.2453825  )
        30           Cu  tau(  30) = (   0.2500232   0.9237024   1.2459343  )
        31           Cu  tau(  31) = (   0.5000043   1.1545101   1.2461695  )
        32           Cu  tau(  32) = (   0.7500645   0.9236894   1.2459807  )
        33           Cu  tau(  33) = (   0.0000120   1.6162971   1.2462710  )
        34           Cu  tau(  34) = (   0.2498481   1.3856208   1.2457567  )
        35           Cu  tau(  35) = (   0.4999766   1.6168628   1.2457182  )
        36           Cu  tau(  36) = (   0.7501707   1.3857047   1.2456571  )
        37           Cu  tau(  37) = (   0.0000133   2.0785028   1.2459429  )
        38           Cu  tau(  38) = (   0.2499351   1.8474368   1.2460348  )
        39           Cu  tau(  39) = (   0.4999543   2.0784883   1.2457928  )
        40           Cu  tau(  40) = (   0.7500360   1.8474907   1.2459857  )
        41           Cu  tau(  41) = (   0.0000738  -0.0000598   1.4959201  )
        42           Cu  tau(  42) = (   0.2498520   0.2311396   1.4961257  )
        43           Cu  tau(  43) = (   0.4999390  -0.0002022   1.4955123  )
        44           Cu  tau(  44) = (   0.7502401   0.2308551   1.4957554  )
        45           Cu  tau(  45) = (   0.0001631   0.4620326   1.4958919  )
        46           Cu  tau(  46) = (   0.2491621   0.6915513   1.4936342  )
        47           Cu  tau(  47) = (   0.5000435   0.4587221   1.4919405  )
        48           Cu  tau(  48) = (   0.7511495   0.6914999   1.4935239  )
        49           Cu  tau(  49) = (   0.0003365   0.9236151   1.4932952  )
        50           Cu  tau(  50) = (   0.2489160   1.1556012   1.4935267  )
        51           Cu  tau(  51) = (   0.5000974   0.9234663   1.4948514  )
        52           Cu  tau(  52) = (   0.7513312   1.1558625   1.4931850  )
        53           Cu  tau(  53) = (   0.0001438   1.3853774   1.4959614  )
        54           Cu  tau(  54) = (   0.2497408   1.6167214   1.4956150  )
        55           Cu  tau(  55) = (   0.5000112   1.3894005   1.4909756  )
        56           Cu  tau(  56) = (   0.7503094   1.6167660   1.4954922  )
        57           Cu  tau(  57) = (   0.0000025   1.8475597   1.4958367  )
        58           Cu  tau(  58) = (   0.2499670   2.0784972   1.4958437  )
        59           Cu  tau(  59) = (   0.4999897   1.8478222   1.4955388  )
        60           Cu  tau(  60) = (   0.7500131   2.0785290   1.4958189  )
        61           Cu  tau(  61) = (   0.0003121   0.2308669   1.7461608  )
        62           Cu  tau(  62) = (   0.2500281  -0.0000832   1.7467203  )
        63           Cu  tau(  63) = (   0.5000088   0.2297996   1.7453593  )
        64           Cu  tau(  64) = (   0.7500929   0.0000205   1.7465821  )
        65           Cu  tau(  65) = (   0.0005252   0.6916007   1.7451123  )
        66           Cu  tau(  66) = (   0.2495735   0.4597856   1.7453933  )
        67           Cu  tau(  67) = (   0.5003220   0.6786846   1.7314464  )
        68           Cu  tau(  68) = (   0.7510174   0.4593609   1.7446727  )
        69           Cu  tau(  69) = (   0.0005605   1.1557047   1.7451827  )
        70           Cu  tau(  70) = (   0.2423038   0.9236747   1.7346094  )
        71           Cu  tau(  71) = (   0.5001232   1.1715102   1.7275906  )
        72           Cu  tau(  72) = (   0.7589416   0.9240568   1.7333358  )
        73           Cu  tau(  73) = (   0.0001399   1.6168340   1.7465016  )
        74           Cu  tau(  74) = (   0.2488490   1.3883226   1.7445746  )
        75           Cu  tau(  75) = (   0.5000739   1.6174531   1.7449980  )
        76           Cu  tau(  76) = (   0.7515894   1.3883025   1.7442788  )
        77           Cu  tau(  77) = (  -0.0000125   2.0783520   1.7468270  )
        78           Cu  tau(  78) = (   0.2499549   1.8475622   1.7464809  )
        79           Cu  tau(  79) = (   0.5000485   2.0785663   1.7467463  )
        80           Cu  tau(  80) = (   0.7501115   1.8475102   1.7464516  )
        81           Cu  tau(  81) = (   0.0002198   0.0004019   1.9966382  )
        82           Cu  tau(  82) = (   0.2498654   0.2308960   1.9970135  )
        83           Cu  tau(  83) = (   0.5000657   0.0003122   1.9973106  )
        84           Cu  tau(  84) = (   0.7507748   0.2307067   1.9967456  )
        85           Cu  tau(  85) = (   0.0003223   0.4601217   1.9977287  )
        86           Cu  tau(  86) = (   0.2457456   0.6872787   1.9837117  )
        87           Cu  tau(  87) = (   0.5006861   0.4569744   1.9956970  )
        88           Cu  tau(  88) = (   0.7553846   0.6873708   1.9819014  )
        89           Cu  tau(  89) = (   0.0009766   0.9238390   1.9923215  )
        90           Cu  tau(  90) = (   0.2452366   1.1610258   1.9858910  )
        91           Cu  tau(  91) = (   0.5014464   0.9302563   1.9206516  )
        92           Cu  tau(  92) = (   0.7558369   1.1610444   1.9852249  )
        93           Cu  tau(  93) = (   0.0004430   1.3880289   1.9991494  )
        94           Cu  tau(  94) = (   0.2499118   1.6166774   1.9967353  )
        95           Cu  tau(  95) = (   0.5003031   1.3884357   1.9943628  )
        96           Cu  tau(  96) = (   0.7505030   1.6164564   1.9965870  )
        97           Cu  tau(  97) = (   0.0000108   1.8471812   1.9973412  )
        98           Cu  tau(  98) = (   0.2500568   2.0782522   1.9972415  )
        99           Cu  tau(  99) = (   0.5001683   1.8468322   1.9963187  )
       100           Cu  tau( 100) = (   0.7500757   2.0784054   1.9971680  )
       101           C   tau( 101) = (  -0.0002983   0.0975869   2.4495349  )
       102           C   tau( 102) = (  -0.0005530   0.2903798   2.4455342  )
       103           C   tau( 103) = (   0.1664723   0.0003315   2.4514293  )
       104           C   tau( 104) = (   0.1666123   0.3857763   2.4463696  )
       105           C   tau( 105) = (   0.3332248   0.0969454   2.4482147  )
       106           C   tau( 106) = (   0.3335380   0.2898646   2.4460301  )
       107           C   tau( 107) = (   0.4998981   0.0000652   2.4502376  )
       108           C   tau( 108) = (   0.4997460   0.3859453   2.4512344  )
       109           C   tau( 109) = (   0.6664625   0.0967496   2.4485764  )
       110           C   tau( 110) = (   0.6663530   0.2900589   2.4463990  )
       111           C   tau( 111) = (   0.8330063   0.0004193   2.4518231  )
       112           C   tau( 112) = (   0.8336981   0.3857581   2.4472228  )
       113           C   tau( 113) = (   0.0002381   0.6743225   2.4576875  )
       114           C   tau( 114) = (   0.0001964   0.8665979   2.4664610  )
       115           C   tau( 115) = (   0.1663766   0.5788925   2.4570635  )
       116           C   tau( 116) = (   0.1660311   0.9629139   2.4829899  )
       117           C   tau( 117) = (   0.3323442   0.6735121   2.4891888  )
       118           C   tau( 118) = (   0.3316024   0.8660341   2.5114303  )
       119           C   tau( 119) = (   0.4997362   0.5778384   2.4767058  )
       120           C   tau( 120) = (   0.5000273   0.9629140   2.5228938  )
       121           C   tau( 121) = (   0.6678514   0.6738365   2.4900882  )
       122           C   tau( 122) = (   0.6683428   0.8660382   2.5131427  )
       123           C   tau( 123) = (   0.8335052   0.5786129   2.4577085  )
       124           C   tau( 124) = (   0.8341784   0.9625333   2.4841800  )
       125           C   tau( 125) = (   0.0008262   1.2498053   2.4478130  )
       126           C   tau( 126) = (  -0.0002450   1.4419137   2.4412476  )
       127           C   tau( 127) = (   0.1660154   1.1541233   2.4646607  )
       128           C   tau( 128) = (   0.1668264   1.5385290   2.4442975  )
       129           C   tau( 129) = (   0.3335086   1.2509468   2.4698671  )
       130           C   tau( 130) = (   0.3334579   1.4426236   2.4506830  )
       131           C   tau( 131) = (   0.5001197   1.1555226   2.4947573  )
       132           C   tau( 132) = (   0.4999098   1.5395242   2.4496540  )
       133           C   tau( 133) = (   0.6668804   1.2508168   2.4704951  )
       134           C   tau( 134) = (   0.6665584   1.4425526   2.4496885  )
       135           C   tau( 135) = (   0.8337143   1.1546392   2.4659918  )
       136           C   tau( 136) = (   0.8334780   1.5389554   2.4435681  )
       137           C   tau( 137) = (  -0.0002397   1.8272389   2.4500325  )
       138           C   tau( 138) = (  -0.0000859   2.0205441   2.4529221  )
       139           C   tau( 139) = (   0.1667826   1.7311972   2.4489123  )
       140           C   tau( 140) = (   0.1664180   2.1172116   2.4529115  )
       141           C   tau( 141) = (   0.3330724   1.8277093   2.4522905  )
       142           C   tau( 142) = (   0.3329639   2.0205950   2.4527992  )
       143           C   tau( 143) = (   0.4998662   1.7319378   2.4511516  )
       144           C   tau( 144) = (   0.4998882   2.1168049   2.4528384  )
       145           C   tau( 145) = (   0.6667091   1.8278804   2.4520105  )
       146           C   tau( 146) = (   0.6666556   2.0206550   2.4529627  )
       147           C   tau( 147) = (   0.8330562   1.7311998   2.4484163  )
       148           C   tau( 148) = (   0.8330120   2.1171260   2.4531285  )
       149           H   tau( 149) = (   0.3359374   1.0299299   2.2131413  )
       150           H   tau( 150) = (   0.3369134   0.7851206   2.2008311  )
       151           C   tau( 151) = (   0.4092355   0.9099424   2.1671764  )
       152           C   tau( 152) = (   0.5986835   0.9103862   2.1657526  )
       153           H   tau( 153) = (   0.6713891   1.0305185   2.2132811  )
       154           H   tau( 154) = (   0.6720522   0.7862556   2.2004601  )

     number of k points=     6  gaussian smearing, width (Ry)=  0.1000
                       cart. coord. in units 2pi/alat
        k(    1) = (   0.0000000   0.0000000   0.0000000), wk =   0.2500000
        k(    2) = (   0.0000000  -0.2165064   0.0000000), wk =   0.2500000
        k(    3) = (   0.2500000   0.0000000   0.0000000), wk =   0.5000000
        k(    4) = (   0.2500000  -0.2165064   0.0000000), wk =   0.5000000
        k(    5) = (  -0.5000000   0.0000000   0.0000000), wk =   0.2500000
        k(    6) = (  -0.5000000  -0.2165064   0.0000000), wk =   0.2500000

     Dense  grid:  2050409 G-vectors     FFT dimensions: (  80, 192, 270)

     Largest allocated arrays     est. size (Mb)     dimensions
        Kohn-Sham Wavefunctions        54.94 Mb     (    4604,  782)
        NL pseudopotentials           130.25 Mb     (    4604, 1854)
        Each V/rho on FFT grid          1.17 Mb     (   76800)
        Each G-vector array             0.28 Mb     (   36616)
        G-vector shells                 0.14 Mb     (   17932)
     Largest temporary arrays     est. size (Mb)     dimensions
        Auxiliary wavefunctions       219.75 Mb     (    4604, 3128)
        Each subspace H/S matrix        5.96 Mb     (     625,  625)
        Each <psi_i|beta_j> matrix     22.12 Mb     (    1854,  782)
        Arrays for rho mixing           9.38 Mb     (   76800,    8)

     Initial potential from superposition of free atoms
     Check: negative starting charge=   -0.001771

     starting charge 1277.81747, renormalised to 1304.00000

     negative rho (up, down):  1.807E-03 0.000E+00
     Starting wfc are 1304 randomized atomic wfcs

     total cpu time spent up to now is      106.9 secs

     Self-consistent Calculation

     iteration #  1     ecut=    80.00 Ry     beta=0.70
     Davidson diagonalization with overlap
     c_bands:  5 eigenvalues not converged
     c_bands:  4 eigenvalues not converged
     c_bands:  2 eigenvalues not converged
     c_bands:  5 eigenvalues not converged
     c_bands:  1 eigenvalues not converged
     c_bands:  5 eigenvalues not converged
     ethr =  1.00E-04,  avg # of iterations = 40.0

     negative rho (up, down):  2.721E+01 0.000E+00

     total cpu time spent up to now is     2234.7 secs

     total energy              =   -9596.82259750 Ry
     Harris-Foulkes estimate   =  -17797.55367079 Ry
     estimated scf accuracy    <  199627.28188008 Ry

     iteration #  2     ecut=    80.00 Ry     beta=0.70
     Davidson diagonalization with overlap
     ethr =  1.00E-02,  avg # of iterations = 14.0

     negative rho (up, down):  3.224E+01 0.000E+00

     total cpu time spent up to now is     3187.2 secs

     total energy              =  -11998.37458511 Ry
     Harris-Foulkes estimate   =  -13773.38527442 Ry
     estimated scf accuracy    <   30497.40696312 Ry

     iteration #  3     ecut=    80.00 Ry     beta=0.70
     Davidson diagonalization with overlap
     ethr =  1.00E-02,  avg # of iterations = 10.5

     negative rho (up, down):  3.392E+01 0.000E+00

     total cpu time spent up to now is     3763.7 secs

     total energy              =  -12370.74559685 Ry
     Harris-Foulkes estimate   =  -13539.17303069 Ry
     estimated scf accuracy    <    7633.06486337 Ry

     iteration #  4     ecut=    80.00 Ry     beta=0.70
     Davidson diagonalization with overlap
     ethr =  1.00E-02,  avg # of iterations =  5.3

     negative rho (up, down):  2.336E+01 0.000E+00

     total cpu time spent up to now is     4235.7 secs

     total energy              =  -12867.49561960 Ry
     Harris-Foulkes estimate   =  -13131.27445379 Ry
     estimated scf accuracy    <    1036.83728559 Ry

     iteration #  5     ecut=    80.00 Ry     beta=0.70
     Davidson diagonalization with overlap
     ethr =  1.00E-02,  avg # of iterations =  3.0

     negative rho (up, down):  1.944E+01 0.000E+00

     total cpu time spent up to now is     4493.2 secs

     total energy              =  -12885.14099699 Ry
     Harris-Foulkes estimate   =  -12952.84756238 Ry
     estimated scf accuracy    <    1314.82764834 Ry

     iteration #  6     ecut=    80.00 Ry     beta=0.70
     Davidson diagonalization with overlap
     ethr =  1.00E-02,  avg # of iterations =  2.0

     negative rho (up, down):  1.215E+01 0.000E+00

     total cpu time spent up to now is     4671.1 secs

     total energy              =  -12843.07126979 Ry
     Harris-Foulkes estimate   =  -12910.14851039 Ry
     estimated scf accuracy    <     537.22857040 Ry

     iteration #  7     ecut=    80.00 Ry     beta=0.70
     Davidson diagonalization with overlap
     ethr =  1.00E-02,  avg # of iterations =  2.0

     negative rho (up, down):  8.361E+00 0.000E+00

     total cpu time spent up to now is     4855.3 secs

     total energy              =  -12821.76610899 Ry
     Harris-Foulkes estimate   =  -12859.45496525 Ry
     estimated scf accuracy    <     658.29287061 Ry

     iteration #  8     ecut=    80.00 Ry     beta=0.70
     Davidson diagonalization with overlap
     ethr =  1.00E-02,  avg # of iterations =  1.5

     negative rho (up, down):  7.339E+00 0.000E+00

     total cpu time spent up to now is     5026.2 secs

     total energy              =  -12812.29885586 Ry
     Harris-Foulkes estimate   =  -12829.06723760 Ry
     estimated scf accuracy    <     331.27846180 Ry

     iteration #  9     ecut=    80.00 Ry     beta=0.70
     Davidson diagonalization with overlap
     ethr =  1.00E-02,  avg # of iterations =  1.0

     negative rho (up, down):  4.296E+00 0.000E+00

     total cpu time spent up to now is     5191.8 secs

     total energy              =  -12787.41600673 Ry
     Harris-Foulkes estimate   =  -12818.37010973 Ry
     estimated scf accuracy    <     232.56470065 Ry

     iteration # 10     ecut=    80.00 Ry     beta=0.70
     Davidson diagonalization with overlap
     ethr =  1.00E-02,  avg # of iterations =  1.0

     negative rho (up, down):  8.486E-01 0.000E+00

     total cpu time spent up to now is     5357.8 secs

     total energy              =  -12744.27184540 Ry
     Harris-Foulkes estimate   =  -12794.38982999 Ry
     estimated scf accuracy    <     418.53867700 Ry

     iteration # 11     ecut=    80.00 Ry     beta=0.70
     Davidson diagonalization with overlap
     ethr =  1.00E-02,  avg # of iterations =  3.2

     negative rho (up, down):  5.203E-01 0.000E+00

     total cpu time spent up to now is     5551.5 secs

     total energy              =  -12743.74005048 Ry
     Harris-Foulkes estimate   =  -12760.84644734 Ry
     estimated scf accuracy    <     149.41862302 Ry

     iteration # 12     ecut=    80.00 Ry     beta=0.70
     Davidson diagonalization with overlap
     ethr =  1.00E-02,  avg # of iterations =  2.3

     negative rho (up, down):  1.319E+00 0.000E+00

     total cpu time spent up to now is     5733.5 secs

     total energy              =  -12742.47432473 Ry
     Harris-Foulkes estimate   =  -12756.32795875 Ry
     estimated scf accuracy    <      88.47041477 Ry

     iteration # 13     ecut=    80.00 Ry     beta=0.70
     Davidson diagonalization with overlap
     ethr =  6.78E-03,  avg # of iterations =  2.0

     negative rho (up, down):  3.904E+00 0.000E+00

     total cpu time spent up to now is     5912.2 secs

     total energy              =  -12736.73960471 Ry
     Harris-Foulkes estimate   =  -12746.54378256 Ry
     estimated scf accuracy    <      55.24949049 Ry

     iteration # 14     ecut=    80.00 Ry     beta=0.70
     Davidson diagonalization with overlap
     ethr =  4.24E-03,  avg # of iterations =  2.0

     negative rho (up, down):  2.090E+00 0.000E+00

     total cpu time spent up to now is     6089.9 secs

     total energy              =  -12732.50016797 Ry
     Harris-Foulkes estimate   =  -12741.60112097 Ry
     estimated scf accuracy    <      66.69255847 Ry

     iteration # 15     ecut=    80.00 Ry     beta=0.70
     Davidson diagonalization with overlap
     ethr =  4.24E-03,  avg # of iterations =  1.2

     negative rho (up, down):  4.333E+00 0.000E+00

     total cpu time spent up to now is     6257.5 secs

     total energy              =  -12733.69409824 Ry
     Harris-Foulkes estimate   =  -12738.21898006 Ry
     estimated scf accuracy    <      33.45818828 Ry

     iteration # 16     ecut=    80.00 Ry     beta=0.70
     Davidson diagonalization with overlap
     ethr =  2.57E-03,  avg # of iterations =  2.3

     negative rho (up, down):  4.666E+00 0.000E+00

     total cpu time spent up to now is     6438.1 secs

     total energy              =  -12732.33552776 Ry
     Harris-Foulkes estimate   =  -12734.37320737 Ry
     estimated scf accuracy    <      17.09092369 Ry

     iteration # 17     ecut=    80.00 Ry     beta=0.70
     Davidson diagonalization with overlap
     ethr =  1.31E-03,  avg # of iterations =  7.8

     negative rho (up, down):  3.610E+00 0.000E+00

     total cpu time spent up to now is     6689.5 secs

     total energy              =  -12731.71601257 Ry
     Harris-Foulkes estimate   =  -12732.84533312 Ry
     estimated scf accuracy    <       9.63963344 Ry

     iteration # 18     ecut=    80.00 Ry     beta=0.70
     Davidson diagonalization with overlap
     ethr =  7.39E-04,  avg # of iterations =  1.5

     negative rho (up, down):  2.091E+00 0.000E+00

     total cpu time spent up to now is     6861.8 secs

     total energy              =  -12730.18360915 Ry
     Harris-Foulkes estimate   =  -12731.92071673 Ry
     estimated scf accuracy    <       8.26157501 Ry

     iteration # 19     ecut=    80.00 Ry     beta=0.70
     Davidson diagonalization with overlap
     ethr =  6.34E-04,  avg # of iterations =  2.3

     negative rho (up, down):  1.746E+00 0.000E+00

     total cpu time spent up to now is     7043.3 secs

     total energy              =  -12730.05313871 Ry
     Harris-Foulkes estimate   =  -12730.43874695 Ry
     estimated scf accuracy    <      11.96990155 Ry

     iteration # 20     ecut=    80.00 Ry     beta=0.70
     Davidson diagonalization with overlap
     ethr =  6.34E-04,  avg # of iterations =  2.2

     negative rho (up, down):  1.437E+00 0.000E+00

     total cpu time spent up to now is     7223.6 secs

     total energy              =  -12729.35131096 Ry
     Harris-Foulkes estimate   =  -12730.12981212 Ry
     estimated scf accuracy    <       8.38964436 Ry

     iteration # 21     ecut=    80.00 Ry     beta=0.70
     Davidson diagonalization with overlap
     ethr =  6.34E-04,  avg # of iterations =  1.0

     negative rho (up, down):  1.227E-01 0.000E+00

     total cpu time spent up to now is     7390.3 secs

     total energy              =  -12727.28207157 Ry
     Harris-Foulkes estimate   =  -12729.57369905 Ry
     estimated scf accuracy    <       8.52203701 Ry

     iteration # 22     ecut=    80.00 Ry     beta=0.70
     Davidson diagonalization with overlap
     ethr =  6.34E-04,  avg # of iterations =  2.8

     negative rho (up, down):  4.131E-01 0.000E+00

     total cpu time spent up to now is     7580.1 secs

     total energy              =  -12726.59786559 Ry
     Harris-Foulkes estimate   =  -12727.49749450 Ry
     estimated scf accuracy    <       3.96839758 Ry

     iteration # 23     ecut=    80.00 Ry     beta=0.70
     Davidson diagonalization with overlap
     ethr =  3.04E-04,  avg # of iterations =  7.7

     negative rho (up, down):  8.819E-01 0.000E+00

     total cpu time spent up to now is     7833.8 secs

     total energy              =  -12726.31572427 Ry
     Harris-Foulkes estimate   =  -12726.78048448 Ry
     estimated scf accuracy    <       2.14351359 Ry

     iteration # 24     ecut=    80.00 Ry     beta=0.70
     Davidson diagonalization with overlap
     ethr =  1.64E-04,  avg # of iterations =  8.2

     negative rho (up, down):  8.766E-01 0.000E+00

     total cpu time spent up to now is     8103.4 secs

     total energy              =  -12726.21685420 Ry
     Harris-Foulkes estimate   =  -12726.40803390 Ry
     estimated scf accuracy    <       1.12055059 Ry

     iteration # 25     ecut=    80.00 Ry     beta=0.70
     Davidson diagonalization with overlap
     ethr =  8.59E-05,  avg # of iterations =  8.0

     negative rho (up, down):  7.519E-01 0.000E+00

     total cpu time spent up to now is     8370.5 secs

     total energy              =  -12726.18118855 Ry
     Harris-Foulkes estimate   =  -12726.28609125 Ry
     estimated scf accuracy    <       0.38728341 Ry

     iteration # 26     ecut=    80.00 Ry     beta=0.70
     Davidson diagonalization with overlap
     ethr =  2.97E-05,  avg # of iterations =  7.2

     negative rho (up, down):  4.568E-01 0.000E+00

     total cpu time spent up to now is     8632.6 secs

     total energy              =  -12726.16584116 Ry
     Harris-Foulkes estimate   =  -12726.21665680 Ry
     estimated scf accuracy    <       0.18424776 Ry

     iteration # 27     ecut=    80.00 Ry     beta=0.70
     Davidson diagonalization with overlap
     ethr =  1.41E-05,  avg # of iterations =  7.3

     negative rho (up, down):  2.055E-01 0.000E+00

     total cpu time spent up to now is     8886.5 secs

     total energy              =  -12726.16612480 Ry
     Harris-Foulkes estimate   =  -12726.18382312 Ry
     estimated scf accuracy    <       0.07260880 Ry

     iteration # 28     ecut=    80.00 Ry     beta=0.70
     Davidson diagonalization with overlap
     ethr =  5.57E-06,  avg # of iterations = 10.0

     negative rho (up, down):  1.941E-01 0.000E+00

     total cpu time spent up to now is     9262.7 secs

     total energy              =  -12726.17126077 Ry
     Harris-Foulkes estimate   =  -12726.17316480 Ry
     estimated scf accuracy    <       0.03640634 Ry

     iteration # 29     ecut=    80.00 Ry     beta=0.70
     Davidson diagonalization with overlap
     ethr =  2.79E-06,  avg # of iterations =  8.3

     negative rho (up, down):  5.795E-02 0.000E+00

     total cpu time spent up to now is     9547.0 secs

     total energy              =  -12726.17019884 Ry
     Harris-Foulkes estimate   =  -12726.17434609 Ry
     estimated scf accuracy    <       0.00869389 Ry

     iteration # 30     ecut=    80.00 Ry     beta=0.70
     Davidson diagonalization with overlap
     c_bands:  1 eigenvalues not converged
     ethr =  6.67E-07,  avg # of iterations = 15.0

     negative rho (up, down):  2.979E-02 0.000E+00

     total cpu time spent up to now is     9923.5 secs

     total energy              =  -12726.17066159 Ry
     Harris-Foulkes estimate   =  -12726.17119335 Ry
     estimated scf accuracy    <       0.00295924 Ry

     iteration # 31     ecut=    80.00 Ry     beta=0.70
     Davidson diagonalization with overlap
     c_bands:  1 eigenvalues not converged
     ethr =  2.27E-07,  avg # of iterations = 15.2

     negative rho (up, down):  2.444E-02 0.000E+00

     total cpu time spent up to now is    10289.5 secs

     total energy              =  -12726.17072667 Ry
     Harris-Foulkes estimate   =  -12726.17082599 Ry
     estimated scf accuracy    <       0.00054557 Ry

     iteration # 32     ecut=    80.00 Ry     beta=0.70
     Davidson diagonalization with overlap
     c_bands:  2 eigenvalues not converged
     ethr =  4.18E-08,  avg # of iterations =  8.7

     negative rho (up, down):  7.870E-03 0.000E+00

     total cpu time spent up to now is    10551.4 secs

     total energy              =  -12726.17043969 Ry
     Harris-Foulkes estimate   =  -12726.17076918 Ry
     estimated scf accuracy    <       0.00015383 Ry

     iteration # 33     ecut=    80.00 Ry     beta=0.70
     Davidson diagonalization with overlap
     ethr =  1.18E-08,  avg # of iterations = 13.3

     negative rho (up, down):  3.434E-03 0.000E+00

     total cpu time spent up to now is    10904.2 secs

     total energy              =  -12726.17037963 Ry
     Harris-Foulkes estimate   =  -12726.17045723 Ry
     estimated scf accuracy    <       0.00008471 Ry

     iteration # 34     ecut=    80.00 Ry     beta=0.70
     Davidson diagonalization with overlap
     ethr =  6.50E-09,  avg # of iterations =  7.7

     negative rho (up, down):  1.974E-03 0.000E+00

     total cpu time spent up to now is    11165.6 secs

     total energy              =  -12726.17037016 Ry
     Harris-Foulkes estimate   =  -12726.17038630 Ry
     estimated scf accuracy    <       0.00002256 Ry

     iteration # 35     ecut=    80.00 Ry     beta=0.70
     Davidson diagonalization with overlap
     ethr =  1.73E-09,  avg # of iterations =  4.7

     negative rho (up, down):  1.762E-03 0.000E+00

     total cpu time spent up to now is    11386.4 secs

     total energy              =  -12726.17037099 Ry
     Harris-Foulkes estimate   =  -12726.17037205 Ry
     estimated scf accuracy    <       0.00000952 Ry

     iteration # 36     ecut=    80.00 Ry     beta=0.70
     Davidson diagonalization with overlap
     ethr =  7.30E-10,  avg # of iterations =  2.0

     negative rho (up, down):  1.605E-03 0.000E+00

     total cpu time spent up to now is    11570.4 secs

     total energy              =  -12726.17037240 Ry
     Harris-Foulkes estimate   =  -12726.17037174 Ry
     estimated scf accuracy    <       0.00000519 Ry

     iteration # 37     ecut=    80.00 Ry     beta=0.70
     Davidson diagonalization with overlap
     ethr =  3.98E-10,  avg # of iterations =  2.0

     negative rho (up, down):  1.812E-03 0.000E+00

     total cpu time spent up to now is    11759.6 secs

     total energy              =  -12726.17037254 Ry
     Harris-Foulkes estimate   =  -12726.17037282 Ry
     estimated scf accuracy    <       0.00000268 Ry

     iteration # 38     ecut=    80.00 Ry     beta=0.70
     Davidson diagonalization with overlap
     ethr =  2.05E-10,  avg # of iterations =  2.3

     negative rho (up, down):  1.861E-03 0.000E+00

     total cpu time spent up to now is    11953.7 secs

     total energy              =  -12726.17037268 Ry
     Harris-Foulkes estimate   =  -12726.17037279 Ry
     estimated scf accuracy    <       0.00000130 Ry

     iteration # 39     ecut=    80.00 Ry     beta=0.70
     Davidson diagonalization with overlap
     ethr =  9.94E-11,  avg # of iterations =  2.0

     negative rho (up, down):  1.886E-03 0.000E+00

     total cpu time spent up to now is    12140.3 secs

     total energy              =  -12726.17037290 Ry
     Harris-Foulkes estimate   =  -12726.17037280 Ry
     estimated scf accuracy    <       0.00000052 Ry

     iteration # 40     ecut=    80.00 Ry     beta=0.70
     Davidson diagonalization with overlap
     ethr =  4.00E-11,  avg # of iterations =  2.0

     negative rho (up, down):  1.911E-03 0.000E+00

     total cpu time spent up to now is    12324.1 secs

     total energy              =  -12726.17037302 Ry
     Harris-Foulkes estimate   =  -12726.17037294 Ry
     estimated scf accuracy    <       0.00000015 Ry

     iteration # 41     ecut=    80.00 Ry     beta=0.70
     Davidson diagonalization with overlap
     ethr =  1.14E-11,  avg # of iterations =  3.0

     negative rho (up, down):  1.869E-03 0.000E+00

     total cpu time spent up to now is    12531.5 secs

     total energy              =  -12726.17037305 Ry
     Harris-Foulkes estimate   =  -12726.17037304 Ry
     estimated scf accuracy    <       0.00000007 Ry

     iteration # 42     ecut=    80.00 Ry     beta=0.70
     Davidson diagonalization with overlap
     ethr =  5.53E-12,  avg # of iterations =  2.8

     negative rho (up, down):  1.867E-03 0.000E+00

     total cpu time spent up to now is    12740.6 secs

     total energy              =  -12726.17037306 Ry
     Harris-Foulkes estimate   =  -12726.17037306 Ry
     estimated scf accuracy    <       0.00000003 Ry

     iteration # 43     ecut=    80.00 Ry     beta=0.70
     Davidson diagonalization with overlap
     ethr =  1.98E-12,  avg # of iterations =  2.0

     negative rho (up, down):  1.830E-03 0.000E+00

     total cpu time spent up to now is    12916.4 secs

     End of self-consistent calculation

          k = 0.0000 0.0000 0.0000 (256287 PWs)   bands (ev):

   -15.8460 -15.4774 -15.4632 -14.3793 -14.3564 -13.8878 -13.8798 -13.5315
   -13.5240 -13.5152 -13.5027 -12.6779 -12.5720 -12.5272 -12.4556 -12.4410
   -12.4381 -12.3480 -10.7694 -10.7647 -10.7523 -10.7474 -10.5656  -9.5430
    -8.8984  -8.8903  -8.8745  -8.8655  -8.2518  -8.0022  -7.9907  -7.9867
    -7.9650  -7.0195  -7.0152  -6.9450  -6.9353  -6.9245  -6.9215  -6.8951
    -6.8860  -5.6721  -5.5124  -5.3956  -5.3847  -5.3731  -5.3674  -5.2243
    -5.2172  -5.2108  -5.1970  -5.1374  -5.1035  -4.9238  -4.5574  -4.1115
    -4.0897  -4.0831  -4.0180  -3.8876  -3.7641  -3.7500  -3.6495  -3.6371
    -3.5564  -3.3257  -3.0696  -3.0521  -3.0151  -2.9814  -2.9522  -2.9397
    -2.9340  -2.9286  -2.7765  -2.7648  -2.7625  -2.7148  -2.6683  -2.6517
    -2.6492  -2.6324  -2.6213  -2.5866  -2.4409  -2.4186  -2.4069  -2.2671
    -2.2239  -2.1654  -2.1422  -2.1344  -2.1165  -2.1091  -2.0887  -2.0184
    -1.9461  -1.9411  -1.9121  -1.9056  -1.8449  -1.8375  -1.8367  -1.8196
    -1.8148  -1.8091  -1.7868  -1.6910  -1.6869  -1.6518  -1.6384  -1.6293
    -1.5610  -1.4903  -1.4858  -1.4367  -1.4263  -1.4158  -1.3936  -1.3905
    -1.3859  -1.3735  -1.3725  -1.3714  -1.3531  -1.3475  -1.3012  -1.2912
    -1.2889  -1.2754  -1.2684  -1.2212  -1.2154  -1.2129  -1.2057  -1.2020
    -1.1875  -1.1734  -1.1688  -1.1648  -1.1588  -1.0978  -1.0925  -1.0642
    -1.0406  -1.0154  -1.0099  -0.9452  -0.9343  -0.9268  -0.9209  -0.9153
    -0.8907  -0.8888  -0.8816  -0.8642  -0.8426  -0.8407  -0.8112  -0.8099
    -0.8084  -0.7916  -0.7802  -0.7601  -0.7515  -0.7423  -0.7063  -0.7021
    -0.6974  -0.6747  -0.6731  -0.6717  -0.6633  -0.6609  -0.6535  -0.6506
    -0.6491  -0.6349  -0.6276  -0.6233  -0.6217  -0.5911  -0.5853  -0.5734
    -0.5689  -0.5654  -0.5546  -0.5488  -0.5279  -0.5236  -0.5178  -0.5117
    -0.5013  -0.5009  -0.4975  -0.4913  -0.4902  -0.4867  -0.4833  -0.4790
    -0.4750  -0.4747  -0.4738  -0.4640  -0.4544  -0.4212  -0.3818  -0.3753
    -0.3410  -0.3381  -0.3342  -0.3286  -0.3073  -0.3031  -0.3004  -0.2838
    -0.2833  -0.2734  -0.2633  -0.2531  -0.2421  -0.2417  -0.2284  -0.2212
    -0.2118  -0.2079  -0.2051  -0.2024  -0.1994  -0.1885  -0.1814  -0.1776
    -0.1655  -0.1520  -0.1286  -0.1284  -0.1159  -0.1130  -0.0949  -0.0839
    -0.0786  -0.0754  -0.0687  -0.0589  -0.0587  -0.0520  -0.0486  -0.0448
    -0.0444  -0.0429  -0.0376  -0.0372  -0.0308  -0.0303  -0.0258  -0.0192
    -0.0128  -0.0046   0.0096   0.0144   0.0238   0.0319   0.0492   0.0590
     0.0771   0.0785   0.0872   0.0914   0.0941   0.0954   0.1008   0.1014
     0.1091   0.1208   0.1217   0.1258   0.1364   0.1379   0.1397   0.1442
     0.1498   0.1553   0.1563   0.1587   0.1627   0.1691   0.1705   0.1747
     0.1799   0.1845   0.1903   0.2198   0.2322   0.2497   0.2517   0.2563
     0.2588   0.2668   0.2681   0.2943   0.3002   0.3022   0.3048   0.3053
     0.3077   0.3102   0.3180   0.3374   0.3385   0.3527   0.3664   0.3716
     0.3743   0.3858   0.3872   0.3879   0.3941   0.3958   0.3995   0.4022
     0.4076   0.4086   0.4184   0.4221   0.4256   0.4258   0.4265   0.4366
     0.4431   0.4444   0.4537   0.4662   0.4721   0.4767   0.4949   0.5102
     0.5201   0.5296   0.5335   0.5349   0.5353   0.5624   0.5763   0.5784
     0.5812   0.5869   0.5925   0.6171   0.6187   0.6208   0.6209   0.6280
     0.6305   0.6380   0.6420   0.6458   0.6646   0.6675   0.6777   0.6992
     0.7045   0.7100   0.7143   0.7158   0.7260   0.7304   0.7376   0.7540
     0.7583   0.7646   0.7708   0.7712   0.7783   0.7804   0.7915   0.8049
     0.8058   0.8151   0.8201   0.8253   0.8309   0.8424   0.8439   0.8504
     0.8650   0.8679   0.8748   0.8768   0.8817   0.8845   0.8946   0.8968
     0.9037   0.9039   0.9139   0.9143   0.9153   0.9173   0.9223   0.9252
     0.9273   0.9298   0.9312   0.9472   0.9546   0.9556   0.9691   0.9702
     0.9748   0.9764   1.0005   1.0032   1.0061   1.0078   1.0087   1.0101
     1.0161   1.0220   1.0261   1.0300   1.0326   1.0335   1.0405   1.0485
     1.0533   1.0551   1.0577   1.0581   1.0631   1.0692   1.0789   1.0862
     1.0872   1.0884   1.1034   1.1092   1.1104   1.1116   1.1118   1.1148
     1.1191   1.1224   1.1318   1.1459   1.1514   1.1608   1.1613   1.1698
     1.1856   1.1867   1.1919   1.2032   1.2072   1.2103   1.2136   1.2138
     1.2292   1.2390   1.2398   1.2459   1.2534   1.2549   1.2590   1.2625
     1.2680   1.2759   1.2777   1.2857   1.2881   1.2964   1.2991   1.3024
     1.3081   1.3122   1.3137   1.3151   1.3243   1.3411   1.3459   1.3491
     1.3541   1.3555   1.3559   1.3632   1.3675   1.3725   1.3736   1.3749
     1.3771   1.3809   1.3897   1.3942   1.4006   1.4027   1.4051   1.4116
     1.4167   1.4179   1.4276   1.4283   1.4375   1.4419   1.4431   1.4523
     1.4544   1.4548   1.4636   1.4673   1.4715   1.4749   1.4813   1.4831
     1.4853   1.4867   1.4900   1.4920   1.4965   1.4990   1.5010   1.5070
     1.5083   1.5149   1.5289   1.5341   1.5346   1.5513   1.5559   1.5612
     1.5684   1.5710   1.5735   1.5786   1.5810   1.5882   1.5915   1.5980
     1.5995   1.6044   1.6097   1.6104   1.6139   1.6176   1.6227   1.6267
     1.6289   1.6312   1.6398   1.6414   1.6431   1.6450   1.6544   1.6584
     1.6600   1.6645   1.6702   1.6726   1.6733   1.6745   1.6755   1.6764
     1.6837   1.6902   1.6912   1.6986   1.7004   1.7023   1.7084   1.7109
     1.7147   1.7223   1.7247   1.7292   1.7355   1.7413   1.7502   1.7521
     1.7612   1.7644   1.7672   1.7704   1.7739   1.7747   1.7811   1.7834
     1.7884   1.7910   1.7938   1.7950   1.7966   1.7995   1.8017   1.8049
     1.8105   1.8110   1.8179   1.8201   1.8232   1.8248   1.8280   1.8312
     1.8419   1.8447   1.8586   1.8605   1.8688   1.8702   1.8775   1.8859
     1.9020   1.9076   1.9210   1.9255   1.9278   1.9343   1.9440   1.9691
     1.9724   1.9797   1.9881   1.9905   1.9982   2.0030   2.0073   2.0084
     2.0179   2.1771   2.2661   2.3208   2.4368   2.4383   2.4538   2.5224
     2.5342   2.5455   2.5630   2.5674   2.5715   2.5800   2.5853   2.6071
     2.7376   2.7510   2.7821   2.7972   2.8008   2.8159   2.8489   2.9684
     3.0165   3.0476   3.0752   3.2058   3.4724   3.5695   3.6046   3.6147
     3.6355   3.8146   3.9096   4.0558   4.1031   4.1213   4.1365   4.1819
     4.1863   4.2501   4.2620   4.3137   4.3219   4.3313   4.3398   4.3515
     4.3609   4.3774   4.4208   4.5271   4.5299   4.5590   4.5601   5.0314
     5.1150   5.2157   5.4529   5.4817   5.5059   5.5071   5.5406   5.6216
     5.6646   5.7166   5.9225   5.9412   5.9543   6.1518   6.2620   6.2635
     6.4412   6.5624   6.5636   6.7165   6.7209   6.7368   6.7472   6.8135
     6.9696   6.9829   7.0606   7.0727   7.1183   7.1960   7.2320   7.2372
     7.2823   7.2879   7.3123   7.3440   7.3622   7.3976   7.4420   7.4481
     7.5670   7.6801   7.6959   7.7137   7.9276   7.9285   7.9336   7.9618
     7.9883   8.0159   8.0459   8.0698   8.1975   8.3291   8.4067   8.4408
     8.4791   8.5631   8.5653   8.5851   8.6072   8.6428   8.6615   8.6893
     8.7454   8.8459   8.8570   8.9153   8.9257   8.9555   8.9735   8.9797
     9.0169   9.0284   9.0588   9.0665   9.1821   9.2132   9.2393   9.3002
     9.3088   9.3465   9.3706   9.4061   9.4111   9.4181   9.4235   9.5307
     9.5428   9.6848   9.8043   9.9040   9.9266   9.9318   9.9984  10.0361
    10.0856  10.1200  10.1291  10.1595  10.1688  10.1868

          k = 0.0000-0.2165 0.0000 (256176 PWs)   bands (ev):

   -15.7750 -15.7262 -15.0197 -14.9984 -13.8253 -13.8075 -13.7692 -13.7627
   -13.5635 -13.5424 -13.1001 -13.0755 -13.0613 -13.0570 -12.5209 -11.6834
   -11.6752 -11.6588 -11.6567 -11.4554 -11.4458  -9.7861  -9.7760  -9.7621
    -9.7559  -8.5296  -8.5144  -8.4193  -8.3785  -8.3504  -8.3415  -8.1965
    -7.5445  -7.5277  -7.5237  -7.5176  -6.3549  -6.3527  -6.3437  -6.3365
    -6.2159  -6.2117  -6.1935  -6.1844  -5.5704  -5.5466  -5.4486  -5.4106
    -5.3855  -4.9320  -4.5749  -4.5630  -4.5446  -4.5371  -4.5146  -4.4706
    -4.4347  -4.3989  -4.0080  -3.9943  -3.9932  -3.9832  -3.9136  -3.6837
    -3.4177  -3.4018  -3.1251  -3.0314  -3.0195  -2.9895  -2.9695  -2.9263
    -2.8833  -2.7473  -2.7137  -2.7059  -2.6932  -2.6680  -2.6604  -2.4577
    -2.4476  -2.4303  -2.4156  -2.3046  -2.2799  -2.2672  -2.2515  -2.2496
    -2.2434  -2.2372  -2.2132  -2.2056  -2.1813  -2.1575  -2.0955  -2.0884
    -2.0773  -2.0596  -1.9920  -1.9754  -1.9280  -1.8769  -1.8236  -1.8067
    -1.7898  -1.7856  -1.7584  -1.7514  -1.7491  -1.6478  -1.6386  -1.6293
    -1.6263  -1.6227  -1.6088  -1.5688  -1.5205  -1.4693  -1.4487  -1.4130
    -1.4005  -1.3964  -1.3935  -1.3898  -1.3499  -1.3443  -1.3408  -1.3233
    -1.3116  -1.3094  -1.3043  -1.2889  -1.2726  -1.2263  -1.1895  -1.1304
    -1.1116  -1.1109  -1.0880  -1.0474  -1.0240  -0.9982  -0.9840  -0.9640
    -0.9536  -0.9525  -0.9502  -0.9436  -0.9398  -0.9331  -0.9281  -0.9169
    -0.9041  -0.9004  -0.8994  -0.8882  -0.8695  -0.8658  -0.8631  -0.8514
    -0.8346  -0.8336  -0.8321  -0.8242  -0.7757  -0.7702  -0.7551  -0.7446
    -0.7384  -0.7287  -0.7165  -0.7142  -0.7103  -0.7072  -0.7003  -0.6962
    -0.6663  -0.6476  -0.6403  -0.6383  -0.6345  -0.6071  -0.6034  -0.5968
    -0.5946  -0.5900  -0.5640  -0.5602  -0.5576  -0.5509  -0.5452  -0.5440
    -0.5406  -0.5307  -0.5195  -0.5043  -0.4940  -0.4883  -0.4672  -0.4641
    -0.4538  -0.4371  -0.4285  -0.4212  -0.4168  -0.4077  -0.4031  -0.4012
    -0.3995  -0.3595  -0.3515  -0.3482  -0.3373  -0.2930  -0.2913  -0.2834
    -0.2802  -0.2796  -0.2738  -0.2558  -0.2545  -0.2487  -0.2481  -0.2434
    -0.2284  -0.2103  -0.2064  -0.1957  -0.1924  -0.1702  -0.1603  -0.1599
    -0.1531  -0.1491  -0.1455  -0.1236  -0.1235  -0.1209  -0.1149  -0.1028
    -0.0907  -0.0889  -0.0850  -0.0836  -0.0759  -0.0536  -0.0416  -0.0322
    -0.0278  -0.0033   0.0008   0.0110   0.0157   0.0274   0.0291   0.0373
     0.0531   0.0541   0.0620   0.0645   0.0661   0.0733   0.0780   0.0980
     0.0993   0.1066   0.1113   0.1127   0.1212   0.1257   0.1266   0.1322
     0.1338   0.1354   0.1413   0.1418   0.1477   0.1505   0.1526   0.1543
     0.1622   0.1890   0.2071   0.2096   0.2135   0.2202   0.2207   0.2267
     0.2334   0.2340   0.2472   0.2562   0.2657   0.2708   0.2713   0.2742
     0.2787   0.2824   0.2908   0.2938   0.2973   0.2980   0.3049   0.3071
     0.3186   0.3278   0.3342   0.3455   0.3508   0.3627   0.3656   0.3691
     0.3720   0.3771   0.3805   0.3875   0.3899   0.3903   0.4076   0.4107
     0.4161   0.4214   0.4246   0.4368   0.4426   0.4440   0.4506   0.4518
     0.4577   0.4649   0.4747   0.4793   0.4967   0.4972   0.5007   0.5014
     0.5026   0.5072   0.5126   0.5149   0.5257   0.5472   0.5572   0.5590
     0.5607   0.5642   0.5729   0.5858   0.5919   0.5956   0.6087   0.6092
     0.6202   0.6264   0.6371   0.6412   0.6461   0.6559   0.6704   0.6814
     0.6880   0.6914   0.7229   0.7484   0.7552   0.7610   0.7677   0.7715
     0.7809   0.7842   0.7918   0.7945   0.7951   0.7974   0.8066   0.8125
     0.8130   0.8230   0.8315   0.8336   0.8382   0.8386   0.8494   0.8530
     0.8543   0.8613   0.8671   0.8749   0.8760   0.8823   0.8838   0.8855
     0.8926   0.8949   0.8996   0.8999   0.9065   0.9083   0.9094   0.9214
     0.9246   0.9268   0.9307   0.9335   0.9353   0.9383   0.9474   0.9508
     0.9513   0.9541   0.9602   0.9695   0.9726   0.9759   0.9785   0.9853
     0.9868   0.9946   0.9960   1.0070   1.0205   1.0210   1.0244   1.0271
     1.0331   1.0355   1.0359   1.0386   1.0412   1.0485   1.0513   1.0539
     1.0657   1.0740   1.0794   1.0834   1.0848   1.0887   1.0949   1.0997
     1.1100   1.1132   1.1146   1.1228   1.1287   1.1410   1.1423   1.1511
     1.1559   1.1564   1.1840   1.1911   1.2032   1.2179   1.2250   1.2323
     1.2342   1.2484   1.2491   1.2584   1.2591   1.2623   1.2682   1.2685
     1.2784   1.2837   1.2867   1.2906   1.2919   1.2941   1.2987   1.2994
     1.3022   1.3140   1.3161   1.3215   1.3285   1.3296   1.3302   1.3321
     1.3335   1.3410   1.3420   1.3422   1.3486   1.3523   1.3526   1.3532
     1.3542   1.3545   1.3555   1.3672   1.3689   1.3775   1.3793   1.3820
     1.3873   1.3957   1.3981   1.3989   1.4020   1.4048   1.4092   1.4142
     1.4172   1.4229   1.4449   1.4452   1.4535   1.4587   1.4737   1.4827
     1.4935   1.4945   1.5003   1.5010   1.5060   1.5324   1.5341   1.5365
     1.5402   1.5471   1.5499   1.5515   1.5554   1.5562   1.5566   1.5577
     1.5626   1.5669   1.5677   1.5681   1.5772   1.5787   1.5818   1.5864
     1.5870   1.5889   1.5913   1.5920   1.5947   1.6087   1.6146   1.6166
     1.6217   1.6251   1.6280   1.6370   1.6391   1.6403   1.6451   1.6461
     1.6490   1.6504   1.6542   1.6659   1.6718   1.6722   1.6743   1.6771
     1.6843   1.6963   1.6965   1.6984   1.7062   1.7132   1.7162   1.7193
     1.7201   1.7305   1.7366   1.7410   1.7431   1.7466   1.7546   1.7562
     1.7621   1.7642   1.7648   1.7672   1.7713   1.7802   1.7872   1.7903
     1.8003   1.8041   1.8056   1.8095   1.8112   1.8127   1.8152   1.8190
     1.8197   1.8198   1.8333   1.8470   1.8482   1.8513   1.8583   1.8588
     1.8618   1.8715   1.8747   1.8764   1.8794   1.8829   1.8934   1.8974
     1.8986   1.9204   1.9312   1.9378   1.9499   1.9586   2.0277   2.0278
     2.0335   2.0860   2.0973   2.1021   2.1102   2.1119   2.1359   2.1521
     2.1679   2.1719   2.1780   2.2012   2.2024   2.2171   2.2241   2.4055
     2.5475   2.6052   2.6293   2.6442   2.7425   2.7499   2.7750   2.7988
     2.8368   2.8592   2.8727   2.8765   2.9283   2.9295   2.9397   2.9411
     3.0500   3.0564   3.0619   3.0712   3.1462   3.2715   3.2792   3.3693
     3.4127   3.4999   3.5234   3.5236   3.6067   3.8445   4.0388   4.0932
     4.3150   4.3545   4.3719   4.4521   4.5238   4.5477   4.5872   4.5985
     4.6037   4.6378   4.6724   4.6744   4.7841   4.8344   4.8650   4.8990
     4.9805   5.2554   5.3672   5.4600   5.6333   5.6353   5.6748   5.7022
     5.7053   5.7914   5.8789   5.9368   5.9665   6.0555   6.2616   6.3306
     6.3446   6.3681   6.4093   6.5354   6.5872   6.6327   6.6413   6.6829
     6.7072   6.8968   6.9141   7.0322   7.0345   7.0928   7.2566   7.3068
     7.3387   7.3679   7.3814   7.4137   7.4235   7.4438   7.5284   7.5326
     7.5679   7.5739   7.6001   7.6186   7.6397   7.6709   7.6812   7.8576
     8.1339   8.1738   8.1772   8.1811   8.2064   8.3101   8.4770   8.4940
     8.4978   8.5518   8.5685   8.5811   8.5952   8.6073   8.7102   8.7587
     8.7817   8.8629   8.9742   9.0028   9.0061   9.0425   9.0588   9.0710
     9.1039   9.1357   9.1426   9.2183   9.2197   9.2258   9.3577   9.3758
     9.4353   9.4492   9.5285   9.5609   9.5841   9.6230   9.6709   9.6721
     9.7061   9.7094   9.7247   9.7372   9.7492   9.7701   9.8335   9.8566
    10.0120  10.0574  10.1185  10.2546  10.2586  10.2662

          k = 0.2500 0.0000 0.0000 (256240 PWs)   bands (ev):

   -15.7218 -15.3537 -15.3397 -14.7349 -14.3719 -14.3591 -14.2576 -14.2333
   -13.2987 -13.2698 -12.8176 -12.6101 -12.4550 -12.4436 -12.4422 -12.3697
   -11.5340 -11.5205 -11.4254 -11.4135 -10.4607 -10.1610 -10.1261 -10.0976
    -9.6189  -9.4389  -9.1578  -9.1377  -8.7445  -8.5165  -8.4845  -8.2125
    -7.9514  -6.9542  -6.9444  -6.9319  -6.9202  -6.8300  -6.8131  -6.3350
    -6.0688  -5.5311  -5.4976  -5.4775  -5.3346  -5.3103  -5.2983  -5.2800
    -4.9672  -4.9415  -4.8542  -4.5798  -4.5698  -4.3887  -4.1135  -4.0673
    -3.9571  -3.8757  -3.8131  -3.7859  -3.7607  -3.7396  -3.7000  -3.6577
    -3.6441  -3.5043  -3.4928  -3.4470  -3.2949  -3.2518  -3.0952  -3.0688
    -3.0363  -3.0202  -2.9468  -2.9372  -2.9309  -2.9169  -2.9116  -2.8324
    -2.8228  -2.7338  -2.6647  -2.6494  -2.5854  -2.5562  -2.5148  -2.4829
    -2.4451  -2.4433  -2.3165  -2.3032  -2.2632  -2.1049  -2.0850  -2.0574
    -1.9636  -1.9331  -1.8878  -1.8674  -1.7940  -1.7482  -1.7455  -1.7366
    -1.7162  -1.6270  -1.5679  -1.5418  -1.5113  -1.4802  -1.4717  -1.4636
    -1.4588  -1.4518  -1.4294  -1.4281  -1.4230  -1.4158  -1.4053  -1.3996
    -1.3773  -1.3462  -1.3411  -1.2864  -1.2815  -1.2534  -1.2464  -1.2336
    -1.2265  -1.2173  -1.2159  -1.2108  -1.1856  -1.1698  -1.1545  -1.1536
    -1.1393  -1.1390  -1.1010  -1.0927  -1.0820  -1.0734  -1.0175  -1.0046
    -0.9951  -0.9649  -0.9625  -0.9425  -0.9039  -0.8859  -0.8769  -0.8716
    -0.8706  -0.8619  -0.8542  -0.8479  -0.8392  -0.8351  -0.8224  -0.8137
    -0.8073  -0.8041  -0.7852  -0.7822  -0.7710  -0.7550  -0.7519  -0.7472
    -0.7353  -0.7176  -0.7148  -0.7096  -0.6878  -0.6800  -0.6780  -0.6715
    -0.6655  -0.6630  -0.6567  -0.6501  -0.6412  -0.6360  -0.6350  -0.6302
    -0.6184  -0.6156  -0.6150  -0.6055  -0.6028  -0.6018  -0.5831  -0.5822
    -0.5577  -0.5474  -0.5351  -0.5322  -0.5024  -0.4953  -0.4876  -0.4714
    -0.4598  -0.4557  -0.4546  -0.4379  -0.4300  -0.4185  -0.4138  -0.4064
    -0.3984  -0.3906  -0.3896  -0.3806  -0.3693  -0.3589  -0.3489  -0.3100
    -0.2888  -0.2696  -0.2631  -0.2618  -0.2352  -0.2244  -0.2197  -0.2067
    -0.2043  -0.2008  -0.1942  -0.1928  -0.1894  -0.1701  -0.1661  -0.1590
    -0.1570  -0.1474  -0.1374  -0.1261  -0.1230  -0.1184  -0.1140  -0.1117
    -0.1086  -0.1058  -0.1018  -0.0982  -0.0950  -0.0647  -0.0538  -0.0462
    -0.0428  -0.0387  -0.0275  -0.0139  -0.0115  -0.0076   0.0118   0.0151
     0.0230   0.0260   0.0380   0.0448   0.0515   0.0528   0.0614   0.0680
     0.0695   0.0733   0.0833   0.0863   0.0963   0.1090   0.1127   0.1147
     0.1171   0.1212   0.1296   0.1469   0.1568   0.1599   0.1636   0.1700
     0.1752   0.1804   0.1855   0.1916   0.1979   0.2093   0.2132   0.2249
     0.2355   0.2426   0.2466   0.2523   0.2615   0.2660   0.2858   0.2887
     0.2949   0.3096   0.3127   0.3154   0.3251   0.3414   0.3426   0.3475
     0.3493   0.3508   0.3526   0.3573   0.3590   0.3680   0.3711   0.3750
     0.3777   0.3818   0.3842   0.3912   0.3975   0.4039   0.4072   0.4147
     0.4178   0.4224   0.4261   0.4271   0.4310   0.4449   0.4511   0.4568
     0.4670   0.4703   0.4788   0.4796   0.4876   0.5026   0.5081   0.5140
     0.5184   0.5224   0.5250   0.5392   0.5472   0.5687   0.5951   0.6065
     0.6084   0.6160   0.6283   0.6346   0.6381   0.6417   0.6442   0.6543
     0.6567   0.6570   0.6590   0.6629   0.6635   0.6674   0.6685   0.6728
     0.6821   0.6853   0.6926   0.6973   0.6985   0.7012   0.7054   0.7126
     0.7150   0.7294   0.7447   0.7460   0.7624   0.7642   0.7723   0.7818
     0.7854   0.7920   0.7946   0.8030   0.8069   0.8083   0.8218   0.8289
     0.8326   0.8388   0.8472   0.8500   0.8545   0.8566   0.8598   0.8622
     0.8645   0.8731   0.8742   0.8802   0.8840   0.8860   0.8933   0.8985
     0.9104   0.9156   0.9216   0.9253   0.9297   0.9330   0.9385   0.9427
     0.9478   0.9578   0.9585   0.9613   0.9665   0.9680   0.9816   0.9853
     0.9900   0.9925   0.9957   1.0061   1.0070   1.0123   1.0170   1.0193
     1.0231   1.0266   1.0329   1.0378   1.0503   1.0603   1.0662   1.0761
     1.0893   1.0918   1.0946   1.1033   1.1076   1.1107   1.1194   1.1258
     1.1305   1.1327   1.1380   1.1412   1.1439   1.1458   1.1513   1.1660
     1.1767   1.1812   1.1867   1.1952   1.2013   1.2024   1.2090   1.2191
     1.2194   1.2227   1.2354   1.2376   1.2433   1.2461   1.2512   1.2575
     1.2654   1.2677   1.2689   1.2748   1.2791   1.2800   1.2828   1.2937
     1.2990   1.3025   1.3096   1.3170   1.3244   1.3346   1.3372   1.3401
     1.3474   1.3500   1.3568   1.3601   1.3621   1.3641   1.3727   1.3755
     1.3795   1.3811   1.3851   1.3865   1.3923   1.3941   1.3969   1.3997
     1.4059   1.4129   1.4159   1.4199   1.4243   1.4308   1.4309   1.4325
     1.4359   1.4411   1.4470   1.4512   1.4580   1.4590   1.4621   1.4673
     1.4694   1.4771   1.4831   1.4856   1.4894   1.4912   1.4920   1.4965
     1.4972   1.5018   1.5088   1.5111   1.5219   1.5356   1.5397   1.5403
     1.5478   1.5523   1.5528   1.5583   1.5723   1.5774   1.5836   1.5859
     1.5982   1.5997   1.6033   1.6110   1.6148   1.6172   1.6212   1.6228
     1.6331   1.6346   1.6364   1.6414   1.6423   1.6436   1.6506   1.6581
     1.6601   1.6627   1.6636   1.6694   1.6705   1.6721   1.6740   1.6756
     1.6784   1.6817   1.6884   1.6907   1.6935   1.7000   1.7012   1.7094
     1.7152   1.7176   1.7322   1.7332   1.7383   1.7400   1.7456   1.7529
     1.7593   1.7610   1.7644   1.7690   1.7794   1.7833   1.7846   1.7891
     1.7928   1.7940   1.7959   1.7996   1.8023   1.8046   1.8057   1.8072
     1.8093   1.8142   1.8160   1.8235   1.8259   1.8269   1.8357   1.8402
     1.8453   1.8480   1.8506   1.8544   1.8630   1.8647   1.8686   1.8697
     1.8718   1.8837   1.9036   1.9103   1.9151   1.9202   1.9354   1.9397
     1.9472   1.9797   1.9863   1.9960   1.9996   2.0072   2.0418   2.0952
     2.1117   2.1206   2.1278   2.1531   2.2017   2.2355   2.3299   2.3704
     2.3848   2.3964   2.4195   2.4416   2.4909   2.5259   2.5519   2.6107
     2.8025   2.8887   2.9012   2.9379   3.0969   3.3218   3.3298   3.3493
     3.5301   3.5352   3.5690   3.5707   3.5751   3.6269   3.7065   3.7339
     3.8021   3.8385   3.9809   3.9871   4.0191   4.0322   4.0524   4.0787
     4.1002   4.1980   4.2200   4.2867   4.3360   4.4023   4.5658   4.6125
     4.6465   4.8232   4.8661   4.9752   5.0159   5.0622   5.1059   5.1681
     5.2139   5.4025   5.4114   5.5509   5.5590   5.6527   5.7078   5.7388
     5.7690   5.7792   5.8154   5.8444   5.8644   5.8938   5.9122   5.9811
     5.9991   6.0172   6.1470   6.2144   6.3292   6.3382   6.3563   6.3873
     6.4263   6.5429   6.8488   7.0079   7.0346   7.0836   7.0947   7.1215
     7.1464   7.2302   7.2656   7.2912   7.3197   7.3527   7.3840   7.3883
     7.3949   7.4681   7.4815   7.5928   7.6048   7.6093   7.6656   7.6804
     7.8207   7.8998   7.9031   7.9595   7.9947   8.0986   8.1123   8.1511
     8.2170   8.2716   8.2993   8.3579   8.3652   8.4438   8.4821   8.4933
     8.5151   8.6623   8.7115   8.7389   8.7433   8.7541   8.7711   8.8040
     8.9590   9.0228   9.0695   9.1189   9.2089   9.2432   9.3278   9.3931
     9.4118   9.4546   9.4654   9.4846   9.4978   9.5058   9.5605   9.5695
     9.5763   9.5803   9.6055   9.6118   9.6230   9.6898   9.7063   9.8025
     9.8134  10.0433  10.0589  10.1127  10.1284  10.1297

          k = 0.2500-0.2165 0.0000 (256316 PWs)   bands (ev):

   -15.6509 -15.6022 -14.8969 -14.8759 -14.6648 -14.6166 -13.9228 -13.9003
   -13.4465 -13.4226 -12.7599 -12.6926 -12.5918 -12.4793 -12.4067 -12.0108
   -12.0042 -11.3465 -11.3348 -10.7325 -10.7055 -10.4696 -10.4579 -10.0990
   -10.0528  -9.0388  -9.0131  -8.5282  -8.5023  -8.4356  -8.4200  -8.2232
    -7.8838  -7.8578  -7.7829  -7.7563  -6.0704  -6.0580  -6.0339  -6.0216
    -5.9094  -5.8839  -5.6816  -5.6666  -5.4898  -5.3864  -5.3672  -5.3568
    -5.3047  -4.8641  -4.5742  -4.5345  -4.3472  -4.3125  -4.2710  -4.2375
    -4.2348  -4.2200  -4.0191  -3.9671  -3.7731  -3.6250  -3.5809  -3.5696
    -3.5486  -3.5372  -3.3277  -3.3013  -3.2221  -3.1772  -3.1668  -3.1263
    -3.0501  -3.0475  -2.9956  -2.9650  -2.9395  -2.9278  -2.8048  -2.7629
    -2.6237  -2.6038  -2.6007  -2.5958  -2.5724  -2.5400  -2.4963  -2.4874
    -2.4547  -2.3298  -2.3111  -2.2909  -2.2809  -2.1039  -2.0192  -1.9978
    -1.9881  -1.9419  -1.8584  -1.8450  -1.8359  -1.8274  -1.8037  -1.7780
    -1.7397  -1.6810  -1.6563  -1.6392  -1.6248  -1.5797  -1.4864  -1.4835
    -1.4783  -1.4759  -1.4103  -1.4046  -1.3799  -1.3711  -1.3637  -1.3549
    -1.3529  -1.3480  -1.3414  -1.3381  -1.3186  -1.3144  -1.3113  -1.3008
    -1.2826  -1.2588  -1.2396  -1.2093  -1.2061  -1.1928  -1.1669  -1.1483
    -1.1232  -1.1146  -1.0793  -1.0447  -1.0167  -1.0028  -0.9701  -0.9576
    -0.9498  -0.9348  -0.9263  -0.9219  -0.9137  -0.9079  -0.9058  -0.8845
    -0.8773  -0.8750  -0.8720  -0.8665  -0.8591  -0.8490  -0.8410  -0.8374
    -0.8313  -0.8197  -0.8161  -0.8046  -0.8038  -0.7756  -0.7699  -0.7642
    -0.7584  -0.7549  -0.7518  -0.7372  -0.7157  -0.7088  -0.6964  -0.6835
    -0.6778  -0.6689  -0.6585  -0.6481  -0.6378  -0.6307  -0.6216  -0.6211
    -0.6086  -0.6022  -0.5961  -0.5897  -0.5846  -0.5746  -0.5710  -0.5609
    -0.5541  -0.5428  -0.5352  -0.5329  -0.5080  -0.5023  -0.4876  -0.4761
    -0.4667  -0.4543  -0.4466  -0.4312  -0.3980  -0.3954  -0.3918  -0.3722
    -0.3656  -0.3602  -0.3514  -0.3479  -0.3399  -0.3166  -0.3081  -0.3018
    -0.2773  -0.2662  -0.2623  -0.2561  -0.2438  -0.2278  -0.2248  -0.2190
    -0.2165  -0.2114  -0.2060  -0.2021  -0.1963  -0.1890  -0.1703  -0.1589
    -0.1530  -0.1470  -0.1357  -0.1347  -0.1315  -0.1227  -0.1136  -0.1123
    -0.0930  -0.0878  -0.0745  -0.0697  -0.0666  -0.0536  -0.0467  -0.0275
    -0.0178  -0.0173  -0.0135  -0.0103  -0.0061  -0.0036   0.0038   0.0060
     0.0103   0.0153   0.0241   0.0313   0.0348   0.0440   0.0483   0.0559
     0.0743   0.0794   0.0872   0.0950   0.0976   0.1068   0.1109   0.1143
     0.1288   0.1353   0.1387   0.1453   0.1489   0.1568   0.1613   0.1649
     0.1747   0.1838   0.2054   0.2064   0.2272   0.2322   0.2378   0.2445
     0.2494   0.2531   0.2608   0.2748   0.2794   0.2815   0.2844   0.2874
     0.2957   0.2973   0.3033   0.3090   0.3179   0.3195   0.3267   0.3329
     0.3405   0.3450   0.3458   0.3465   0.3573   0.3581   0.3598   0.3606
     0.3706   0.3717   0.3764   0.3783   0.3811   0.3843   0.3936   0.4026
     0.4043   0.4154   0.4268   0.4334   0.4341   0.4363   0.4444   0.4536
     0.4605   0.4823   0.4916   0.4922   0.5071   0.5096   0.5125   0.5172
     0.5241   0.5260   0.5277   0.5322   0.5346   0.5407   0.5431   0.5469
     0.5724   0.5793   0.5999   0.6197   0.6307   0.6363   0.6426   0.6467
     0.6493   0.6553   0.6630   0.6659   0.6703   0.6727   0.6784   0.6803
     0.6850   0.6872   0.6922   0.6948   0.6992   0.7010   0.7071   0.7128
     0.7161   0.7200   0.7252   0.7342   0.7483   0.7525   0.7664   0.7732
     0.7776   0.7887   0.7891   0.8145   0.8166   0.8188   0.8230   0.8288
     0.8446   0.8468   0.8486   0.8512   0.8522   0.8553   0.8614   0.8651
     0.8716   0.8759   0.8803   0.8925   0.8985   0.9014   0.9158   0.9263
     0.9276   0.9336   0.9458   0.9508   0.9540   0.9595   0.9628   0.9654
     0.9670   0.9753   0.9781   0.9887   0.9943   0.9977   0.9998   1.0094
     1.0140   1.0159   1.0190   1.0230   1.0299   1.0318   1.0341   1.0356
     1.0383   1.0403   1.0428   1.0495   1.0529   1.0585   1.0602   1.0623
     1.0671   1.0709   1.0767   1.0801   1.0823   1.0862   1.0966   1.0984
     1.1149   1.1155   1.1244   1.1298   1.1317   1.1344   1.1411   1.1663
     1.1694   1.1754   1.1795   1.1849   1.1880   1.1928   1.1931   1.2014
     1.2051   1.2126   1.2167   1.2180   1.2209   1.2226   1.2228   1.2309
     1.2400   1.2500   1.2534   1.2619   1.2701   1.2718   1.2776   1.2846
     1.2852   1.2876   1.3003   1.3038   1.3053   1.3132   1.3169   1.3187
     1.3301   1.3307   1.3348   1.3425   1.3456   1.3491   1.3576   1.3579
     1.3643   1.3799   1.3916   1.3997   1.4127   1.4148   1.4189   1.4313
     1.4365   1.4421   1.4462   1.4498   1.4511   1.4565   1.4579   1.4596
     1.4609   1.4629   1.4663   1.4695   1.4733   1.4767   1.4860   1.4884
     1.4932   1.4942   1.4960   1.5100   1.5121   1.5196   1.5213   1.5249
     1.5278   1.5329   1.5363   1.5372   1.5452   1.5475   1.5500   1.5519
     1.5531   1.5536   1.5564   1.5617   1.5663   1.5692   1.5740   1.5755
     1.5779   1.5811   1.5827   1.5867   1.5879   1.5957   1.6056   1.6093
     1.6118   1.6245   1.6264   1.6334   1.6363   1.6367   1.6417   1.6424
     1.6512   1.6599   1.6624   1.6698   1.6724   1.6751   1.6784   1.6836
     1.6932   1.6981   1.6993   1.7040   1.7065   1.7106   1.7156   1.7196
     1.7236   1.7270   1.7271   1.7335   1.7357   1.7380   1.7446   1.7496
     1.7500   1.7539   1.7601   1.7610   1.7644   1.7664   1.7740   1.7790
     1.7806   1.7856   1.7945   1.7963   1.7985   1.8012   1.8026   1.8048
     1.8057   1.8071   1.8100   1.8148   1.8206   1.8246   1.8253   1.8422
     1.8425   1.8458   1.8518   1.8616   1.8624   1.8633   1.8719   1.8849
     1.8919   1.8933   1.9103   1.9146   1.9179   1.9209   1.9285   1.9436
     1.9826   1.9920   2.0090   2.0147   2.0434   2.0704   2.1015   2.1043
     2.1147   2.1192   2.1227   2.1258   2.1351   2.1410   2.1662   2.2561
     2.2761   2.4652   2.4732   2.4987   2.5101   2.5480   2.6328   2.7051
     2.9172   2.9358   3.0780   3.0870   3.1028   3.1059   3.1353   3.1396
     3.2131   3.2669   3.3146   3.3469   3.3638   3.5788   3.8276   3.8381
     3.8604   3.8942   3.9169   4.0759   4.1234   4.1760   4.2085   4.2281
     4.3372   4.3648   4.4416   4.4819   4.4990   4.5121   4.6826   4.6949
     4.8434   4.8626   4.9316   4.9581   4.9647   4.9824   5.1298   5.1344
     5.1500   5.1805   5.2465   5.2804   5.3498   5.3960   5.4703   5.5518
     5.5610   5.7082   5.7187   5.7426   5.8034   5.8697   5.9100   5.9854
     6.0450   6.0928   6.1570   6.2246   6.2738   6.3452   6.5391   6.5700
     6.6197   6.7529   6.8590   6.9304   7.0364   7.0766   7.0921   7.1179
     7.1503   7.1725   7.2520   7.3453   7.3481   7.4186   7.5111   7.5432
     7.5558   7.5947   7.6352   7.6810   7.6941   7.7174   7.7367   7.7459
     7.7658   7.7959   7.8028   7.8858   7.9261   7.9603   8.0712   8.0837
     8.1483   8.1960   8.3479   8.3500   8.4873   8.4982   8.5297   8.5466
     8.7154   8.7387   8.7971   8.8022   8.8519   8.8642   8.9285   8.9369
     8.9713   9.0195   9.0405   9.0604   9.0752   9.1065   9.2211   9.2518
     9.2718   9.2840   9.3243   9.3726   9.3915   9.3954   9.4538   9.4832
     9.4933   9.5303   9.5695   9.6227   9.6492   9.6639   9.7274   9.7329
     9.7490   9.7685   9.8043   9.8479  10.0611  10.0718

          k =-0.5000 0.0000 0.0000 (256496 PWs)   bands (ev):

   -15.3580 -15.3426 -14.9846 -14.9828 -14.9800 -14.9599 -13.8986 -13.8931
   -13.8820 -13.8586 -12.5731 -12.1205 -12.1046 -12.0951 -12.0566 -11.5395
   -11.5187 -11.2129 -11.1943 -11.1903 -11.1859 -10.5598 -10.5469 -10.1499
   -10.1386  -9.5581  -9.5367  -9.1520  -9.1293  -8.3712  -8.3225  -8.3136
    -8.2947  -8.1823  -6.8335  -6.8252  -6.7686  -6.7588  -6.7547  -6.7441
    -5.4572  -5.2960  -5.2854  -4.9784  -4.9485  -4.7999  -4.5687  -4.5559
    -4.4529  -4.4469  -4.4453  -4.4433  -4.1698  -4.1563  -4.1452  -4.1412
    -4.0989  -4.0892  -4.0786  -4.0696  -3.9080  -3.8683  -3.7951  -3.7798
    -3.7758  -3.7703  -3.5473  -3.5357  -3.4760  -3.4038  -3.3718  -3.2994
    -3.1748  -3.1051  -3.0788  -3.0745  -3.0619  -3.0193  -2.9834  -2.9377
    -2.7963  -2.7888  -2.7851  -2.7738  -2.7605  -2.7526  -2.7518  -2.4045
    -2.3166  -2.3028  -2.2817  -2.2692  -2.2153  -2.2112  -2.1902  -2.1735
    -2.1598  -2.1197  -1.9986  -1.9887  -1.9832  -1.7952  -1.7395  -1.6947
    -1.6495  -1.5671  -1.5560  -1.5541  -1.5353  -1.5271  -1.5193  -1.4981
    -1.4254  -1.4154  -1.4112  -1.3362  -1.3278  -1.3225  -1.2993  -1.2769
    -1.2638  -1.2449  -1.2392  -1.2356  -1.1866  -1.1738  -1.1384  -1.1344
    -1.1029  -1.0837  -1.0769  -1.0740  -1.0675  -1.0663  -1.0628  -1.0544
    -1.0403  -1.0393  -1.0089  -1.0038  -0.9971  -0.9951  -0.9937  -0.9909
    -0.9685  -0.9571  -0.9488  -0.9467  -0.9396  -0.9331  -0.9305  -0.9255
    -0.9114  -0.9104  -0.9066  -0.9027  -0.8787  -0.8689  -0.8654  -0.8649
    -0.8584  -0.8387  -0.8380  -0.8180  -0.8095  -0.8070  -0.8013  -0.7833
    -0.7750  -0.7686  -0.7658  -0.7615  -0.7576  -0.7509  -0.7382  -0.7343
    -0.7312  -0.7239  -0.7150  -0.7124  -0.7054  -0.6473  -0.6396  -0.6339
    -0.6299  -0.6260  -0.6244  -0.6100  -0.6004  -0.6001  -0.5918  -0.5862
    -0.5828  -0.5698  -0.5649  -0.5610  -0.5589  -0.5542  -0.5516  -0.5345
    -0.4921  -0.4814  -0.4747  -0.4533  -0.4520  -0.4450  -0.4421  -0.4247
    -0.4167  -0.3926  -0.3765  -0.3665  -0.3582  -0.3572  -0.3187  -0.3147
    -0.3090  -0.3039  -0.2997  -0.2983  -0.2715  -0.2602  -0.2528  -0.2523
    -0.2390  -0.2381  -0.2367  -0.2346  -0.2274  -0.2247  -0.2135  -0.2018
    -0.1775  -0.1663  -0.1615  -0.1203  -0.0966  -0.0914  -0.0758  -0.0712
    -0.0653  -0.0630  -0.0449  -0.0430  -0.0399  -0.0315  -0.0155  -0.0142
    -0.0131  -0.0109  -0.0020   0.0047   0.0165   0.0200   0.0279   0.0347
     0.0427   0.0445   0.0467   0.0469   0.0541   0.0590   0.0643   0.0650
     0.0716   0.0737   0.0776   0.1031   0.1117   0.1153   0.1191   0.1199
     0.1359   0.1528   0.1566   0.1649   0.1861   0.2046   0.2237   0.2266
     0.2314   0.2328   0.2344   0.2427   0.2445   0.2507   0.2528   0.2665
     0.2683   0.2711   0.2881   0.3034   0.3090   0.3128   0.3195   0.3281
     0.3310   0.3334   0.3375   0.3396   0.3424   0.3449   0.3469   0.3539
     0.3600   0.3678   0.4001   0.4024   0.4065   0.4068   0.4133   0.4165
     0.4339   0.4359   0.4450   0.4470   0.4520   0.4533   0.4611   0.4618
     0.4644   0.4651   0.4665   0.4676   0.4705   0.4719   0.4755   0.4759
     0.4793   0.4802   0.4834   0.4889   0.4934   0.4952   0.5000   0.5068
     0.5096   0.5126   0.5163   0.5191   0.5209   0.5327   0.5377   0.5429
     0.5500   0.5707   0.5845   0.5939   0.6252   0.6338   0.6392   0.6409
     0.6491   0.6770   0.6777   0.6797   0.6842   0.6898   0.6950   0.7002
     0.7073   0.7121   0.7195   0.7198   0.7257   0.7263   0.7277   0.7282
     0.7345   0.7369   0.7378   0.7400   0.7404   0.7541   0.7559   0.7578
     0.7643   0.7652   0.7776   0.7906   0.8027   0.8170   0.8368   0.8460
     0.8496   0.8519   0.8521   0.8640   0.8791   0.8796   0.8890   0.8906
     0.8935   0.8945   0.8967   0.8998   0.9017   0.9049   0.9059   0.9067
     0.9133   0.9152   0.9155   0.9173   0.9217   0.9228   0.9262   0.9396
     0.9415   0.9453   0.9461   0.9510   0.9629   0.9687   0.9693   0.9829
     0.9868   0.9889   0.9945   1.0000   1.0072   1.0082   1.0088   1.0111
     1.0147   1.0159   1.0183   1.0210   1.0257   1.0304   1.0375   1.0393
     1.0409   1.0519   1.0556   1.0671   1.0682   1.0744   1.0780   1.0806
     1.0836   1.0845   1.0945   1.0998   1.1042   1.1185   1.1192   1.1300
     1.1367   1.1482   1.1656   1.1702   1.1767   1.1785   1.1879   1.1938
     1.1957   1.1976   1.2008   1.2024   1.2031   1.2033   1.2150   1.2152
     1.2179   1.2228   1.2240   1.2324   1.2419   1.2481   1.2508   1.2538
     1.2551   1.2591   1.2640   1.2651   1.2726   1.2755   1.2776   1.2828
     1.2928   1.3002   1.3024   1.3110   1.3176   1.3583   1.3673   1.3685
     1.3775   1.3786   1.3822   1.3933   1.3988   1.4070   1.4125   1.4201
     1.4222   1.4338   1.4423   1.4425   1.4443   1.4462   1.4539   1.4570
     1.4606   1.4645   1.4690   1.4723   1.4783   1.4798   1.4852   1.4895
     1.4934   1.4971   1.4997   1.5000   1.5021   1.5047   1.5082   1.5133
     1.5140   1.5154   1.5213   1.5257   1.5265   1.5344   1.5360   1.5401
     1.5485   1.5621   1.5628   1.5679   1.5696   1.5815   1.5861   1.5863
     1.5897   1.5983   1.6020   1.6048   1.6055   1.6057   1.6075   1.6095
     1.6123   1.6147   1.6151   1.6284   1.6422   1.6436   1.6516   1.6552
     1.6622   1.6650   1.6678   1.6684   1.6701   1.6726   1.6732   1.6740
     1.6821   1.6838   1.6857   1.6867   1.6880   1.6899   1.6923   1.6973
     1.6980   1.6987   1.7013   1.7038   1.7087   1.7147   1.7179   1.7183
     1.7193   1.7219   1.7255   1.7314   1.7481   1.7515   1.7560   1.7586
     1.7668   1.7703   1.7785   1.7789   1.7800   1.7829   1.7904   1.7916
     1.7924   1.7966   1.8039   1.8047   1.8051   1.8092   1.8131   1.8233
     1.8239   1.8283   1.8284   1.8440   1.8443   1.8463   1.8491   1.8492
     1.8504   1.8579   1.8660   1.8749   1.8765   1.8772   1.8841   1.8888
     1.9012   1.9012   1.9062   1.9324   1.9404   1.9544   1.9676   1.9692
     1.9694   1.9790   1.9849   2.1505   2.3491   2.3719   2.3856   2.4633
     2.4925   2.5615   2.5784   2.6246   2.6358   2.6449   2.6459   2.7023
     2.9002   2.9032   2.9202   3.1145   3.1592   3.1874   3.1913   3.4160
     3.4751   3.5289   3.5426   3.5487   3.7384   3.8294   4.0098   4.0444
     4.0662   4.1439   4.1595   4.2490   4.2931   4.3249   4.3325   4.3805
     4.4278   4.4301   4.4392   4.6887   4.8847   4.8933   4.9382   4.9588
     5.0352   5.0586   5.1353   5.1551   5.1892   5.2233   5.2468   5.2670
     5.3055   5.3303   5.3683   5.3753   5.3790   5.3895   5.4074   5.4148
     5.4953   5.6380   5.6509   5.6687   5.6835   5.7356   5.7694   5.8586
     5.8877   5.8905   5.9007   5.9202   6.2183   6.2414   6.2814   6.2960
     6.3208   6.3391   6.3758   6.4020   6.4092   6.4853   6.5800   6.5931
     6.6212   6.8774   6.9000   6.9770   6.9839   7.0425   7.0839   7.3862
     7.3990   7.4091   7.4347   7.5646   7.5958   7.7138   7.8858   7.9012
     7.9047   7.9080   7.9781   7.9824   8.0333   8.1132   8.1218   8.1255
     8.1318   8.1545   8.1764   8.2148   8.2478   8.2512   8.2921   8.3139
     8.3191   8.4048   8.4128   8.5217   8.6004   8.6007   8.6619   8.6678
     8.7416   8.7424   9.1162   9.1250   9.1458   9.1644   9.2075   9.2558
     9.2590   9.2597   9.2603   9.3189   9.3227   9.3515   9.5975   9.6001
     9.6098   9.6258   9.6702   9.7370   9.7379   9.7530   9.8303   9.8355
     9.8606   9.8891   9.9413   9.9694  10.0294  10.0583

          k =-0.5000-0.2165 0.0000 (256328 PWs)   bands (ev):

   -15.2918 -15.2671 -15.2328 -15.2300 -14.5313 -14.5301 -14.5184 -14.4956
   -13.1069 -13.0874 -13.0717 -13.0543 -12.5144 -11.4831 -11.4464 -11.4226
   -11.4202 -11.0254 -11.0113 -11.0042 -10.9939 -10.8496 -10.8329 -10.8126
   -10.8022  -9.1400  -9.1329  -9.1186  -9.1096  -8.2356  -8.1859  -8.1623
    -8.1582  -8.1527  -7.4158  -7.4080  -7.3993  -7.3887  -5.4677  -5.3488
    -5.3418  -5.3391  -5.3282  -4.8999  -4.8441  -4.7980  -4.7955  -4.7737
    -4.7175  -4.6970  -4.6905  -4.6862  -4.4856  -4.4610  -4.4449  -4.4448
    -3.8977  -3.8629  -3.8474  -3.8438  -3.7939  -3.7672  -3.7545  -3.7443
    -3.6177  -3.6090  -3.6006  -3.5836  -3.4137  -3.3645  -3.3314  -3.2293
    -3.1588  -3.0946  -3.0832  -3.0620  -3.0587  -3.0532  -3.0460  -3.0438
    -3.0255  -2.8887  -2.8869  -2.8715  -2.7500  -2.6948  -2.5161  -2.4356
    -2.3533  -2.2452  -2.2444  -2.2340  -2.2106  -2.2067  -2.1911  -2.1699
    -2.1135  -1.8413  -1.7697  -1.7586  -1.7352  -1.7322  -1.7224  -1.7208
    -1.7144  -1.6985  -1.6948  -1.6737  -1.6697  -1.5058  -1.4771  -1.4639
    -1.4425  -1.4400  -1.4316  -1.4247  -1.4229  -1.3737  -1.3098  -1.2566
    -1.2458  -1.2384  -1.2288  -1.2214  -1.1636  -1.1530  -1.1420  -1.1212
    -1.1124  -1.1011  -1.0907  -1.0879  -1.0759  -1.0696  -1.0670  -1.0541
    -1.0506  -1.0466  -1.0405  -1.0299  -1.0237  -1.0143  -1.0039  -1.0030
    -1.0019  -0.9984  -0.9966  -0.9590  -0.9546  -0.9430  -0.9372  -0.9251
    -0.9205  -0.9035  -0.8709  -0.8628  -0.8612  -0.8495  -0.8323  -0.8279
    -0.8227  -0.8163  -0.8098  -0.8084  -0.7985  -0.7855  -0.7851  -0.7773
    -0.7733  -0.7660  -0.7613  -0.7548  -0.7523  -0.7430  -0.7366  -0.7330
    -0.7232  -0.7219  -0.7141  -0.7043  -0.6968  -0.6959  -0.6892  -0.6850
    -0.6800  -0.6672  -0.6665  -0.6608  -0.6581  -0.6533  -0.6276  -0.5560
    -0.5435  -0.5345  -0.5132  -0.5039  -0.5016  -0.4950  -0.4756  -0.4672
    -0.4573  -0.4547  -0.4527  -0.4397  -0.4314  -0.4193  -0.4058  -0.4051
    -0.4004  -0.3944  -0.3911  -0.3862  -0.3847  -0.3787  -0.3742  -0.3623
    -0.3533  -0.3493  -0.3448  -0.3435  -0.3250  -0.3210  -0.3147  -0.3037
    -0.3008  -0.2843  -0.2709  -0.2396  -0.2102  -0.1959  -0.1890  -0.1837
    -0.1691  -0.1657  -0.1612  -0.1418  -0.1316  -0.1295  -0.1241  -0.1122
    -0.1097  -0.0964  -0.0819  -0.0797  -0.0772  -0.0685  -0.0498  -0.0473
    -0.0432  -0.0414  -0.0317  -0.0253  -0.0229  -0.0074   0.0151   0.0256
     0.0270   0.0344   0.0544   0.0635   0.0673   0.0851   0.0924   0.0989
     0.1050   0.1108   0.1128   0.1151   0.1161   0.1177   0.1338   0.1440
     0.1575   0.1764   0.1962   0.1999   0.2020   0.2067   0.2101   0.2143
     0.2202   0.2208   0.2227   0.2318   0.2358   0.2476   0.2492   0.2551
     0.2554   0.2567   0.2608   0.2616   0.2653   0.2710   0.2819   0.2831
     0.3125   0.3148   0.3295   0.3398   0.3407   0.3522   0.3785   0.3813
     0.3914   0.4159   0.4227   0.4285   0.4325   0.4335   0.4385   0.4425
     0.4427   0.4479   0.4506   0.4513   0.4587   0.4616   0.4644   0.4655
     0.4673   0.4716   0.4722   0.4737   0.4752   0.4781   0.4812   0.4841
     0.4870   0.4884   0.4932   0.5098   0.5143   0.5154   0.5172   0.5191
     0.5298   0.5323   0.5389   0.5416   0.5477   0.5505   0.5511   0.5663
     0.5717   0.5789   0.5855   0.5858   0.5949   0.6099   0.6170   0.6223
     0.6501   0.6631   0.6840   0.6905   0.6949   0.7000   0.7138   0.7164
     0.7174   0.7213   0.7280   0.7283   0.7326   0.7332   0.7373   0.7401
     0.7423   0.7504   0.7512   0.7579   0.7687   0.7749   0.7883   0.7949
     0.8056   0.8122   0.8210   0.8213   0.8242   0.8247   0.8322   0.8327
     0.8351   0.8376   0.8397   0.8515   0.8576   0.8622   0.8728   0.8780
     0.8801   0.8862   0.8876   0.8930   0.8969   0.8995   0.9083   0.9105
     0.9188   0.9203   0.9242   0.9263   0.9327   0.9369   0.9408   0.9414
     0.9528   0.9550   0.9611   0.9621   0.9653   0.9657   0.9701   0.9737
     0.9752   0.9762   0.9820   0.9900   0.9936   0.9979   1.0081   1.0220
     1.0237   1.0276   1.0361   1.0406   1.0513   1.0565   1.0592   1.0605
     1.0616   1.0667   1.0718   1.0752   1.0783   1.0827   1.0837   1.0857
     1.0898   1.0932   1.0956   1.1026   1.1054   1.1124   1.1250   1.1349
     1.1367   1.1482   1.1527   1.1548   1.1688   1.1701   1.1710   1.1780
     1.1793   1.1854   1.1922   1.2020   1.2136   1.2183   1.2212   1.2246
     1.2296   1.2320   1.2342   1.2359   1.2473   1.2618   1.2713   1.2764
     1.2791   1.2943   1.3048   1.3072   1.3117   1.3267   1.3399   1.3402
     1.3504   1.3565   1.3580   1.3721   1.3732   1.3778   1.3812   1.3818
     1.3842   1.3856   1.3941   1.3984   1.3996   1.4023   1.4070   1.4099
     1.4112   1.4127   1.4128   1.4144   1.4165   1.4170   1.4177   1.4258
     1.4321   1.4330   1.4374   1.4430   1.4463   1.4498   1.4506   1.4535
     1.4612   1.4712   1.4765   1.4787   1.4807   1.4831   1.4854   1.4881
     1.4969   1.4998   1.5002   1.5027   1.5057   1.5204   1.5298   1.5479
     1.5493   1.5589   1.5606   1.5613   1.5633   1.5655   1.5672   1.5717
     1.5733   1.5763   1.5825   1.5836   1.5898   1.5937   1.5944   1.6008
     1.6025   1.6281   1.6301   1.6308   1.6335   1.6362   1.6412   1.6466
     1.6468   1.6507   1.6523   1.6555   1.6573   1.6628   1.6735   1.6935
     1.6972   1.6982   1.7024   1.7100   1.7107   1.7148   1.7155   1.7193
     1.7198   1.7222   1.7225   1.7242   1.7243   1.7246   1.7274   1.7291
     1.7309   1.7338   1.7362   1.7390   1.7500   1.7519   1.7550   1.7566
     1.7574   1.7595   1.7628   1.7636   1.7645   1.7666   1.7705   1.7712
     1.7913   1.7935   1.8029   1.8039   1.8053   1.8067   1.8156   1.8227
     1.8258   1.8307   1.8353   1.8387   1.8407   1.8583   1.8591   1.8599
     1.8604   1.8873   1.8904   1.8947   1.8955   1.9059   1.9279   1.9301
     1.9377   1.9456   1.9493   1.9510   1.9543   1.9629   1.9688   1.9751
     1.9755   1.9776   1.9797   1.9856   1.9870   2.1269   2.1860   2.1923
     2.2058   2.3678   2.6285   2.6298   2.6367   2.7902   2.8446   2.9131
[...]
     atom    9 type  1   force =     0.00004098   -0.00000566    0.00112981
     atom   10 type  1   force =    -0.00025635    0.00063260    0.00054716
     atom   11 type  1   force =     0.00000719   -0.00005487    0.00106026
     atom   12 type  1   force =     0.00030880    0.00064763    0.00053241
     atom   13 type  1   force =     0.00000464    0.00140299   -0.00034334
     atom   14 type  1   force =     0.00079616    0.00214688   -0.00148090
     atom   15 type  1   force =     0.00003363    0.00177950   -0.00119982
     atom   16 type  1   force =    -0.00076515    0.00207467   -0.00139931
     atom   17 type  1   force =    -0.00000318    0.00148269   -0.00219733
     atom   18 type  1   force =    -0.00062188    0.00008654   -0.00215934
     atom   19 type  1   force =     0.00003390    0.00057082   -0.00123184
     atom   20 type  1   force =     0.00065129    0.00009812   -0.00210236
     atom   21 type  1   force =     0.00002207   -0.00049011   -0.00008085
     atom   22 type  1   force =     0.00061349    0.00014974   -0.00021829
     atom   23 type  1   force =     0.00001449    0.00077380    0.00182085
     atom   24 type  1   force =    -0.00057751    0.00011206   -0.00029099
     atom   25 type  1   force =     0.00000340   -0.00083249    0.00088378
     atom   26 type  1   force =     0.00019799   -0.00072020    0.00067152
     atom   27 type  1   force =     0.00001772   -0.00143719   -0.00054613
     atom   28 type  1   force =    -0.00018558   -0.00069319    0.00081595
     atom   29 type  1   force =     0.00002787    0.00129785    0.00097246
     atom   30 type  1   force =    -0.00063987    0.00025043   -0.00001255
     atom   31 type  1   force =     0.00001603    0.00169249   -0.00103263
     atom   32 type  1   force =     0.00053472    0.00023568   -0.00019533
     atom   33 type  1   force =     0.00001418    0.00063761   -0.00058056
     atom   34 type  1   force =     0.00047485    0.00064965    0.00081434
     atom   35 type  1   force =     0.00001773   -0.00155421    0.00273964
     atom   36 type  1   force =    -0.00044486    0.00064466    0.00087565
     atom   37 type  1   force =     0.00002642   -0.00002552   -0.00046501
     atom   38 type  1   force =     0.00082835   -0.00011949   -0.00060154
     atom   39 type  1   force =     0.00002001   -0.00021486   -0.00092729
     atom   40 type  1   force =    -0.00079079   -0.00011521   -0.00061795
     atom   41 type  1   force =     0.00005918    0.00110441    0.00103877
     atom   42 type  1   force =     0.00040786    0.00106850    0.00160712
     atom   43 type  1   force =    -0.00001914    0.00005111    0.00003654
     atom   44 type  1   force =    -0.00043261    0.00100440    0.00151723
     atom   45 type  1   force =     0.00001102    0.00034707    0.00149549
     atom   46 type  1   force =    -0.00107354    0.00059659   -0.00029573
     atom   47 type  1   force =     0.00002008   -0.00048899    0.00042462
     atom   48 type  1   force =     0.00101012    0.00037977   -0.00045101
     atom   49 type  1   force =     0.00000906    0.00014775    0.00094612
     atom   50 type  1   force =    -0.00087249   -0.00093914   -0.00014509
     atom   51 type  1   force =    -0.00012268    0.00014108   -0.00298649
     atom   52 type  1   force =     0.00074959   -0.00073146   -0.00020738
     atom   53 type  1   force =     0.00001940    0.00025780    0.00043964
     atom   54 type  1   force =     0.00094907   -0.00046109    0.00033185
     atom   55 type  1   force =     0.00004540    0.00116035    0.00034496
     atom   56 type  1   force =    -0.00094408   -0.00038998    0.00029793
     atom   57 type  1   force =     0.00005160   -0.00119149    0.00098105
     atom   58 type  1   force =     0.00025348   -0.00008806    0.00048358
     atom   59 type  1   force =    -0.00001440    0.00023491   -0.00006040
     atom   60 type  1   force =    -0.00021106   -0.00008105    0.00051167
     atom   61 type  1   force =     0.00006418    0.00189100    0.00009462
     atom   62 type  1   force =    -0.00047493    0.00054887    0.00061017
     atom   63 type  1   force =    -0.00000426    0.00026618    0.00083286
     atom   64 type  1   force =     0.00044704    0.00058761    0.00069064
     atom   65 type  1   force =     0.00008229    0.00168012   -0.00408519
     atom   66 type  1   force =    -0.00019154   -0.00022744   -0.00146906
     atom   67 type  1   force =    -0.00012014    0.00418806    0.00166890
     atom   68 type  1   force =     0.00031058   -0.00076067   -0.00180081
     atom   69 type  1   force =    -0.00002737   -0.00081307   -0.00339594
     atom   70 type  1   force =     0.00123150   -0.00066147    0.00101766
     atom   71 type  1   force =    -0.00008179   -0.00316895    0.00188936
     atom   72 type  1   force =    -0.00071481   -0.00039268    0.00025878
     atom   73 type  1   force =     0.00006997   -0.00142295    0.00000865
     atom   74 type  1   force =    -0.00013225    0.00018660   -0.00178504
     atom   75 type  1   force =    -0.00002639    0.00106899    0.00086337
     atom   76 type  1   force =     0.00015170    0.00025074   -0.00181954
     atom   77 type  1   force =     0.00000296   -0.00011471    0.00116834
     atom   78 type  1   force =    -0.00056853   -0.00045437    0.00065027
     atom   79 type  1   force =    -0.00000979    0.00002405    0.00057754
     atom   80 type  1   force =     0.00057298   -0.00045948    0.00067846
     atom   81 type  1   force =    -0.00002113    0.00047757   -0.00001035
     atom   82 type  1   force =    -0.00095676    0.00171215   -0.00112711
     atom   83 type  1   force =     0.00001939    0.00123329   -0.00014096
     atom   84 type  1   force =     0.00107838    0.00165828   -0.00115533
     atom   85 type  1   force =     0.00005979    0.00082152   -0.00202168
     atom   86 type  1   force =    -0.00240032   -0.00139406    0.00194027
     atom   87 type  1   force =     0.00010448    0.00074564    0.00091531
     atom   88 type  1   force =     0.00226793   -0.00151262    0.00161616
     atom   89 type  1   force =     0.00005300    0.00084662    0.00144623
     atom   90 type  1   force =    -0.00229502    0.00121108    0.00069681
     atom   91 type  1   force =    -0.00071358   -0.00128453    0.01052895
     atom   92 type  1   force =     0.00223252    0.00148102    0.00058040
     atom   93 type  1   force =    -0.00003720   -0.00075566   -0.00347022
     atom   94 type  1   force =    -0.00097076   -0.00150348   -0.00101861
     atom   95 type  1   force =     0.00002317    0.00010766    0.00055621
     atom   96 type  1   force =     0.00104356   -0.00142509   -0.00096081
     atom   97 type  1   force =     0.00003075   -0.00028148    0.00047709
     atom   98 type  1   force =     0.00041914    0.00004008    0.00079579
     atom   99 type  1   force =    -0.00005451   -0.00112497   -0.00003500
     atom  100 type  1   force =    -0.00048463   -0.00003112    0.00085983
     atom  101 type  2   force =     0.00227075    0.00164418    0.00520746
     atom  102 type  2   force =    -0.00679301    0.00712763    0.00085938
     atom  103 type  2   force =     0.00072726   -0.01169708   -0.00149615
     atom  104 type  2   force =     0.00200762   -0.00945876    0.00184733
     atom  105 type  2   force =    -0.00152484    0.00217782   -0.00077928
     atom  106 type  2   force =     0.00533506    0.00861116   -0.00008207
     atom  107 type  2   force =     0.00238176   -0.00146304   -0.00494272
     atom  108 type  2   force =    -0.00251625   -0.00527158   -0.00385661
     atom  109 type  2   force =    -0.00152030   -0.00429648   -0.00051760
     atom  110 type  2   force =    -0.00373007    0.00682525    0.00086317
     atom  111 type  2   force =    -0.00103909   -0.00526746   -0.00178065
     atom  112 type  2   force =     0.00624346   -0.00641877   -0.00014307
     atom  113 type  2   force =    -0.00296806   -0.00087232   -0.00642932
     atom  114 type  2   force =     0.00705797    0.00031408    0.00393545
     atom  115 type  2   force =    -0.00095910    0.01061848    0.00495976
     atom  116 type  2   force =     0.00041951    0.00098687   -0.00428497
     atom  117 type  2   force =     0.00794470    0.00507081    0.00115515
     atom  118 type  2   force =     0.00160484   -0.00351178   -0.00000399
     atom  119 type  2   force =    -0.00385682   -0.00210544    0.00883732
     atom  120 type  2   force =     0.00460013    0.00045838    0.01393931
     atom  121 type  2   force =    -0.00343927    0.01207025    0.00195381
     atom  122 type  2   force =    -0.00267367   -0.00136900   -0.00318384
     atom  123 type  2   force =     0.00110187    0.00213475    0.00607817
     atom  124 type  2   force =    -0.00760077   -0.00467261    0.00078827
     atom  125 type  2   force =     0.00588427    0.00081122   -0.00307248
     atom  126 type  2   force =    -0.00535222   -0.00702231   -0.00161098
     atom  127 type  2   force =    -0.00479709   -0.00577740    0.00401085
     atom  128 type  2   force =     0.00177770    0.00537048    0.00326352
     atom  129 type  2   force =     0.00338260    0.00154215   -0.00107216
     atom  130 type  2   force =     0.00419738   -0.00827455    0.00220935
     atom  131 type  2   force =     0.00042136    0.00210831    0.00497253
     atom  132 type  2   force =    -0.00284544    0.00337143   -0.00006403
     atom  133 type  2   force =    -0.00044439   -0.00597680   -0.00252233
     atom  134 type  2   force =    -0.00202364   -0.00997717    0.00489969
     atom  135 type  2   force =    -0.00454439    0.00216827    0.00273940
     atom  136 type  2   force =     0.00340399    0.00828204    0.00122034
     atom  137 type  2   force =    -0.00509263   -0.00489895   -0.00086813
     atom  138 type  2   force =     0.00553641    0.00528742   -0.00514685
     atom  139 type  2   force =     0.00495248    0.00643154    0.00101604
     atom  140 type  2   force =     0.00016887    0.00369637   -0.00700068
     atom  141 type  2   force =     0.00047006   -0.00392953   -0.00267042
     atom  142 type  2   force =    -0.00212814    0.00183913   -0.00375985
     atom  143 type  2   force =    -0.00105814   -0.00505465   -0.00590061
     atom  144 type  2   force =     0.00171712    0.00377735   -0.00504434
     atom  145 type  2   force =    -0.00096574   -0.00037204   -0.00229479
     atom  146 type  2   force =     0.00161266    0.00379795   -0.00376684
     atom  147 type  2   force =     0.00063180   -0.00023483   -0.00032145
     atom  148 type  2   force =    -0.00787151    0.00040062   -0.00629112
     atom  149 type  3   force =    -0.01172117    0.01897443    0.00723845
     atom  150 type  3   force =    -0.00978243   -0.02065986    0.00265110
     atom  151 type  2   force =     0.00219955   -0.00165847   -0.01094435
     atom  152 type  2   force =    -0.00375908   -0.00234904   -0.00850232
     atom  153 type  3   force =     0.01203647    0.01937318    0.00796896
     atom  154 type  3   force =     0.01046904   -0.01981549    0.00274606

     Total force =     0.076197     Total SCF correction =     0.000453

     number of scf cycles    =  12
     number of bfgs steps    =  11

     energy   old            =  -12726.2193968515 Ry
     energy   new            =  -12726.2248229728 Ry

     CASE: energy  _new < energy  _old

     new trust radius        =       0.0946225266 bohr
     new conv_thr            =       0.0000000100 Ry


ATOMIC_POSITIONS (angstrom)
Cu      -0.000010815  -0.017857906   7.345125508
Cu       1.844721595   1.668526124   7.323505081
Cu       3.689282733  -0.044630361   7.316448061
Cu       5.533836058   1.668220487   7.322797075
Cu       0.000478890   3.383524934   7.325388908
Cu       1.848702041   5.107904118   7.353821055
Cu       3.689427254   3.397220373   7.348728289
Cu       5.530544735   5.108248676   7.354114388
Cu       0.000657701   6.812879161   7.358432191
Cu       1.849079366   8.519446646   7.353309944
Cu       3.689765282   6.813643536   7.364197752
Cu       5.530052640   8.519138455   7.353501449
Cu       0.000194078  10.247956343   7.320209628
Cu       1.843444481  11.967830925   7.315410037
Cu       3.689534948  10.232866034   7.346151492
Cu       5.534972200  11.968195957   7.315092698
Cu       0.000237635  13.652820425   7.342983103
Cu       1.834850047  15.337305723   7.344977483
Cu       3.688932395  13.685479155   7.304889889
Cu       5.543337614  15.337193935   7.345757895
Cu       0.000629533   1.656441305   9.169452159
Cu       1.838882634  -0.032775700   9.188975454
Cu       3.689610881   1.629580458   9.131871064
Cu       5.540112633  -0.031754359   9.190010903
Cu       0.001221422   5.070461007   9.156703509
Cu       1.845549757   3.347644747   9.145768165
Cu       3.690508927   5.086665655   9.191960780
Cu       5.534354049   3.347765299   9.145522886
Cu       0.001053176   8.561447117   9.149838058
Cu       1.852452692   6.814640893   9.193409399
Cu       3.690465784   8.545183344   9.187611786
Cu       5.528954076   6.814543605   9.193952230
Cu       0.000446547  11.978932544   9.166431504
Cu       1.844908575  10.291776626   9.134264485
Cu       3.689529577  12.010149270   9.119892657
Cu       5.534626076  10.291375124   9.134745975
Cu       0.000045233  15.336755332   9.204034281
Cu       1.836661528  13.666662151   9.188295815
Cu       3.689728963  15.333821685   9.200145796
Cu       5.542211698  13.665806187   9.188940463
Cu       0.000693370  -0.038275125  11.068391745
Cu       1.834561023   1.640524744  11.034839626
Cu       3.690572113  -0.028793394  11.050540032
Cu       5.546306769   1.642102161  11.036495724
Cu       0.001664984   3.323808778  11.010341926
Cu       1.833668559   5.023689134  10.972020398
Cu       3.690301619   3.282956145  10.951691235
Cu       5.548607338   5.024123121  10.973254189
Cu       0.001005630   6.820337678  10.932757346
Cu       1.835095898   8.622427660  10.958511196
Cu       3.692074419   6.819344633  10.997301556
Cu       5.547045782   8.620995559  10.960089149
Cu       0.001203508  10.315009834  11.003250211
Cu       1.832471720  11.995469948  11.030991440
Cu       3.690292042  10.353776271  10.941804878
Cu       5.547902048  11.994197935  11.032531912
Cu       0.000760822  13.670909870  11.070518417
Cu       1.850811996  15.334657772  11.077361249
Cu       3.690312605  13.654406547  11.054092916
Cu       5.529270095  15.334437446  11.077109471
Cu       0.000942406   1.648161812  12.945156656
Cu       1.849973220  -0.022336826  12.950101824
Cu       3.691667243   1.647920176  12.887861676
Cu       5.531733108  -0.023235659  12.950181529
Cu       0.003377707   5.053976205  12.806333446
Cu       1.828703263   3.330873720  12.889461389
Cu       3.691987686   4.944127351  12.674994803
Cu       5.554233390   3.334015279  12.892489461
Cu       0.002039765   8.601302797  12.789973417
Cu       1.782642065   6.834466449  12.643184867
Cu       3.691419985   8.706740184  12.666809380
Cu       5.600331496   6.832520899  12.645810255
Cu       0.001133660  11.985658846  12.953163856
Cu       1.828441674  10.322971282  12.873156860
Cu       3.691484841  11.974449580  12.896679420
Cu       5.553990211  10.320608356  12.876322174
Cu       0.002223720  15.334014495  12.960275429
Cu       1.852494743  13.650849034  12.951529300
Cu       3.690448324  15.334830840  12.949201851
Cu       5.529086867  13.651739468  12.951511044
Cu       0.002286673  -0.019753279  14.824923835
Cu       1.838715642   1.687112352  14.803489043
Cu       3.690912986  -0.003733645  14.808363989
Cu       5.543346119   1.687737773  14.804041090
Cu       0.004275470   3.450588817  14.742296804
Cu       1.871700951   5.153700244  14.523424930
Cu       3.691256997   3.361624096  14.667211558
Cu       5.517659791   5.154471780  14.524355149
Cu       0.008112671   6.835257430  14.499160700
Cu       1.858009345   8.534151251  14.518066240
Cu       3.691647149   6.850813673  14.088059824
Cu       5.526376993   8.528104775  14.520653970
Cu       0.001841442  10.198298674  14.777974855
Cu       1.837869426  11.942774882  14.810522645
Cu       3.692328277  10.254495841  14.687189528
Cu       5.544199687  11.943188567  14.810876575
Cu       0.001852043  13.652294653  14.827903341
Cu       1.854061744  15.333795338  14.815808399
Cu       3.691375179  13.631109552  14.804833646
Cu       5.528463595  15.334275787  14.815909501
C       -0.000448273   0.724660315  17.922228596
C        0.001373498   2.146080798  18.028878091
C        1.228344483   0.010760335  17.925648853
C        1.229781416   2.854004963  18.119519073
C        2.459765764   0.720387157  17.960503261
C        2.458264411   2.143942819  18.043434299
C        3.689765575   0.004702423  17.959753092
C        3.689127534   2.858587901  18.128641073
C        4.917994647   0.722640569  17.957307883
C        4.919599796   2.144918332  18.040673812
C        6.149512540   0.010386123  17.924911940
C        6.145628995   2.857067216  18.119293223
C       -0.001628191   4.970588206  18.452464881
C       -0.000237587   6.389443607  18.567487136
C        1.232598632   4.260298793  18.356612600
C        1.227267579   7.105961801  18.606683255
C        2.454263505   4.962850416  18.526217921
C        2.453225154   6.387917938  18.695707871
C        3.688873515   4.264867444  18.378272270
C        3.687657507   7.106203527  18.700643885
C        4.921268186   4.963167859  18.523418270
C        4.921059910   6.388706992  18.697067037
C        6.147852485   4.263792199  18.349286134
C        6.145557787   7.107433104  18.601148383
C       -0.003490747   9.227250287  18.304322044
C        0.000738331  10.635287498  18.098872855
C        1.232836046   8.523897555  18.432520483
C        1.228362584  11.343667727  18.013004307
C        2.460136653   9.229341571  18.337987445
C        2.462287869  10.637242447  18.106422738
C        3.688220185   8.523113164  18.493426887
C        3.688389554  11.352584680  18.037358447
C        4.916656107   9.232323839  18.344729609
C        4.915596425  10.639138967  18.104596976
C        6.148908954   8.524164340  18.434485900
C        6.147401741  11.344679726  18.015547305
C        0.000301297  13.480740740  17.906411200
C        0.001327470  14.905847297  17.919210501
C        1.230420604  12.764645680  17.927011733
C        1.228363969  15.623035314  17.926783785
C        2.457036982  13.483631286  17.952028685
C        2.458285172  14.907070138  17.944263204
C        3.689078928  12.774169094  17.981824312
C        3.689572450  15.618965225  17.957000375
C        4.920286494  13.484452146  17.955707381
C        4.921313734  14.907530484  17.944895158
C        6.148776739  12.767068268  17.934013285
C        6.150271121  15.622658997  17.926801112
H        2.489593272   7.533424195  16.347219404
H        2.513795270   5.741153885  16.315977232
C        2.989629204   6.655012650  15.956553313
C        4.430262121   6.664209004  15.941209472
H        4.917881013   7.548084186  16.336793455
H        4.917297808   5.756448925  16.306145502



     Writing output data file gc.save
     Check: negative starting charge=   -0.001721
     NEW-OLD atomic charge density approx. for the potential
     Check: negative starting charge=   -0.001716

     negative rho (up, down):  1.684E-03 0.000E+00

     total cpu time spent up to now is    49635.4 secs

     Self-consistent Calculation

     iteration #  1     ecut=    80.00 Ry     beta=0.70
     Davidson diagonalization with overlap
     ethr =  1.00E-06,  avg # of iterations = 10.2

     negative rho (up, down):  2.793E-03 0.000E+00

     total cpu time spent up to now is    50257.1 secs

     total energy              =  -12726.22480951 Ry
     Harris-Foulkes estimate   =  -12726.25519210 Ry
     estimated scf accuracy    <       0.24947086 Ry

     iteration #  2     ecut=    80.00 Ry     beta=0.70
     Davidson diagonalization with overlap
