
     Program PWSCF v.5.4.0 starts on 26Mar2017 at 15:45:31 

     This program is part of the open-source Quantum ESPRESSO suite
     for quantum simulation of materials; please cite
         "P. Giannozzi et al., J. Phys.:Condens. Matter 21 395502 (2009);
          URL http://www.quantum-espresso.org", 
     in publications or presentations arising from this work. More details at
     http://www.quantum-espresso.org/quote

     Parallel version (MPI & OpenMP), running on      56 processor cores
     Number of MPI processes:                56
     Threads/MPI process:                     1
     R & G space division:  proc/nbgrp/npool/nimage =      56
     Waiting for input...
     Reading input from standard input

     Current dimensions of program PWSCF are:
     Max number of different atomic species (ntypx) = 10
     Max number of k-points (npk) =  40000
     Max angular momentum in pseudopotentials (lmaxx) =  3

     -------------------------------------
     Parameters for Dispersion Correction:
     -------------------------------------
       atom      VdW radius       C_6     

        Cu         2.952        374.666
        C          2.744         60.710
        H          1.892          4.857

     Subspace diagonalization in iterative solution of the eigenvalue problem:
     one sub-group per band group will be used
     scalapack distributed-memory algorithm (size of sub-group:  5*  5 procs)

 
     Parallelization info
     --------------------
     sticks:   dense  smooth     PW     G-vecs:    dense   smooth      PW
     Min         204     204     54                36612    36612    4962
     Max         205     205     55                36617    36617    4968
     Sum       11433   11433   3039              2050409  2050409  278033
 


     bravais-lattice index     =            0
     lattice parameter (alat)  =      13.9425  a.u.
     unit-cell volume          =   21209.0878 (a.u.)^3
     number of atoms/cell      =          154
     number of atomic types    =            3
     number of electrons       =      1304.00
     number of Kohn-Sham states=          782
     kinetic-energy cutoff     =      80.0000  Ry
     charge density cutoff     =     320.0000  Ry
     convergence threshold     =      1.0E-08
     mixing beta               =       0.7000
     number of iterations used =            8  local-TF  mixing
     Exchange-correlation      =  SLA  PW   PBE  PBE ( 1  4  3  4 0 0)
     nstep                     =           50


     celldm(1)=  13.942539  celldm(2)=   0.000000  celldm(3)=   0.000000
     celldm(4)=   0.000000  celldm(5)=   0.000000  celldm(6)=   0.000000

     crystal axes: (cart. coord. in units of alat)
               a(1) = (   1.000000   0.000000   0.000000 )  
               a(2) = (   0.000000   2.309401   0.000000 )  
               a(3) = (   0.000000   0.000000   3.388418 )  

     reciprocal axes: (cart. coord. in units 2 pi/alat)
               b(1) = (  1.000000  0.000000  0.000000 )  
               b(2) = (  0.000000  0.433013  0.000000 )  
               b(3) = (  0.000000  0.000000  0.295123 )  


     PseudoPot. # 1 for Cu read from file:
     /home/549/hxw549/Short/pseudopotentials/Cu.pbe-n-van_ak.UPF
     MD5 check sum: 601f7c30f7467666bec936e0661ce3e1
     Pseudo is Ultrasoft + core correction, Zval = 11.0
     Generated by new atomic code, or converted to UPF format
     Using radial grid of  867 points,  6 beta functions with: 
                l(1) =   0
                l(2) =   0
                l(3) =   1
                l(4) =   1
                l(5) =   2
                l(6) =   2
     Q(r) pseudized with  8 coefficients,  rinner =    1.400   1.400   1.400
                                                       1.400   1.400

     PseudoPot. # 2 for C  read from file:
     /home/549/hxw549/Short/pseudopotentials/C.pbe-mt_gipaw.UPF
     MD5 check sum: 5ac2f21f2c440b14befe521540822c15
     Pseudo is Norm-conserving, Zval =  4.0
     Generated by new atomic code, or converted to UPF format
     Using radial grid of 1073 points,  1 beta functions with: 
                l(1) =   0

     PseudoPot. # 3 for H  read from file:
     /home/549/hxw549/Short/pseudopotentials/H.pbe-van_ak.UPF
     MD5 check sum: 077eb6d537518a38cb46c6de387227b7
     Pseudo is Ultrasoft, Zval =  1.0
     Generated by new atomic code, or converted to UPF format
     Using radial grid of  615 points,  1 beta functions with: 
                l(1) =   0
     Q(r) pseudized with  8 coefficients,  rinner =    0.800

     atomic species   valence    mass     pseudopotential
        Cu            11.00    63.54600     Cu( 1.00)
        C              4.00    12.01070     C ( 1.00)
        H              1.00     1.00783     H ( 1.00)

     No symmetry found



   Cartesian axes

     site n.     atom                  positions (alat units)
         1           Cu  tau(   1) = (  -0.0000015  -0.0024204   0.9955343  )
         2           Cu  tau(   2) = (   0.2500275   0.2261466   0.9926039  )
         3           Cu  tau(   3) = (   0.5000333  -0.0060491   0.9916474  )
         4           Cu  tau(   4) = (   0.7500380   0.2261051   0.9925079  )
         5           Cu  tau(   5) = (   0.0000649   0.4585919   0.9928592  )
         6           Cu  tau(   6) = (   0.2505670   0.6923086   0.9967128  )
         7           Cu  tau(   7) = (   0.5000529   0.4604481   0.9960226  )
         8           Cu  tau(   8) = (   0.7495919   0.6923553   0.9967526  )
         9           Cu  tau(   9) = (   0.0000891   0.9233953   0.9973378  )
        10           Cu  tau(  10) = (   0.2506182   1.1546979   0.9966436  )
        11           Cu  tau(  11) = (   0.5000987   0.9234989   0.9981193  )
        12           Cu  tau(  12) = (   0.7495252   1.1546561   0.9966695  )
        13           Cu  tau(  13) = (   0.0000263   1.3889745   0.9921573  )
        14           Cu  tau(  14) = (   0.2498544   1.6220806   0.9915067  )
        15           Cu  tau(  15) = (   0.5000675   1.3869292   0.9956733  )
        16           Cu  tau(  16) = (   0.7501920   1.6221301   0.9914637  )
        17           Cu  tau(  17) = (   0.0000322   1.8504586   0.9952439  )
        18           Cu  tau(  18) = (   0.2486896   2.0787682   0.9955142  )
        19           Cu  tau(  19) = (   0.4999858   1.8548851   0.9900809  )
        20           Cu  tau(  20) = (   0.7513258   2.0787531   0.9956200  )
        21           Cu  tau(  21) = (   0.0000853   0.2245086   1.2427975  )
        22           Cu  tau(  22) = (   0.2492361  -0.0044423   1.2454437  )
        23           Cu  tau(  23) = (   0.5000778   0.2208680   1.2377039  )
        24           Cu  tau(  24) = (   0.7508887  -0.0043039   1.2455840  )
        25           Cu  tau(  25) = (   0.0001655   0.6872337   1.2410696  )
        26           Cu  tau(  26) = (   0.2501398   0.4537288   1.2395875  )
        27           Cu  tau(  27) = (   0.5001995   0.6894300   1.2458483  )
        28           Cu  tau(  28) = (   0.7501082   0.4537452   1.2395542  )
        29           Cu  tau(  29) = (   0.0001427   1.1603905   1.2401391  )
        30           Cu  tau(  30) = (   0.2510754   0.9236341   1.2460446  )
        31           Cu  tau(  31) = (   0.5001937   1.1581862   1.2452588  )
        32           Cu  tau(  32) = (   0.7493763   0.9236209   1.2461182  )
        33           Cu  tau(  33) = (   0.0000605   1.6235853   1.2423881  )
        34           Cu  tau(  34) = (   0.2500529   1.3949137   1.2380283  )
        35           Cu  tau(  35) = (   0.5000668   1.6278163   1.2360804  )
        36           Cu  tau(  36) = (   0.7501451   1.3948593   1.2380936  )
        37           Cu  tau(  37) = (   0.0000061   2.0786936   1.2474847  )
        38           Cu  tau(  38) = (   0.2489351   1.8523347   1.2453515  )
        39           Cu  tau(  39) = (   0.5000938   2.0782960   1.2469577  )
        40           Cu  tau(  40) = (   0.7511732   1.8522186   1.2454389  )
        41           Cu  tau(  41) = (   0.0000940  -0.0051877   1.5001736  )
        42           Cu  tau(  42) = (   0.2486504   0.2223514   1.4956260  )
        43           Cu  tau(  43) = (   0.5002081  -0.0039026   1.4977540  )
        44           Cu  tau(  44) = (   0.7517283   0.2225652   1.4958505  )
        45           Cu  tau(  45) = (   0.0002257   0.4504982   1.4923057  )
        46           Cu  tau(  46) = (   0.2485294   0.6808944   1.4871117  )
        47           Cu  tau(  47) = (   0.5001714   0.4449611   1.4843564  )
        48           Cu  tau(  48) = (   0.7520401   0.6809532   1.4872790  )
        49           Cu  tau(  49) = (   0.0001363   0.9244062   1.4817901  )
        50           Cu  tau(  50) = (   0.2487229   1.1686556   1.4852807  )
        51           Cu  tau(  51) = (   0.5004117   0.9242717   1.4905383  )
        52           Cu  tau(  52) = (   0.7518284   1.1684615   1.4854946  )
        53           Cu  tau(  53) = (   0.0001631   1.3980627   1.4913445  )
        54           Cu  tau(  54) = (   0.2483672   1.6258267   1.4951045  )
        55           Cu  tau(  55) = (   0.5001701   1.4033169   1.4830164  )
        56           Cu  tau(  56) = (   0.7519445   1.6256543   1.4953133  )
        57           Cu  tau(  57) = (   0.0001031   1.8529104   1.5004618  )
        58           Cu  tau(  58) = (   0.2508530   2.0784093   1.5013893  )
        59           Cu  tau(  59) = (   0.5001729   1.8506736   1.4982356  )
        60           Cu  tau(  60) = (   0.7494192   2.0783795   1.5013552  )
        61           Cu  tau(  61) = (   0.0001277   0.2233865   1.7545442  )
        62           Cu  tau(  62) = (   0.2507393  -0.0030275   1.7552144  )
        63           Cu  tau(  63) = (   0.5003565   0.2233537   1.7467786  )
        64           Cu  tau(  64) = (   0.7497530  -0.0031493   1.7552252  )
        65           Cu  tau(  65) = (   0.0004578   0.6849994   1.7357285  )
        66           Cu  tau(  66) = (   0.2478565   0.4514557   1.7469954  )
        67           Cu  tau(  67) = (   0.5003999   0.6701108   1.7179273  )
        68           Cu  tau(  68) = (   0.7528026   0.4518815   1.7474058  )
        69           Cu  tau(  69) = (   0.0002765   1.1657924   1.7335111  )
        70           Cu  tau(  70) = (   0.2416135   0.9263212   1.7136159  )
        71           Cu  tau(  71) = (   0.5003230   1.1800831   1.7168179  )
        72           Cu  tau(  72) = (   0.7590506   0.9260575   1.7139717  )
        73           Cu  tau(  73) = (   0.0001537   1.6244970   1.7556294  )
        74           Cu  tau(  74) = (   0.2478210   1.3991417   1.7447855  )
        75           Cu  tau(  75) = (   0.5003318   1.6229777   1.7479737  )
        76           Cu  tau(  76) = (   0.7527697   1.3988215   1.7452146  )
        77           Cu  tau(  77) = (   0.0003014   2.0783221   1.7565933  )
        78           Cu  tau(  78) = (   0.2510811   1.8501914   1.7554079  )
        79           Cu  tau(  79) = (   0.5001913   2.0784328   1.7550924  )
        80           Cu  tau(  80) = (   0.7493943   1.8503121   1.7554054  )
        81           Cu  tau(  81) = (   0.0003099  -0.0026773   2.0093217  )
        82           Cu  tau(  82) = (   0.2492135   0.2286657   2.0064165  )
        83           Cu  tau(  83) = (   0.5002543  -0.0005060   2.0070772  )
        84           Cu  tau(  84) = (   0.7513270   0.2287505   2.0064913  )
        85           Cu  tau(  85) = (   0.0005795   0.4676815   1.9981227  )
        86           Cu  tau(  86) = (   0.2536842   0.6985157   1.9684575  )
        87           Cu  tau(  87) = (   0.5003009   0.4556235   1.9879459  )
        88           Cu  tau(  88) = (   0.7478455   0.6986202   1.9685836  )
        89           Cu  tau(  89) = (   0.0010996   0.9264284   1.9651688  )
        90           Cu  tau(  90) = (   0.2518285   1.1566909   1.9677312  )
        91           Cu  tau(  91) = (   0.5003538   0.9285369   1.9094495  )
        92           Cu  tau(  92) = (   0.7490271   1.1558714   1.9680819  )
        93           Cu  tau(  93) = (   0.0002496   1.3822440   2.0029583  )
        94           Cu  tau(  94) = (   0.2490988   1.6186846   2.0073698  )
        95           Cu  tau(  95) = (   0.5004461   1.3898608   1.9906536  )
        96           Cu  tau(  96) = (   0.7514427   1.6187407   2.0074177  )
        97           Cu  tau(  97) = (   0.0002510   1.8503873   2.0097255  )
        98           Cu  tau(  98) = (   0.2512935   2.0782924   2.0080862  )
        99           Cu  tau(  99) = (   0.5003169   1.8475160   2.0065987  )
       100           Cu  tau( 100) = (   0.7493099   2.0783576   2.0080999  )
       101           C   tau( 101) = (  -0.0000608   0.0982181   2.4291202  )
       102           C   tau( 102) = (   0.0001862   0.2908728   2.4435751  )
       103           C   tau( 103) = (   0.1664858   0.0014584   2.4295838  )
       104           C   tau( 104) = (   0.1666805   0.3868225   2.4558603  )
       105           C   tau( 105) = (   0.3333886   0.0976389   2.4343078  )
       106           C   tau( 106) = (   0.3331851   0.2905830   2.4455480  )
       107           C   tau( 107) = (   0.5000987   0.0006374   2.4342062  )
       108           C   tau( 108) = (   0.5000123   0.3874436   2.4570967  )
       109           C   tau( 109) = (   0.6665689   0.0979443   2.4338747  )
       110           C   tau( 110) = (   0.6667865   0.2907152   2.4451739  )
       111           C   tau( 111) = (   0.8334848   0.0014077   2.4294839  )
       112           C   tau( 112) = (   0.8329584   0.3872375   2.4558297  )
       113           C   tau( 113) = (  -0.0002207   0.6736973   2.5009867  )
       114           C   tau( 114) = (  -0.0000322   0.8660043   2.5165764  )
       115           C   tau( 115) = (   0.1670624   0.5774270   2.4879952  )
       116           C   tau( 116) = (   0.1663398   0.9631188   2.5218890  )
       117           C   tau( 117) = (   0.3326428   0.6726485   2.5109829  )
       118           C   tau( 118) = (   0.3325021   0.8657975   2.5339551  )
       119           C   tau( 119) = (   0.4999778   0.5780462   2.4909309  )
       120           C   tau( 120) = (   0.4998130   0.9631516   2.5346241  )
       121           C   tau( 121) = (   0.6670126   0.6726915   2.5106035  )
       122           C   tau( 122) = (   0.6669844   0.8659044   2.5341393  )
       123           C   tau( 123) = (   0.8332598   0.5779004   2.4870022  )
       124           C   tau( 124) = (   0.8329488   0.9633182   2.5211388  )
       125           C   tau( 125) = (  -0.0004731   1.2506313   2.4809079  )
       126           C   tau( 126) = (   0.0001001   1.4414721   2.4530620  )
       127           C   tau( 127) = (   0.1670946   1.1553012   2.4982835  )
       128           C   tau( 128) = (   0.1664882   1.5374836   2.4414236  )
       129           C   tau( 129) = (   0.3334389   1.2509147   2.4854708  )
       130           C   tau( 130) = (   0.3337304   1.4417370   2.4540853  )
       131           C   tau( 131) = (   0.4998893   1.1551949   2.5065386  )
       132           C   tau( 132) = (   0.4999122   1.5386922   2.4447245  )
       133           C   tau( 133) = (   0.6663875   1.2513190   2.4863846  )
       134           C   tau( 134) = (   0.6662439   1.4419941   2.4538378  )
       135           C   tau( 135) = (   0.8334030   1.1553373   2.4985499  )
       136           C   tau( 136) = (   0.8331987   1.5376208   2.4417683  )
       137           C   tau( 137) = (   0.0000408   1.8271355   2.4269764  )
       138           C   tau( 138) = (   0.0001799   2.0202898   2.4287111  )
       139           C   tau( 139) = (   0.1667672   1.7300783   2.4297685  )
       140           C   tau( 140) = (   0.1664884   2.1174951   2.4297376  )
       141           C   tau( 141) = (   0.3330188   1.8275273   2.4331592  )
       142           C   tau( 142) = (   0.3331879   2.0204555   2.4321067  )
       143           C   tau( 143) = (   0.5000057   1.7313691   2.4371976  )
       144           C   tau( 144) = (   0.5000726   2.1169434   2.4338331  )
       145           C   tau( 145) = (   0.6668795   1.8276385   2.4336578  )
       146           C   tau( 146) = (   0.6670188   2.0205179   2.4321924  )
       147           C   tau( 147) = (   0.8333851   1.7304066   2.4307175  )
       148           C   tau( 148) = (   0.8335876   2.1174441   2.4297400  )
       149           H   tau( 149) = (   0.3374313   1.0210557   2.2156486  )
       150           H   tau( 150) = (   0.3407116   0.7781372   2.2114142  )
       151           C   tau( 151) = (   0.4052046   0.9019986   2.1626990  )
       152           C   tau( 152) = (   0.6004632   0.9032451   2.1606194  )
       153           H   tau( 153) = (   0.6665535   1.0230426   2.2142355  )
       154           H   tau( 154) = (   0.6664745   0.7802102   2.2100816  )

     number of k points=     6  gaussian smearing, width (Ry)=  0.1000
                       cart. coord. in units 2pi/alat
        k(    1) = (   0.0000000   0.0000000   0.0000000), wk =   0.2500000
        k(    2) = (   0.0000000  -0.2165064   0.0000000), wk =   0.2500000
        k(    3) = (   0.2500000   0.0000000   0.0000000), wk =   0.5000000
        k(    4) = (   0.2500000  -0.2165064   0.0000000), wk =   0.5000000
        k(    5) = (  -0.5000000   0.0000000   0.0000000), wk =   0.2500000
        k(    6) = (  -0.5000000  -0.2165064   0.0000000), wk =   0.2500000

     Dense  grid:  2050409 G-vectors     FFT dimensions: (  80, 192, 270)

     Largest allocated arrays     est. size (Mb)     dimensions
        Kohn-Sham Wavefunctions        54.94 Mb     (    4604,  782)
        NL pseudopotentials           130.25 Mb     (    4604, 1854)
        Each V/rho on FFT grid          1.17 Mb     (   76800)
        Each G-vector array             0.28 Mb     (   36616)
        G-vector shells                 0.14 Mb     (   17932)
     Largest temporary arrays     est. size (Mb)     dimensions
        Auxiliary wavefunctions       219.75 Mb     (    4604, 3128)
        Each subspace H/S matrix        5.96 Mb     (     625,  625)
        Each <psi_i|beta_j> matrix     22.12 Mb     (    1854,  782)
        Arrays for rho mixing           9.38 Mb     (   76800,    8)

     Initial potential from superposition of free atoms
     Check: negative starting charge=   -0.001716

     starting charge 1277.81747, renormalised to 1304.00000

     negative rho (up, down):  1.751E-03 0.000E+00
     Starting wfc are 1304 randomized atomic wfcs

     total cpu time spent up to now is      106.9 secs

     Self-consistent Calculation

     iteration #  1     ecut=    80.00 Ry     beta=0.70
     Davidson diagonalization with overlap
     c_bands:  2 eigenvalues not converged
     c_bands:  5 eigenvalues not converged
     c_bands:  3 eigenvalues not converged
     c_bands:  2 eigenvalues not converged
     c_bands:  3 eigenvalues not converged
     c_bands:  4 eigenvalues not converged
     ethr =  1.00E-04,  avg # of iterations = 40.0

     negative rho (up, down):  2.702E+01 0.000E+00

     total cpu time spent up to now is     2265.3 secs

     total energy              =   -9617.52350823 Ry
     Harris-Foulkes estimate   =  -17807.39609933 Ry
     estimated scf accuracy    <  200087.88548804 Ry

     iteration #  2     ecut=    80.00 Ry     beta=0.70
     Davidson diagonalization with overlap
     ethr =  1.00E-02,  avg # of iterations = 13.5

     negative rho (up, down):  3.183E+01 0.000E+00

     total cpu time spent up to now is     3229.2 secs

     total energy              =  -11930.81280649 Ry
     Harris-Foulkes estimate   =  -13775.87546579 Ry
     estimated scf accuracy    <   31735.45232833 Ry

     iteration #  3     ecut=    80.00 Ry     beta=0.70
     Davidson diagonalization with overlap
     c_bands:  5 eigenvalues not converged
     c_bands:  1 eigenvalues not converged
     ethr =  1.00E-02,  avg # of iterations = 22.8

     negative rho (up, down):  3.227E+01 0.000E+00

     total cpu time spent up to now is     4314.5 secs

     total energy              =  -12104.51621868 Ry
     Harris-Foulkes estimate   =  -13696.26968044 Ry
     estimated scf accuracy    <    6966.96433680 Ry

     iteration #  4     ecut=    80.00 Ry     beta=0.70
     Davidson diagonalization with overlap
     ethr =  1.00E-02,  avg # of iterations =  4.3

     negative rho (up, down):  2.267E+01 0.000E+00

     total cpu time spent up to now is     4793.6 secs

     total energy              =  -12894.74240623 Ry
     Harris-Foulkes estimate   =  -13085.06908459 Ry
     estimated scf accuracy    <     887.52542070 Ry

     iteration #  5     ecut=    80.00 Ry     beta=0.70
     Davidson diagonalization with overlap
     ethr =  1.00E-02,  avg # of iterations =  3.0

     negative rho (up, down):  2.070E+01 0.000E+00

     total cpu time spent up to now is     5037.2 secs

     total energy              =  -12898.25925822 Ry
     Harris-Foulkes estimate   =  -12953.20417134 Ry
     estimated scf accuracy    <    2549.57433440 Ry

     iteration #  6     ecut=    80.00 Ry     beta=0.70
     Davidson diagonalization with overlap
     ethr =  1.00E-02,  avg # of iterations =  1.0

     negative rho (up, down):  1.602E+01 0.000E+00

     total cpu time spent up to now is     5205.4 secs

     total energy              =  -12859.99505978 Ry
     Harris-Foulkes estimate   =  -12926.89835523 Ry
     estimated scf accuracy    <     873.84877826 Ry

     iteration #  7     ecut=    80.00 Ry     beta=0.70
     Davidson diagonalization with overlap
     ethr =  1.00E-02,  avg # of iterations =  2.2

     negative rho (up, down):  9.476E+00 0.000E+00

     total cpu time spent up to now is     5391.3 secs

     total energy              =  -12829.00245422 Ry
     Harris-Foulkes estimate   =  -12890.70612335 Ry
     estimated scf accuracy    <     643.29687746 Ry

     iteration #  8     ecut=    80.00 Ry     beta=0.70
     Davidson diagonalization with overlap
     ethr =  1.00E-02,  avg # of iterations =  2.2

     negative rho (up, down):  7.246E+00 0.000E+00

     total cpu time spent up to now is     5573.1 secs

     total energy              =  -12815.52148652 Ry
     Harris-Foulkes estimate   =  -12846.15127891 Ry
     estimated scf accuracy    <     447.50409904 Ry

     iteration #  9     ecut=    80.00 Ry     beta=0.70
     Davidson diagonalization with overlap
     ethr =  1.00E-02,  avg # of iterations =  2.0

     negative rho (up, down):  6.020E+00 0.000E+00

     total cpu time spent up to now is     5750.7 secs

     total energy              =  -12805.77192637 Ry
     Harris-Foulkes estimate   =  -12824.70152138 Ry
     estimated scf accuracy    <     440.26520569 Ry

     iteration # 10     ecut=    80.00 Ry     beta=0.70
     Davidson diagonalization with overlap
     ethr =  1.00E-02,  avg # of iterations =  1.3

     negative rho (up, down):  4.207E+00 0.000E+00

     total cpu time spent up to now is     5920.7 secs

     total energy              =  -12787.89351522 Ry
     Harris-Foulkes estimate   =  -12810.85228888 Ry
     estimated scf accuracy    <     305.88375275 Ry

     iteration # 11     ecut=    80.00 Ry     beta=0.70
     Davidson diagonalization with overlap
     ethr =  1.00E-02,  avg # of iterations =  2.2

     negative rho (up, down):  1.317E+00 0.000E+00

     total cpu time spent up to now is     6100.9 secs

     total energy              =  -12741.76008783 Ry
     Harris-Foulkes estimate   =  -12797.35038833 Ry
     estimated scf accuracy    <     302.93361320 Ry

     iteration # 12     ecut=    80.00 Ry     beta=0.70
     Davidson diagonalization with overlap
     ethr =  1.00E-02,  avg # of iterations =  3.0

     negative rho (up, down):  9.521E-01 0.000E+00

     total cpu time spent up to now is     6296.5 secs

     total energy              =  -12743.25028129 Ry
     Harris-Foulkes estimate   =  -12765.32724053 Ry
     estimated scf accuracy    <     515.42321033 Ry

     iteration # 13     ecut=    80.00 Ry     beta=0.70
     Davidson diagonalization with overlap
     ethr =  1.00E-02,  avg # of iterations =  2.0

     negative rho (up, down):  1.279E+00 0.000E+00

     total cpu time spent up to now is     6477.4 secs

     total energy              =  -12743.27475320 Ry
     Harris-Foulkes estimate   =  -12764.93076339 Ry
     estimated scf accuracy    <      87.63275318 Ry

     iteration # 14     ecut=    80.00 Ry     beta=0.70
     Davidson diagonalization with overlap
     ethr =  6.72E-03,  avg # of iterations =  1.0

     negative rho (up, down):  1.110E+00 0.000E+00

     total cpu time spent up to now is     6644.8 secs

     total energy              =  -12740.87079663 Ry
     Harris-Foulkes estimate   =  -12747.27785243 Ry
     estimated scf accuracy    <      82.17255700 Ry

     iteration # 15     ecut=    80.00 Ry     beta=0.70
     Davidson diagonalization with overlap
     ethr =  6.30E-03,  avg # of iterations =  2.0

     negative rho (up, down):  3.153E+00 0.000E+00

     total cpu time spent up to now is     6822.2 secs

     total energy              =  -12735.25871269 Ry
     Harris-Foulkes estimate   =  -12745.28424874 Ry
     estimated scf accuracy    <      48.72464468 Ry

     iteration # 16     ecut=    80.00 Ry     beta=0.70
     Davidson diagonalization with overlap
     ethr =  3.74E-03,  avg # of iterations =  2.0

     negative rho (up, down):  4.903E+00 0.000E+00

     total cpu time spent up to now is     7000.3 secs

     total energy              =  -12733.17304177 Ry
     Harris-Foulkes estimate   =  -12738.55368972 Ry
     estimated scf accuracy    <      43.51878993 Ry

     iteration # 17     ecut=    80.00 Ry     beta=0.70
     Davidson diagonalization with overlap
     ethr =  3.34E-03,  avg # of iterations =  2.0

     negative rho (up, down):  4.230E+00 0.000E+00

     total cpu time spent up to now is     7179.2 secs

     total energy              =  -12733.75197252 Ry
     Harris-Foulkes estimate   =  -12735.58087446 Ry
     estimated scf accuracy    <      18.32042751 Ry

     iteration # 18     ecut=    80.00 Ry     beta=0.70
     Davidson diagonalization with overlap
     ethr =  1.40E-03,  avg # of iterations =  1.0

     negative rho (up, down):  3.729E+00 0.000E+00

     total cpu time spent up to now is     7346.2 secs

     total energy              =  -12732.91267163 Ry
     Harris-Foulkes estimate   =  -12734.09057293 Ry
     estimated scf accuracy    <      12.12185283 Ry

     iteration # 19     ecut=    80.00 Ry     beta=0.70
     Davidson diagonalization with overlap
     ethr =  9.30E-04,  avg # of iterations =  4.7

     negative rho (up, down):  3.143E+00 0.000E+00

     total cpu time spent up to now is     7555.9 secs

     total energy              =  -12731.94558462 Ry
     Harris-Foulkes estimate   =  -12733.14649453 Ry
     estimated scf accuracy    <      10.98071603 Ry

     iteration # 20     ecut=    80.00 Ry     beta=0.70
     Davidson diagonalization with overlap
     ethr =  8.42E-04,  avg # of iterations =  6.2

     negative rho (up, down):  2.567E+00 0.000E+00

     total cpu time spent up to now is     7785.9 secs

     total energy              =  -12731.24758278 Ry
     Harris-Foulkes estimate   =  -12732.20862912 Ry
     estimated scf accuracy    <       9.50586220 Ry

     iteration # 21     ecut=    80.00 Ry     beta=0.70
     Davidson diagonalization with overlap
     ethr =  7.29E-04,  avg # of iterations =  2.2

     negative rho (up, down):  2.148E+00 0.000E+00

     total cpu time spent up to now is     7965.5 secs

     total energy              =  -12729.75112679 Ry
     Harris-Foulkes estimate   =  -12731.38438069 Ry
     estimated scf accuracy    <       9.80598247 Ry

     iteration # 22     ecut=    80.00 Ry     beta=0.70
     Davidson diagonalization with overlap
     ethr =  7.29E-04,  avg # of iterations =  4.8

     negative rho (up, down):  2.428E+00 0.000E+00

     total cpu time spent up to now is     8178.7 secs

     total energy              =  -12729.64046964 Ry
     Harris-Foulkes estimate   =  -12730.00993836 Ry
     estimated scf accuracy    <      12.39955966 Ry

     iteration # 23     ecut=    80.00 Ry     beta=0.70
     Davidson diagonalization with overlap
     ethr =  7.29E-04,  avg # of iterations =  1.0

     negative rho (up, down):  8.322E-01 0.000E+00

     total cpu time spent up to now is     8345.7 secs

     total energy              =  -12728.06667945 Ry
     Harris-Foulkes estimate   =  -12729.83004542 Ry
     estimated scf accuracy    <       5.83732378 Ry

     iteration # 24     ecut=    80.00 Ry     beta=0.70
     Davidson diagonalization with overlap
     ethr =  4.48E-04,  avg # of iterations =  8.0

     negative rho (up, down):  1.017E+00 0.000E+00

     total cpu time spent up to now is     8596.7 secs

     total energy              =  -12726.76728203 Ry
     Harris-Foulkes estimate   =  -12728.37887232 Ry
     estimated scf accuracy    <       7.91051780 Ry

     iteration # 25     ecut=    80.00 Ry     beta=0.70
     Davidson diagonalization with overlap
     ethr =  4.48E-04,  avg # of iterations =  6.7

     negative rho (up, down):  9.732E-01 0.000E+00

     total cpu time spent up to now is     8839.5 secs

     total energy              =  -12726.45385961 Ry
     Harris-Foulkes estimate   =  -12727.19534830 Ry
     estimated scf accuracy    <       6.53547495 Ry

     iteration # 26     ecut=    80.00 Ry     beta=0.70
     Davidson diagonalization with overlap
     ethr =  4.48E-04,  avg # of iterations =  4.8

     negative rho (up, down):  6.974E-01 0.000E+00

     total cpu time spent up to now is     9053.8 secs

     total energy              =  -12726.28315632 Ry
     Harris-Foulkes estimate   =  -12726.70829177 Ry
     estimated scf accuracy    <       2.61653025 Ry

     iteration # 27     ecut=    80.00 Ry     beta=0.70
     Davidson diagonalization with overlap
     ethr =  2.01E-04,  avg # of iterations =  7.2

     negative rho (up, down):  7.262E-01 0.000E+00

     total cpu time spent up to now is     9297.1 secs

     total energy              =  -12726.28725556 Ry
     Harris-Foulkes estimate   =  -12726.46075805 Ry
     estimated scf accuracy    <       0.67459304 Ry

     iteration # 28     ecut=    80.00 Ry     beta=0.70
     Davidson diagonalization with overlap
     ethr =  5.17E-05,  avg # of iterations =  6.7

     negative rho (up, down):  5.327E-01 0.000E+00

     total cpu time spent up to now is     9551.5 secs

     total energy              =  -12726.23203007 Ry
     Harris-Foulkes estimate   =  -12726.31658900 Ry
     estimated scf accuracy    <       0.33768097 Ry

     iteration # 29     ecut=    80.00 Ry     beta=0.70
     Davidson diagonalization with overlap
     ethr =  2.59E-05,  avg # of iterations =  8.3

     negative rho (up, down):  5.810E-01 0.000E+00

     total cpu time spent up to now is     9826.6 secs

     total energy              =  -12726.23911404 Ry
     Harris-Foulkes estimate   =  -12726.24978936 Ry
     estimated scf accuracy    <       0.18807280 Ry

     iteration # 30     ecut=    80.00 Ry     beta=0.70
     Davidson diagonalization with overlap
     ethr =  1.44E-05,  avg # of iterations =  7.0

     negative rho (up, down):  1.374E-01 0.000E+00

     total cpu time spent up to now is    10076.8 secs

     total energy              =  -12726.22634037 Ry
     Harris-Foulkes estimate   =  -12726.24640389 Ry
     estimated scf accuracy    <       0.06686102 Ry

     iteration # 31     ecut=    80.00 Ry     beta=0.70
     Davidson diagonalization with overlap
     c_bands:  1 eigenvalues not converged
     ethr =  5.13E-06,  avg # of iterations = 12.8

     negative rho (up, down):  7.844E-02 0.000E+00

     total cpu time spent up to now is    10429.6 secs

     total energy              =  -12726.22956671 Ry
     Harris-Foulkes estimate   =  -12726.23182885 Ry
     estimated scf accuracy    <       0.03125542 Ry

     iteration # 32     ecut=    80.00 Ry     beta=0.70
     Davidson diagonalization with overlap
     ethr =  2.40E-06,  avg # of iterations = 12.7

     negative rho (up, down):  3.497E-02 0.000E+00

     total cpu time spent up to now is    10760.2 secs

     total energy              =  -12726.22975574 Ry
     Harris-Foulkes estimate   =  -12726.23213584 Ry
     estimated scf accuracy    <       0.00975021 Ry

     iteration # 33     ecut=    80.00 Ry     beta=0.70
     Davidson diagonalization with overlap
     c_bands:  1 eigenvalues not converged
     c_bands:  2 eigenvalues not converged
     c_bands:  2 eigenvalues not converged
     ethr =  7.48E-07,  avg # of iterations = 17.2

     negative rho (up, down):  1.712E-02 0.000E+00

     total cpu time spent up to now is    11153.4 secs

     total energy              =  -12726.23004300 Ry
     Harris-Foulkes estimate   =  -12726.23054822 Ry
     estimated scf accuracy    <       0.00251935 Ry

     iteration # 34     ecut=    80.00 Ry     beta=0.70
     Davidson diagonalization with overlap
     ethr =  1.93E-07,  avg # of iterations = 11.3

     negative rho (up, down):  2.076E-02 0.000E+00

     total cpu time spent up to now is    11467.2 secs

     total energy              =  -12726.23025150 Ry
     Harris-Foulkes estimate   =  -12726.23026136 Ry
     estimated scf accuracy    <       0.00089639 Ry

     iteration # 35     ecut=    80.00 Ry     beta=0.70
     Davidson diagonalization with overlap
     ethr =  6.87E-08,  avg # of iterations =  9.5

     negative rho (up, down):  8.875E-03 0.000E+00

     total cpu time spent up to now is    11757.9 secs

     total energy              =  -12726.23009802 Ry
     Harris-Foulkes estimate   =  -12726.23034982 Ry
     estimated scf accuracy    <       0.00026955 Ry

     iteration # 36     ecut=    80.00 Ry     beta=0.70
     Davidson diagonalization with overlap
     c_bands:  2 eigenvalues not converged
     ethr =  2.07E-08,  avg # of iterations = 14.0

     negative rho (up, down):  5.442E-03 0.000E+00

     total cpu time spent up to now is    12105.0 secs

     total energy              =  -12726.23004772 Ry
     Harris-Foulkes estimate   =  -12726.23012427 Ry
     estimated scf accuracy    <       0.00009023 Ry

     iteration # 37     ecut=    80.00 Ry     beta=0.70
     Davidson diagonalization with overlap
     ethr =  6.92E-09,  avg # of iterations =  9.5

     negative rho (up, down):  4.274E-03 0.000E+00

     total cpu time spent up to now is    12392.7 secs

     total energy              =  -12726.23002905 Ry
     Harris-Foulkes estimate   =  -12726.23005694 Ry
     estimated scf accuracy    <       0.00004273 Ry

     iteration # 38     ecut=    80.00 Ry     beta=0.70
     Davidson diagonalization with overlap
     ethr =  3.28E-09,  avg # of iterations =  3.5

     negative rho (up, down):  2.448E-03 0.000E+00

     total cpu time spent up to now is    12596.6 secs

     total energy              =  -12726.23001195 Ry
     Harris-Foulkes estimate   =  -12726.23003218 Ry
     estimated scf accuracy    <       0.00001157 Ry

     iteration # 39     ecut=    80.00 Ry     beta=0.70
     Davidson diagonalization with overlap
     ethr =  8.88E-10,  avg # of iterations =  6.2

     negative rho (up, down):  1.915E-03 0.000E+00

     total cpu time spent up to now is    12850.4 secs

     total energy              =  -12726.23001056 Ry
     Harris-Foulkes estimate   =  -12726.23001365 Ry
     estimated scf accuracy    <       0.00001088 Ry

     iteration # 40     ecut=    80.00 Ry     beta=0.70
     Davidson diagonalization with overlap
     ethr =  8.34E-10,  avg # of iterations =  2.0

     negative rho (up, down):  1.879E-03 0.000E+00

     total cpu time spent up to now is    13032.2 secs

     total energy              =  -12726.23001071 Ry
     Harris-Foulkes estimate   =  -12726.23001111 Ry
     estimated scf accuracy    <       0.00000301 Ry

     iteration # 41     ecut=    80.00 Ry     beta=0.70
     Davidson diagonalization with overlap
     ethr =  2.31E-10,  avg # of iterations =  2.0

     negative rho (up, down):  1.826E-03 0.000E+00

     total cpu time spent up to now is    13216.3 secs

     total energy              =  -12726.23001080 Ry
     Harris-Foulkes estimate   =  -12726.23001087 Ry
     estimated scf accuracy    <       0.00000058 Ry

     iteration # 42     ecut=    80.00 Ry     beta=0.70
     Davidson diagonalization with overlap
     ethr =  4.46E-11,  avg # of iterations =  2.5

     negative rho (up, down):  1.781E-03 0.000E+00

     total cpu time spent up to now is    13406.9 secs

     total energy              =  -12726.23001083 Ry
     Harris-Foulkes estimate   =  -12726.23001086 Ry
     estimated scf accuracy    <       0.00000020 Ry

     iteration # 43     ecut=    80.00 Ry     beta=0.70
     Davidson diagonalization with overlap
     ethr =  1.54E-11,  avg # of iterations =  2.2

     negative rho (up, down):  1.733E-03 0.000E+00

     total cpu time spent up to now is    13600.9 secs

     total energy              =  -12726.23001087 Ry
     Harris-Foulkes estimate   =  -12726.23001086 Ry
     estimated scf accuracy    <       0.00000005 Ry

     iteration # 44     ecut=    80.00 Ry     beta=0.70
     Davidson diagonalization with overlap
     ethr =  3.92E-12,  avg # of iterations =  2.3

     negative rho (up, down):  1.720E-03 0.000E+00

     total cpu time spent up to now is    13806.0 secs

     total energy              =  -12726.23001089 Ry
     Harris-Foulkes estimate   =  -12726.23001088 Ry
     estimated scf accuracy    <       0.00000002 Ry

     iteration # 45     ecut=    80.00 Ry     beta=0.70
     Davidson diagonalization with overlap
     ethr =  1.43E-12,  avg # of iterations =  2.0

     negative rho (up, down):  1.706E-03 0.000E+00

     total cpu time spent up to now is    13997.2 secs

     End of self-consistent calculation

          k = 0.0000 0.0000 0.0000 (256287 PWs)   bands (ev):

   -15.8287 -15.4660 -15.4510 -14.3634 -14.3599 -13.8674 -13.8605 -13.5137
   -13.5083 -13.5006 -13.4919 -12.5925 -12.5745 -12.4620 -12.4491 -12.4458
   -12.4355 -12.1419 -10.7752 -10.7645 -10.7613 -10.7572 -10.6095  -9.5409
    -8.9323  -8.9191  -8.8535  -8.8514  -8.0715  -7.9828  -7.9761  -7.9680
    -7.8876  -7.0539  -7.0420  -6.9245  -6.9179  -6.9110  -6.9016  -6.8923
    -6.8892  -5.6332  -5.3871  -5.3830  -5.3718  -5.3676  -5.2556  -5.2439
    -5.2409  -5.2275  -5.1906  -5.1143  -5.0160  -4.5683  -4.5485  -4.1048
    -4.1000  -4.0911  -3.9988  -3.9194  -3.8106  -3.8043  -3.6280  -3.6050
    -3.5462  -3.2780  -3.0176  -3.0131  -2.9898  -2.9860  -2.9717  -2.9691
    -2.9235  -2.7820  -2.7798  -2.7269  -2.7177  -2.6907  -2.6279  -2.6268
    -2.6212  -2.6167  -2.5855  -2.5325  -2.4431  -2.3679  -2.3607  -2.2653
    -2.2237  -2.1687  -2.1534  -2.1501  -2.1426  -2.1394  -2.1351  -1.9719
    -1.9339  -1.9148  -1.8775  -1.8709  -1.8025  -1.8018  -1.7999  -1.7810
    -1.7779  -1.7730  -1.7635  -1.7011  -1.6547  -1.6492  -1.6167  -1.6139
    -1.5530  -1.4934  -1.4500  -1.4095  -1.4053  -1.3996  -1.3692  -1.3640
    -1.3626  -1.3578  -1.3539  -1.3395  -1.3365  -1.3329  -1.2862  -1.2687
    -1.2621  -1.2546  -1.2288  -1.2071  -1.1922  -1.1843  -1.1833  -1.1799
    -1.1612  -1.1594  -1.1404  -1.1358  -1.1280  -1.0829  -1.0712  -1.0328
    -1.0134  -0.9868  -0.9796  -0.9259  -0.9132  -0.9116  -0.9032  -0.9012
    -0.8778  -0.8659  -0.8606  -0.8487  -0.8419  -0.8382  -0.8265  -0.8041
    -0.7851  -0.7751  -0.7640  -0.7410  -0.7201  -0.7118  -0.6730  -0.6716
    -0.6703  -0.6659  -0.6632  -0.6454  -0.6393  -0.6339  -0.6333  -0.6316
    -0.6167  -0.6100  -0.6024  -0.5975  -0.5973  -0.5736  -0.5619  -0.5586
    -0.5504  -0.5387  -0.5354  -0.5350  -0.5175  -0.4923  -0.4913  -0.4877
    -0.4817  -0.4776  -0.4740  -0.4692  -0.4637  -0.4607  -0.4568  -0.4521
    -0.4500  -0.4459  -0.4441  -0.4416  -0.4145  -0.3895  -0.3498  -0.3482
    -0.3413  -0.3285  -0.3189  -0.3148  -0.3136  -0.2987  -0.2792  -0.2659
    -0.2588  -0.2543  -0.2481  -0.2403  -0.2173  -0.2157  -0.2093  -0.1961
    -0.1942  -0.1910  -0.1891  -0.1818  -0.1797  -0.1745  -0.1727  -0.1662
    -0.1621  -0.1521  -0.1354  -0.1234  -0.1128  -0.1114  -0.0935  -0.0735
    -0.0695  -0.0682  -0.0643  -0.0591  -0.0430  -0.0381  -0.0358  -0.0310
    -0.0301  -0.0296  -0.0280  -0.0173  -0.0153  -0.0118  -0.0085  -0.0001
     0.0046   0.0092   0.0165   0.0243   0.0294   0.0474   0.0561   0.0603
     0.0838   0.0856   0.0935   0.0957   0.1038   0.1108   0.1127   0.1181
     0.1259   0.1307   0.1368   0.1402   0.1444   0.1493   0.1515   0.1556
     0.1565   0.1672   0.1810   0.1816   0.1839   0.1897   0.1916   0.1994
     0.2040   0.2108   0.2215   0.2317   0.2431   0.2463   0.2562   0.2716
     0.2779   0.2805   0.2872   0.2961   0.2989   0.3155   0.3185   0.3204
     0.3319   0.3332   0.3388   0.3456   0.3554   0.3781   0.3806   0.3812
     0.3829   0.3879   0.3918   0.3992   0.4098   0.4138   0.4166   0.4180
     0.4224   0.4373   0.4377   0.4404   0.4445   0.4484   0.4553   0.4585
     0.4651   0.4777   0.4779   0.5027   0.5049   0.5058   0.5102   0.5287
     0.5359   0.5401   0.5492   0.5521   0.5534   0.5579   0.5707   0.5893
     0.5900   0.5901   0.6030   0.6193   0.6297   0.6515   0.6517   0.6583
     0.6610   0.6684   0.6804   0.6818   0.6856   0.6963   0.7061   0.7163
     0.7175   0.7298   0.7343   0.7408   0.7439   0.7476   0.7543   0.7569
     0.7687   0.7744   0.7764   0.7787   0.7928   0.7930   0.7980   0.8115
     0.8316   0.8460   0.8533   0.8547   0.8555   0.8574   0.8629   0.8636
     0.8651   0.8667   0.8753   0.8835   0.8922   0.8985   0.9072   0.9079
     0.9095   0.9098   0.9208   0.9274   0.9336   0.9348   0.9393   0.9447
     0.9474   0.9527   0.9577   0.9621   0.9692   0.9741   0.9762   0.9792
     0.9846   0.9901   1.0070   1.0087   1.0166   1.0193   1.0210   1.0235
     1.0288   1.0364   1.0408   1.0431   1.0513   1.0524   1.0601   1.0618
     1.0627   1.0690   1.0705   1.0731   1.0846   1.0891   1.0898   1.0958
     1.0971   1.1122   1.1159   1.1175   1.1199   1.1253   1.1269   1.1303
     1.1394   1.1519   1.1618   1.1680   1.1726   1.1734   1.1865   1.1994
     1.2043   1.2046   1.2100   1.2207   1.2216   1.2268   1.2275   1.2361
     1.2419   1.2521   1.2536   1.2555   1.2589   1.2628   1.2665   1.2697
     1.2758   1.2838   1.2842   1.2873   1.2985   1.3035   1.3055   1.3156
     1.3203   1.3283   1.3335   1.3347   1.3427   1.3579   1.3620   1.3651
     1.3685   1.3711   1.3750   1.3813   1.3820   1.3856   1.3897   1.3914
     1.3917   1.3939   1.4022   1.4126   1.4129   1.4147   1.4175   1.4201
     1.4254   1.4346   1.4388   1.4451   1.4480   1.4518   1.4569   1.4617
     1.4644   1.4662   1.4717   1.4778   1.4832   1.4878   1.4906   1.4973
     1.4974   1.4983   1.5030   1.5033   1.5045   1.5077   1.5105   1.5159
     1.5223   1.5296   1.5379   1.5463   1.5502   1.5554   1.5587   1.5647
     1.5704   1.5777   1.5826   1.5844   1.5877   1.5932   1.6006   1.6093
     1.6110   1.6156   1.6187   1.6222   1.6304   1.6332   1.6342   1.6363
     1.6410   1.6418   1.6482   1.6487   1.6499   1.6504   1.6614   1.6643
     1.6652   1.6747   1.6778   1.6815   1.6837   1.6841   1.6885   1.6901
     1.6946   1.6958   1.7000   1.7020   1.7068   1.7127   1.7186   1.7196
     1.7201   1.7286   1.7309   1.7386   1.7440   1.7523   1.7563   1.7640
     1.7704   1.7708   1.7732   1.7795   1.7825   1.7838   1.7856   1.7927
     1.7968   1.7991   1.8030   1.8047   1.8066   1.8092   1.8098   1.8154
     1.8199   1.8212   1.8259   1.8291   1.8322   1.8341   1.8398   1.8479
     1.8505   1.8579   1.8666   1.8683   1.8900   1.8956   1.8961   1.8981
     1.9041   1.9189   1.9233   1.9240   1.9352   1.9397   1.9697   1.9718
     1.9817   1.9897   1.9943   1.9944   2.0133   2.0148   2.0156   2.0196
     2.0368   2.1974   2.2677   2.3287   2.4341   2.4437   2.4631   2.5207
     2.5504   2.5662   2.5688   2.5704   2.5940   2.5958   2.6012   2.6616
     2.7233   2.7299   2.7898   2.8050   2.8132   2.8208   2.8578   2.9724
     3.0329   3.0655   3.1087   3.2353   3.5001   3.5646   3.5909   3.6177
     3.6219   3.8241   3.9161   3.9879   4.1010   4.1237   4.1333   4.2200
     4.2327   4.2338   4.2797   4.2860   4.3300   4.3368   4.3643   4.3715
     4.3846   4.4038   4.4530   4.5244   4.5357   4.5452   4.5689   5.0596
     5.1629   5.1953   5.4698   5.4884   5.4945   5.5098   5.5145   5.6492
     5.6986   5.7263   5.8813   5.9024   5.9221   6.2171   6.2931   6.3702
     6.4090   6.5231   6.5388   6.6975   6.7387   6.7440   6.7895   6.8639
     6.9653   6.9738   7.0474   7.0901   7.1086   7.2219   7.2340   7.2391
     7.2575   7.2905   7.3072   7.3611   7.3828   7.4010   7.4295   7.4826
     7.4967   7.6707   7.7290   7.7406   7.9192   7.9267   7.9306   7.9500
     7.9853   8.0435   8.0524   8.1016   8.2110   8.3447   8.3992   8.4376
     8.5108   8.5600   8.5717   8.6018   8.6121   8.6579   8.6684   8.7110
     8.7492   8.8724   8.8751   8.8951   8.9023   8.9554   8.9558   8.9691
     9.0064   9.0184   9.0554   9.0592   9.1867   9.2406   9.2447   9.3041
     9.3100   9.3337   9.3658   9.3872   9.3920   9.4184   9.4261   9.5522
     9.5846   9.6991   9.8171   9.8803   9.8869   9.9425  10.0076  10.0340
    10.0842  10.1209  10.1233  10.1483  10.1555  10.1996

          k = 0.0000-0.2165 0.0000 (256176 PWs)   bands (ev):

   -15.7469 -15.7247 -15.0085 -14.9903 -13.7870 -13.7838 -13.7683 -13.7545
   -13.5542 -13.5487 -13.0719 -13.0666 -13.0553 -13.0425 -12.1820 -11.6803
   -11.6713 -11.6655 -11.6530 -11.4779 -11.4715  -9.7912  -9.7828  -9.7786
    -9.7737  -8.5568  -8.5273  -8.3709  -8.3655  -8.3510  -8.3418  -7.9786
    -7.5199  -7.5140  -7.5024  -7.4974  -6.3772  -6.3727  -6.3395  -6.3349
    -6.1995  -6.1971  -6.1899  -6.1766  -5.5097  -5.4949  -5.4522  -5.4442
    -5.1360  -4.5933  -4.5689  -4.5635  -4.5563  -4.5474  -4.4560  -4.4363
    -4.4143  -4.3879  -4.0407  -4.0360  -4.0269  -4.0193  -3.9760  -3.6445
    -3.4050  -3.3813  -3.0483  -3.0252  -2.9230  -2.9199  -2.9123  -2.9104
    -2.7559  -2.7219  -2.6609  -2.6565  -2.6563  -2.6308  -2.6096  -2.4762
    -2.4701  -2.4522  -2.4430  -2.3181  -2.3089  -2.2989  -2.2866  -2.2332
    -2.2224  -2.2157  -2.2071  -2.2031  -2.1759  -2.1467  -2.0991  -2.0773
    -2.0463  -2.0427  -1.9419  -1.9300  -1.9236  -1.8669  -1.7950  -1.7647
    -1.7611  -1.7601  -1.7507  -1.7170  -1.6976  -1.6850  -1.6819  -1.6003
    -1.5951  -1.5849  -1.5767  -1.5350  -1.5278  -1.4398  -1.4226  -1.3988
    -1.3782  -1.3747  -1.3710  -1.3658  -1.3455  -1.3415  -1.3280  -1.3026
    -1.2801  -1.2764  -1.2723  -1.2633  -1.2499  -1.1964  -1.1770  -1.1309
    -1.1175  -1.0681  -1.0503  -0.9998  -0.9984  -0.9810  -0.9550  -0.9498
    -0.9351  -0.9329  -0.9278  -0.9244  -0.9204  -0.9147  -0.9119  -0.9051
    -0.8824  -0.8769  -0.8707  -0.8668  -0.8605  -0.8527  -0.8485  -0.8351
    -0.8243  -0.8157  -0.8068  -0.8046  -0.7615  -0.7382  -0.7320  -0.7185
    -0.7177  -0.7035  -0.6923  -0.6894  -0.6825  -0.6774  -0.6726  -0.6605
    -0.6528  -0.6416  -0.6125  -0.6019  -0.6003  -0.5879  -0.5865  -0.5852
    -0.5834  -0.5614  -0.5556  -0.5495  -0.5397  -0.5340  -0.5225  -0.5186
    -0.5101  -0.5038  -0.4879  -0.4786  -0.4735  -0.4663  -0.4481  -0.4438
    -0.4381  -0.4216  -0.4114  -0.3943  -0.3913  -0.3881  -0.3849  -0.3787
    -0.3750  -0.3327  -0.3197  -0.3141  -0.3099  -0.2737  -0.2670  -0.2587
    -0.2453  -0.2404  -0.2391  -0.2258  -0.2245  -0.2232  -0.2199  -0.2155
    -0.2114  -0.1931  -0.1841  -0.1800  -0.1742  -0.1560  -0.1554  -0.1519
    -0.1511  -0.1417  -0.1193  -0.1164  -0.1122  -0.1074  -0.0994  -0.0941
    -0.0851  -0.0790  -0.0758  -0.0734  -0.0690  -0.0424  -0.0324  -0.0190
    -0.0048   0.0040   0.0107   0.0146   0.0428   0.0556   0.0615   0.0633
     0.0646   0.0664   0.0704   0.0722   0.0746   0.0830   0.0977   0.1055
     0.1117   0.1150   0.1186   0.1294   0.1330   0.1344   0.1352   0.1389
     0.1494   0.1544   0.1552   0.1627   0.1709   0.1716   0.1767   0.1771
     0.1824   0.1837   0.1861   0.2105   0.2134   0.2181   0.2285   0.2323
     0.2422   0.2448   0.2588   0.2593   0.2659   0.2712   0.2855   0.2867
     0.2891   0.3030   0.3039   0.3132   0.3147   0.3183   0.3253   0.3274
     0.3303   0.3310   0.3485   0.3625   0.3630   0.3754   0.3843   0.3902
     0.3988   0.4031   0.4093   0.4099   0.4133   0.4200   0.4228   0.4280
     0.4314   0.4391   0.4398   0.4500   0.4511   0.4562   0.4683   0.4795
     0.4852   0.4869   0.4884   0.4918   0.5028   0.5050   0.5076   0.5171
     0.5220   0.5256   0.5289   0.5341   0.5346   0.5478   0.5578   0.5631
     0.5715   0.5842   0.5917   0.5927   0.6017   0.6058   0.6206   0.6222
     0.6228   0.6428   0.6475   0.6709   0.6780   0.6817   0.6858   0.6963
     0.7097   0.7285   0.7449   0.7513   0.7635   0.7777   0.7810   0.7907
     0.7971   0.8017   0.8029   0.8062   0.8100   0.8118   0.8232   0.8247
     0.8275   0.8295   0.8362   0.8427   0.8502   0.8544   0.8583   0.8678
     0.8686   0.8704   0.8795   0.8887   0.8922   0.8923   0.8963   0.8984
     0.8996   0.9032   0.9077   0.9145   0.9158   0.9178   0.9198   0.9295
     0.9367   0.9376   0.9387   0.9414   0.9488   0.9500   0.9594   0.9604
     0.9615   0.9713   0.9724   0.9741   0.9838   0.9855   0.9881   0.9900
     0.9966   0.9997   1.0104   1.0155   1.0275   1.0333   1.0366   1.0393
     1.0474   1.0493   1.0515   1.0551   1.0580   1.0623   1.0648   1.0742
     1.0748   1.0825   1.0999   1.1020   1.1063   1.1231   1.1263   1.1272
     1.1347   1.1424   1.1476   1.1528   1.1606   1.1626   1.1680   1.1745
     1.1756   1.1805   1.2061   1.2100   1.2143   1.2385   1.2439   1.2497
     1.2579   1.2588   1.2638   1.2698   1.2743   1.2765   1.2855   1.2897
     1.2949   1.2962   1.2965   1.2971   1.3041   1.3048   1.3081   1.3120
     1.3162   1.3255   1.3260   1.3281   1.3353   1.3358   1.3397   1.3451
     1.3503   1.3525   1.3567   1.3591   1.3605   1.3640   1.3647   1.3700
     1.3724   1.3759   1.3822   1.3825   1.3865   1.3945   1.3962   1.3997
     1.4019   1.4064   1.4077   1.4100   1.4153   1.4231   1.4234   1.4263
     1.4276   1.4362   1.4581   1.4593   1.4648   1.4755   1.4867   1.4933
     1.5028   1.5121   1.5126   1.5146   1.5231   1.5383   1.5438   1.5459
     1.5498   1.5547   1.5548   1.5554   1.5574   1.5658   1.5664   1.5686
     1.5750   1.5798   1.5811   1.5817   1.5876   1.5915   1.5948   1.5952
     1.5963   1.5998   1.6026   1.6052   1.6107   1.6147   1.6266   1.6281
     1.6282   1.6344   1.6389   1.6419   1.6443   1.6517   1.6534   1.6606
     1.6640   1.6648   1.6670   1.6775   1.6807   1.6829   1.6858   1.6961
     1.6986   1.7026   1.7049   1.7060   1.7153   1.7190   1.7237   1.7263
     1.7301   1.7387   1.7411   1.7445   1.7501   1.7550   1.7584   1.7631
     1.7664   1.7680   1.7740   1.7751   1.7763   1.7837   1.7946   1.7991
     1.8012   1.8071   1.8180   1.8198   1.8226   1.8228   1.8264   1.8277
     1.8384   1.8394   1.8405   1.8550   1.8562   1.8629   1.8670   1.8698
     1.8774   1.8777   1.8806   1.8829   1.8838   1.8879   1.8981   1.9091
     1.9412   1.9433   1.9476   1.9533   1.9643   1.9748   2.0251   2.0383
     2.0475   2.0846   2.1093   2.1110   2.1237   2.1255   2.1441   2.1626
     2.1760   2.1869   2.1943   2.2039   2.2106   2.2176   2.2374   2.4661
     2.5464   2.5930   2.6025   2.6324   2.7229   2.7282   2.7870   2.8098
     2.8401   2.8485   2.8781   2.8873   2.9519   2.9538   2.9660   2.9696
     3.0477   3.0630   3.0773   3.0893   3.1660   3.2845   3.2947   3.3598
     3.4301   3.5205   3.5317   3.5348   3.6097   3.8913   4.0537   4.1439
     4.3075   4.3082   4.3683   4.4671   4.5084   4.5527   4.5749   4.5786
     4.6315   4.6364   4.6474   4.6926   4.7289   4.8257   4.8892   4.9437
     5.0336   5.2843   5.3453   5.4663   5.6082   5.6369   5.6688   5.7082
     5.7183   5.7811   5.8717   5.9263   6.0437   6.1957   6.2253   6.3540
     6.3772   6.3905   6.4060   6.5414   6.5786   6.5867   6.5913   6.7255
     6.7416   6.8882   6.9164   7.0087   7.0524   7.1035   7.2755   7.2821
     7.3325   7.3637   7.3706   7.3832   7.3894   7.5079   7.5198   7.5540
     7.5598   7.5850   7.5881   7.6005   7.6677   7.6736   7.7393   7.9702
     8.1685   8.1724   8.1831   8.1985   8.2033   8.2703   8.4582   8.4669
     8.5073   8.5253   8.5343   8.5359   8.6022   8.6435   8.7289   8.7695
     8.7922   8.8390   8.9967   9.0019   9.0209   9.0353   9.0477   9.0497
     9.0600   9.1513   9.1523   9.1845   9.2266   9.2434   9.3590   9.3782
     9.4077   9.4722   9.5547   9.5757   9.5801   9.5915   9.6611   9.6755
     9.6763   9.6901   9.7019   9.7165   9.8229   9.8648   9.8909   9.9075
     9.9766  10.0414  10.1344  10.2358  10.2440  10.2515

          k = 0.2500 0.0000 0.0000 (256240 PWs)   bands (ev):

   -15.7044 -15.3423 -15.3273 -14.7167 -14.3592 -14.3448 -14.2412 -14.2381
   -13.2772 -13.2727 -12.7878 -12.4833 -12.4578 -12.4427 -12.4266 -12.1571
   -11.5382 -11.5362 -11.4128 -11.4080 -10.5047 -10.1320 -10.1182 -10.0859
    -9.6599  -9.4362  -9.1554  -9.1372  -8.7367  -8.4908  -8.4795  -7.9957
    -7.9733  -6.9786  -6.9677  -6.9388  -6.9290  -6.8301  -6.8155  -6.3376
    -6.0418  -5.5497  -5.4530  -5.3169  -5.3086  -5.2890  -5.2843  -5.1457
    -4.9428  -4.8841  -4.6104  -4.5947  -4.4949  -4.3818  -4.0732  -4.0683
    -3.9486  -3.8536  -3.8444  -3.8196  -3.7558  -3.7443  -3.7300  -3.6150
    -3.6089  -3.4821  -3.4583  -3.4146  -3.2480  -3.2063  -3.0984  -3.0758
    -3.0531  -2.9682  -2.9537  -2.8883  -2.8785  -2.8733  -2.8583  -2.8539
    -2.8324  -2.7302  -2.6398  -2.6020  -2.5812  -2.5594  -2.4784  -2.4730
    -2.4160  -2.4070  -2.3189  -2.3068  -2.2739  -2.1069  -2.0908  -2.0158
    -1.9418  -1.9014  -1.8499  -1.8370  -1.7769  -1.7194  -1.7084  -1.6964
    -1.6918  -1.6352  -1.5498  -1.5352  -1.5178  -1.4680  -1.4528  -1.4453
    -1.4381  -1.4240  -1.4200  -1.4149  -1.4103  -1.3978  -1.3934  -1.3641
    -1.3591  -1.3176  -1.3013  -1.2695  -1.2561  -1.2322  -1.2120  -1.2035
    -1.1937  -1.1917  -1.1888  -1.1807  -1.1517  -1.1349  -1.1324  -1.1230
    -1.1190  -1.1139  -1.1057  -1.0994  -1.0893  -1.0296  -1.0229  -0.9903
    -0.9673  -0.9468  -0.9321  -0.9215  -0.8812  -0.8688  -0.8622  -0.8506
    -0.8451  -0.8433  -0.8277  -0.8158  -0.8077  -0.8001  -0.7974  -0.7904
    -0.7862  -0.7749  -0.7619  -0.7530  -0.7478  -0.7427  -0.7344  -0.7233
    -0.7204  -0.7019  -0.6862  -0.6767  -0.6666  -0.6602  -0.6512  -0.6497
    -0.6409  -0.6366  -0.6333  -0.6277  -0.6237  -0.6178  -0.6148  -0.6079
    -0.6006  -0.5927  -0.5919  -0.5847  -0.5780  -0.5775  -0.5751  -0.5618
    -0.5397  -0.5293  -0.5217  -0.4980  -0.4881  -0.4827  -0.4614  -0.4468
    -0.4443  -0.4281  -0.4229  -0.4217  -0.4173  -0.4101  -0.3923  -0.3881
    -0.3784  -0.3725  -0.3580  -0.3487  -0.3470  -0.3294  -0.3264  -0.2904
    -0.2647  -0.2562  -0.2499  -0.2467  -0.2406  -0.2138  -0.2050  -0.2016
    -0.1917  -0.1883  -0.1854  -0.1785  -0.1702  -0.1544  -0.1519  -0.1483
    -0.1424  -0.1326  -0.1293  -0.1149  -0.1094  -0.1087  -0.1043  -0.1000
    -0.0927  -0.0891  -0.0865  -0.0818  -0.0712  -0.0601  -0.0411  -0.0313
    -0.0246  -0.0216  -0.0036   0.0024   0.0061   0.0086   0.0141   0.0270
     0.0286   0.0353   0.0451   0.0509   0.0656   0.0674   0.0705   0.0723
     0.0895   0.0920   0.0966   0.1039   0.1132   0.1162   0.1196   0.1252
     0.1278   0.1414   0.1517   0.1566   0.1632   0.1703   0.1783   0.1826
     0.1934   0.1971   0.1992   0.2011   0.2088   0.2112   0.2158   0.2247
     0.2376   0.2532   0.2592   0.2660   0.2763   0.2840   0.2878   0.2891
     0.2935   0.3062   0.3185   0.3219   0.3283   0.3318   0.3408   0.3522
     0.3540   0.3671   0.3739   0.3768   0.3796   0.3811   0.3891   0.3952
     0.3991   0.4015   0.4064   0.4079   0.4197   0.4258   0.4296   0.4334
     0.4366   0.4416   0.4467   0.4511   0.4602   0.4655   0.4720   0.4742
     0.4815   0.4902   0.4946   0.5007   0.5079   0.5146   0.5256   0.5274
     0.5346   0.5418   0.5458   0.5597   0.5661   0.5851   0.5950   0.6094
     0.6187   0.6229   0.6334   0.6477   0.6513   0.6536   0.6611   0.6623
     0.6665   0.6765   0.6818   0.6853   0.6891   0.6960   0.6988   0.7034
     0.7048   0.7096   0.7135   0.7220   0.7276   0.7328   0.7416   0.7458
     0.7498   0.7562   0.7644   0.7718   0.7764   0.7782   0.7916   0.7926
     0.7978   0.8066   0.8101   0.8130   0.8169   0.8217   0.8253   0.8348
     0.8441   0.8462   0.8508   0.8559   0.8614   0.8649   0.8747   0.8830
     0.8849   0.8860   0.8891   0.8950   0.9010   0.9041   0.9110   0.9177
     0.9231   0.9285   0.9345   0.9400   0.9457   0.9492   0.9515   0.9533
     0.9612   0.9679   0.9749   0.9755   0.9780   0.9809   1.0003   1.0045
     1.0076   1.0108   1.0123   1.0133   1.0147   1.0186   1.0279   1.0312
     1.0350   1.0399   1.0469   1.0519   1.0656   1.0834   1.0851   1.0913
     1.0960   1.1049   1.1090   1.1153   1.1171   1.1225   1.1375   1.1401
     1.1443   1.1468   1.1506   1.1529   1.1599   1.1717   1.1743   1.1828
     1.1888   1.1949   1.2024   1.2086   1.2149   1.2189   1.2220   1.2368
     1.2439   1.2456   1.2510   1.2578   1.2619   1.2622   1.2643   1.2684
     1.2717   1.2819   1.2830   1.2860   1.2904   1.3042   1.3061   1.3065
     1.3099   1.3206   1.3208   1.3360   1.3436   1.3481   1.3503   1.3535
     1.3632   1.3650   1.3674   1.3784   1.3806   1.3828   1.3874   1.3898
     1.3921   1.3927   1.3957   1.4016   1.4031   1.4072   1.4088   1.4153
     1.4187   1.4246   1.4302   1.4304   1.4365   1.4383   1.4404   1.4440
     1.4464   1.4484   1.4565   1.4610   1.4664   1.4697   1.4749   1.4792
     1.4834   1.4857   1.4895   1.4970   1.4975   1.5008   1.5055   1.5066
     1.5114   1.5159   1.5182   1.5197   1.5276   1.5384   1.5444   1.5528
     1.5594   1.5616   1.5656   1.5710   1.5789   1.5868   1.5900   1.6037
     1.6132   1.6163   1.6171   1.6218   1.6231   1.6273   1.6296   1.6316
     1.6385   1.6438   1.6449   1.6495   1.6513   1.6540   1.6616   1.6638
     1.6659   1.6671   1.6696   1.6746   1.6778   1.6820   1.6864   1.6898
     1.6917   1.6949   1.6992   1.7037   1.7053   1.7096   1.7140   1.7206
     1.7218   1.7251   1.7352   1.7392   1.7471   1.7514   1.7534   1.7606
     1.7661   1.7692   1.7717   1.7764   1.7817   1.7863   1.7869   1.7978
     1.8007   1.8036   1.8084   1.8117   1.8135   1.8179   1.8182   1.8226
     1.8286   1.8328   1.8340   1.8349   1.8362   1.8406   1.8426   1.8480
     1.8542   1.8582   1.8604   1.8645   1.8705   1.8734   1.8760   1.8770
     1.8828   1.9033   1.9178   1.9220   1.9294   1.9359   1.9456   1.9523
     1.9569   1.9892   1.9931   2.0025   2.0108   2.0155   2.0492   2.1095
     2.1141   2.1331   2.1346   2.1549   2.2097   2.2595   2.3321   2.3786
     2.4021   2.4063   2.4332   2.4525   2.4859   2.5378   2.5493   2.5814
     2.8176   2.8918   2.9184   2.9407   3.1374   3.3236   3.3396   3.3468
     3.5403   3.5426   3.5760   3.5783   3.5912   3.6512   3.6907   3.7326
     3.7992   3.8579   3.9801   3.9983   4.0285   4.0470   4.0528   4.0948
     4.1140   4.2060   4.2124   4.3135   4.3356   4.4330   4.5642   4.5988
     4.7072   4.8512   4.8791   4.9838   5.0024   5.0418   5.1187   5.1697
     5.1981   5.3570   5.4095   5.5663   5.5764   5.6224   5.6965   5.7265
     5.7696   5.8035   5.8158   5.8706   5.8783   5.8911   5.9249   5.9351
     5.9815   6.0005   6.1531   6.2636   6.3384   6.3473   6.3716   6.4141
     6.4260   6.6303   6.8381   6.9985   7.0349   7.0816   7.1133   7.1226
     7.1430   7.2510   7.2574   7.2790   7.3077   7.3481   7.3897   7.4076
     7.4204   7.4606   7.4630   7.5726   7.5898   7.5987   7.6894   7.7185
     7.7771   7.9075   7.9137   7.9722   8.0209   8.0855   8.0882   8.1342
     8.2212   8.2678   8.3264   8.3578   8.3691   8.4512   8.5032   8.5245
     8.5565   8.6437   8.7130   8.7446   8.7464   8.7504   8.7773   8.8317
     8.9473   9.0100   9.0746   9.1218   9.1941   9.2584   9.3610   9.4024
     9.4060   9.4399   9.4534   9.4746   9.4926   9.5314   9.5401   9.5502
     9.5545   9.5850   9.6084   9.6372   9.6726   9.7010   9.7524   9.8147
     9.8350  10.0397  10.0552  10.0992  10.1336  10.1351

          k = 0.2500-0.2165 0.0000 (256316 PWs)   bands (ev):

   -15.6227 -15.6005 -14.8857 -14.8673 -14.6365 -14.6131 -13.9093 -13.8911
   -13.4347 -13.4291 -12.7100 -12.6892 -12.4933 -12.4815 -12.1795 -11.9935
   -11.9872 -11.3662 -11.3599 -10.7157 -10.7108 -10.4860 -10.4803 -10.0688
   -10.0393  -9.0213  -9.0035  -8.5387  -8.5237  -8.4615  -8.4329  -7.9984
    -7.8939  -7.8613  -7.7718  -7.7549  -6.0760  -6.0637  -6.0257  -6.0090
    -5.8940  -5.8547  -5.7067  -5.6732  -5.4091  -5.4025  -5.3312  -5.3192
    -5.1151  -4.5548  -4.5366  -4.5048  -4.2909  -4.2809  -4.2648  -4.2587
    -4.2422  -4.2198  -3.9592  -3.9497  -3.8292  -3.6192  -3.5944  -3.5895
    -3.5759  -3.5377  -3.2793  -3.2655  -3.1756  -3.1318  -3.0953  -3.0731
    -3.0418  -2.9856  -2.9693  -2.9643  -2.9180  -2.9002  -2.7077  -2.6932
    -2.6570  -2.6436  -2.6346  -2.5981  -2.5363  -2.5026  -2.4951  -2.4369
    -2.4286  -2.3472  -2.3299  -2.3104  -2.2466  -2.0699  -2.0503  -2.0273
    -1.9447  -1.9231  -1.8540  -1.8509  -1.8043  -1.7969  -1.7942  -1.7708
    -1.7451  -1.6446  -1.6346  -1.6186  -1.6142  -1.5248  -1.4646  -1.4496
    -1.4390  -1.4341  -1.4158  -1.3914  -1.3635  -1.3579  -1.3409  -1.3325
    -1.3293  -1.3219  -1.3138  -1.3106  -1.2981  -1.2941  -1.2894  -1.2788
    -1.2735  -1.2686  -1.2442  -1.2007  -1.1824  -1.1517  -1.1366  -1.1179
    -1.1067  -1.0901  -1.0547  -1.0085  -0.9932  -0.9689  -0.9536  -0.9349
    -0.9148  -0.9090  -0.8970  -0.8964  -0.8944  -0.8917  -0.8770  -0.8760
    -0.8565  -0.8561  -0.8523  -0.8451  -0.8352  -0.8268  -0.8195  -0.8088
    -0.8008  -0.7984  -0.7941  -0.7816  -0.7616  -0.7498  -0.7456  -0.7364
    -0.7323  -0.7236  -0.7219  -0.7172  -0.6922  -0.6826  -0.6788  -0.6583
    -0.6542  -0.6500  -0.6402  -0.6175  -0.6156  -0.6077  -0.5981  -0.5946
    -0.5889  -0.5863  -0.5757  -0.5741  -0.5554  -0.5532  -0.5511  -0.5398
    -0.5379  -0.5325  -0.5294  -0.5119  -0.4969  -0.4826  -0.4658  -0.4509
    -0.4436  -0.4230  -0.4224  -0.3967  -0.3816  -0.3670  -0.3533  -0.3529
    -0.3455  -0.3377  -0.3248  -0.3204  -0.3180  -0.3018  -0.2926  -0.2758
    -0.2594  -0.2506  -0.2470  -0.2429  -0.2248  -0.2193  -0.2115  -0.2088
    -0.1991  -0.1873  -0.1805  -0.1785  -0.1754  -0.1659  -0.1616  -0.1577
    -0.1500  -0.1453  -0.1272  -0.1183  -0.1060  -0.1026  -0.1010  -0.0937
    -0.0879  -0.0811  -0.0669  -0.0588  -0.0460  -0.0389  -0.0343  -0.0275
    -0.0187  -0.0074  -0.0045  -0.0016   0.0037   0.0076   0.0151   0.0192
     0.0220   0.0320   0.0391   0.0441   0.0530   0.0607   0.0712   0.0726
     0.0895   0.0921   0.0935   0.1036   0.1090   0.1131   0.1212   0.1314
     0.1327   0.1383   0.1429   0.1446   0.1575   0.1627   0.1732   0.1823
     0.1909   0.1945   0.1990   0.2001   0.2163   0.2251   0.2353   0.2470
     0.2574   0.2589   0.2652   0.2679   0.2796   0.2826   0.2854   0.3024
     0.3045   0.3109   0.3163   0.3218   0.3287   0.3326   0.3445   0.3514
     0.3562   0.3642   0.3663   0.3690   0.3709   0.3754   0.3760   0.3824
     0.3848   0.3882   0.3934   0.3976   0.4027   0.4114   0.4130   0.4153
     0.4293   0.4319   0.4421   0.4481   0.4547   0.4640   0.4643   0.4702
     0.4827   0.4980   0.5002   0.5046   0.5144   0.5280   0.5288   0.5325
     0.5333   0.5429   0.5492   0.5528   0.5627   0.5651   0.5696   0.5728
     0.5914   0.6006   0.6009   0.6302   0.6342   0.6399   0.6493   0.6597
     0.6609   0.6685   0.6715   0.6799   0.6830   0.6844   0.6910   0.6967
     0.7100   0.7162   0.7237   0.7241   0.7271   0.7313   0.7355   0.7460
     0.7511   0.7562   0.7603   0.7613   0.7682   0.7758   0.7881   0.7914
     0.7919   0.7959   0.8116   0.8207   0.8235   0.8266   0.8370   0.8415
     0.8449   0.8565   0.8622   0.8680   0.8689   0.8789   0.8799   0.8869
     0.8907   0.8912   0.8965   0.9054   0.9137   0.9158   0.9296   0.9430
     0.9476   0.9574   0.9620   0.9646   0.9683   0.9735   0.9763   0.9799
     0.9814   0.9856   0.9936   0.9955   1.0014   1.0029   1.0068   1.0188
     1.0225   1.0259   1.0282   1.0356   1.0404   1.0443   1.0489   1.0520
     1.0598   1.0633   1.0655   1.0685   1.0698   1.0751   1.0772   1.0844
     1.0884   1.0906   1.0913   1.0989   1.1035   1.1068   1.1102   1.1227
     1.1275   1.1356   1.1370   1.1439   1.1471   1.1499   1.1573   1.1818
     1.1833   1.1879   1.1936   1.2001   1.2017   1.2068   1.2120   1.2162
     1.2192   1.2226   1.2265   1.2276   1.2317   1.2348   1.2377   1.2444
     1.2577   1.2602   1.2640   1.2789   1.2810   1.2854   1.2874   1.2919
     1.2942   1.3060   1.3079   1.3128   1.3207   1.3314   1.3327   1.3377
     1.3435   1.3484   1.3492   1.3589   1.3685   1.3688   1.3736   1.3791
     1.3841   1.3946   1.3990   1.4116   1.4189   1.4270   1.4309   1.4398
     1.4438   1.4525   1.4554   1.4589   1.4598   1.4639   1.4668   1.4714
     1.4734   1.4754   1.4800   1.4809   1.4827   1.4852   1.4875   1.4930
     1.5006   1.5095   1.5104   1.5145   1.5219   1.5268   1.5336   1.5344
     1.5390   1.5442   1.5465   1.5521   1.5543   1.5566   1.5634   1.5672
     1.5694   1.5722   1.5745   1.5765   1.5790   1.5805   1.5839   1.5869
     1.5887   1.5916   1.5927   1.5962   1.6016   1.6072   1.6144   1.6160
     1.6206   1.6349   1.6373   1.6385   1.6428   1.6469   1.6502   1.6515
     1.6606   1.6705   1.6736   1.6767   1.6819   1.6880   1.6916   1.6953
     1.6979   1.7010   1.7065   1.7142   1.7178   1.7223   1.7226   1.7280
     1.7309   1.7370   1.7387   1.7415   1.7441   1.7462   1.7535   1.7597
     1.7638   1.7659   1.7679   1.7724   1.7747   1.7808   1.7827   1.7847
     1.7884   1.7913   1.7950   1.8040   1.8059   1.8092   1.8121   1.8154
     1.8165   1.8181   1.8219   1.8308   1.8354   1.8372   1.8458   1.8519
     1.8531   1.8597   1.8749   1.8772   1.8793   1.8816   1.8850   1.8886
     1.8980   1.9000   1.9138   1.9169   1.9217   1.9361   1.9450   1.9488
     1.9869   1.9947   2.0007   2.0224   2.0439   2.0839   2.1059   2.1132
     2.1177   2.1214   2.1275   2.1368   2.1467   2.1535   2.1751   2.2433
     2.2722   2.4724   2.4875   2.5119   2.5233   2.5838   2.6222   2.7317
     2.9300   2.9498   3.0796   3.0882   3.0963   3.1124   3.1550   3.1581
     3.2280   3.3078   3.3301   3.3354   3.3594   3.5939   3.8210   3.8387
     3.8429   3.9099   3.9326   4.0690   4.1296   4.1954   4.2230   4.2321
     4.3584   4.4050   4.4430   4.5021   4.5224   4.5443   4.6961   4.7135
     4.8566   4.8670   4.8784   4.9500   4.9619   4.9911   5.0882   5.1670
     5.2048   5.2189   5.2356   5.3075   5.3461   5.3862   5.4301   5.4754
     5.5594   5.6642   5.7209   5.7610   5.7848   5.8574   5.9002   5.9838
     6.0685   6.1079   6.1274   6.1742   6.3342   6.5377   6.5432   6.5644
     6.6190   6.7542   6.8655   6.9238   7.0287   7.0721   7.0907   7.1099
     7.1580   7.1938   7.2963   7.3246   7.3435   7.4555   7.5105   7.5309
     7.5557   7.5805   7.6049   7.6464   7.6823   7.7280   7.7348   7.7583
     7.7772   7.7897   7.8380   7.8727   7.9213   7.9570   8.1154   8.1367
     8.1425   8.2195   8.3422   8.3681   8.4577   8.5022   8.5492   8.6277
     8.6993   8.7320   8.8004   8.8198   8.8375   8.8524   8.9043   8.9217
     8.9909   8.9997   9.0512   9.0759   9.0777   9.0955   9.2034   9.2199
     9.2318   9.2842   9.3160   9.3735   9.3963   9.4037   9.4686   9.5070
     9.5231   9.5788   9.5835   9.6204   9.6482   9.7120   9.7235   9.7492
     9.7532   9.7686   9.8287   9.8547  10.0294  10.0632

          k =-0.5000 0.0000 0.0000 (256496 PWs)   bands (ev):

   -15.3333 -15.3320 -14.9773 -14.9664 -14.9604 -14.9542 -13.8809 -13.8779
   -13.8736 -13.8724 -12.2394 -12.1165 -12.1103 -12.1078 -12.0603 -11.5116
   -11.5024 -11.1916 -11.1762 -11.1747 -11.1699 -10.5449 -10.5335 -10.1889
   -10.1853  -9.5516  -9.5335  -9.1417  -9.1327  -8.3324  -8.3233  -8.3120
    -8.3119  -7.9865  -6.8627  -6.8561  -6.7892  -6.7865  -6.7790  -6.7762
    -5.2945  -5.2925  -5.1179  -4.9384  -4.9113  -4.5470  -4.5265  -4.5037
    -4.4181  -4.4031  -4.3998  -4.3283  -4.1295  -4.1283  -4.1180  -4.1136
    -4.1096  -4.0928  -4.0859  -4.0721  -3.8850  -3.8709  -3.8149  -3.8119
    -3.7999  -3.7972  -3.5172  -3.5090  -3.4536  -3.3882  -3.3414  -3.3278
    -3.0694  -3.0609  -3.0594  -3.0485  -3.0455  -3.0112  -2.9847  -2.8784
    -2.8291  -2.8161  -2.7836  -2.7707  -2.7594  -2.7472  -2.6265  -2.3934
    -2.2843  -2.2813  -2.2612  -2.2459  -2.1918  -2.1889  -2.1737  -2.1653
    -2.1622  -2.1336  -1.9953  -1.9841  -1.9742  -1.7791  -1.7295  -1.7183
    -1.6765  -1.5666  -1.5225  -1.5111  -1.4991  -1.4910  -1.4885  -1.4832
    -1.4034  -1.3935  -1.3897  -1.3054  -1.3029  -1.2890  -1.2696  -1.2396
    -1.2289  -1.2171  -1.2024  -1.1991  -1.1854  -1.1364  -1.1306  -1.1160
    -1.0666  -1.0653  -1.0641  -1.0550  -1.0518  -1.0369  -1.0331  -1.0264
    -1.0200  -0.9996  -0.9862  -0.9791  -0.9786  -0.9564  -0.9531  -0.9510
    -0.9486  -0.9357  -0.9310  -0.9289  -0.9267  -0.9220  -0.9149  -0.9061
    -0.9026  -0.8997  -0.8971  -0.8943  -0.8856  -0.8811  -0.8744  -0.8315
    -0.8289  -0.8140  -0.8060  -0.7979  -0.7957  -0.7904  -0.7812  -0.7660
    -0.7569  -0.7538  -0.7513  -0.7451  -0.7309  -0.7258  -0.7221  -0.7058
    -0.6977  -0.6934  -0.6910  -0.6845  -0.6794  -0.6231  -0.6196  -0.6124
    -0.6049  -0.6037  -0.6010  -0.5836  -0.5790  -0.5761  -0.5619  -0.5546
    -0.5507  -0.5501  -0.5398  -0.5346  -0.5284  -0.5267  -0.5257  -0.5153
    -0.4695  -0.4608  -0.4474  -0.4467  -0.4440  -0.4357  -0.4315  -0.4260
    -0.4175  -0.3661  -0.3481  -0.3320  -0.3262  -0.3249  -0.3055  -0.2894
    -0.2874  -0.2868  -0.2838  -0.2693  -0.2432  -0.2391  -0.2300  -0.2250
    -0.2234  -0.2213  -0.2190  -0.2150  -0.2069  -0.2031  -0.1972  -0.1940
    -0.1615  -0.1470  -0.1242  -0.1079  -0.0820  -0.0647  -0.0634  -0.0590
    -0.0543  -0.0372  -0.0356  -0.0344  -0.0334  -0.0155  -0.0136  -0.0019
     0.0003   0.0010   0.0134   0.0153   0.0223   0.0309   0.0381   0.0402
     0.0475   0.0548   0.0659   0.0673   0.0696   0.0732   0.0772   0.0839
     0.0981   0.1044   0.1115   0.1158   0.1327   0.1357   0.1365   0.1453
     0.1492   0.1627   0.1705   0.1722   0.1934   0.1941   0.2085   0.2095
     0.2160   0.2229   0.2287   0.2325   0.2360   0.2494   0.2501   0.2643
     0.2677   0.2709   0.2810   0.3023   0.3049   0.3286   0.3310   0.3363
     0.3441   0.3475   0.3523   0.3535   0.3617   0.3623   0.3647   0.3664
     0.3691   0.3710   0.3886   0.3975   0.4214   0.4312   0.4329   0.4354
     0.4433   0.4464   0.4470   0.4476   0.4552   0.4586   0.4649   0.4680
     0.4719   0.4738   0.4752   0.4793   0.4835   0.4839   0.4867   0.4992
     0.5007   0.5018   0.5019   0.5030   0.5069   0.5093   0.5152   0.5265
     0.5310   0.5440   0.5453   0.5462   0.5494   0.5571   0.5647   0.5693
     0.5814   0.5909   0.5954   0.6217   0.6271   0.6328   0.6487   0.6570
     0.6673   0.6772   0.6801   0.6876   0.6978   0.7001   0.7088   0.7121
     0.7214   0.7421   0.7467   0.7487   0.7534   0.7563   0.7566   0.7641
     0.7660   0.7748   0.7753   0.7781   0.7873   0.7893   0.7902   0.7986
     0.7992   0.8063   0.8156   0.8182   0.8208   0.8274   0.8443   0.8478
     0.8599   0.8602   0.8728   0.8736   0.8821   0.8842   0.8883   0.8931
     0.8965   0.9048   0.9144   0.9150   0.9164   0.9179   0.9219   0.9244
     0.9313   0.9341   0.9349   0.9388   0.9399   0.9519   0.9551   0.9576
     0.9576   0.9610   0.9660   0.9685   0.9702   0.9834   0.9868   0.9991
     1.0041   1.0062   1.0072   1.0107   1.0158   1.0162   1.0184   1.0223
     1.0232   1.0343   1.0400   1.0422   1.0452   1.0455   1.0490   1.0501
     1.0505   1.0575   1.0610   1.0787   1.0884   1.0939   1.0976   1.0994
     1.1041   1.1091   1.1093   1.1160   1.1262   1.1324   1.1330   1.1388
     1.1434   1.1560   1.1775   1.1830   1.1853   1.1923   1.1985   1.2002
     1.2032   1.2063   1.2108   1.2134   1.2138   1.2221   1.2232   1.2262
     1.2301   1.2363   1.2373   1.2400   1.2498   1.2576   1.2604   1.2633
     1.2715   1.2744   1.2762   1.2780   1.2816   1.2887   1.2920   1.2964
     1.3137   1.3194   1.3204   1.3250   1.3270   1.3641   1.3695   1.3834
     1.3901   1.3953   1.3997   1.4105   1.4111   1.4245   1.4248   1.4284
     1.4375   1.4465   1.4500   1.4530   1.4535   1.4560   1.4607   1.4677
     1.4695   1.4730   1.4839   1.4849   1.4891   1.4909   1.4914   1.4996
     1.5009   1.5082   1.5088   1.5091   1.5142   1.5174   1.5184   1.5219
     1.5281   1.5293   1.5356   1.5419   1.5436   1.5469   1.5491   1.5576
     1.5688   1.5713   1.5750   1.5778   1.5848   1.5933   1.5969   1.5991
     1.6038   1.6075   1.6106   1.6119   1.6124   1.6162   1.6165   1.6214
     1.6250   1.6257   1.6302   1.6448   1.6557   1.6574   1.6615   1.6685
     1.6697   1.6707   1.6738   1.6750   1.6782   1.6790   1.6805   1.6822
     1.6823   1.6869   1.6913   1.6943   1.6989   1.7005   1.7033   1.7083
     1.7111   1.7135   1.7155   1.7158   1.7205   1.7234   1.7278   1.7281
     1.7296   1.7333   1.7460   1.7500   1.7555   1.7622   1.7650   1.7681
     1.7696   1.7802   1.7848   1.7872   1.7901   1.7927   1.7986   1.8004
     1.8004   1.8041   1.8149   1.8164   1.8189   1.8243   1.8263   1.8308
     1.8340   1.8380   1.8442   1.8509   1.8531   1.8561   1.8562   1.8574
     1.8599   1.8742   1.8774   1.8817   1.8855   1.8873   1.8937   1.8964
     1.9081   1.9087   1.9099   1.9423   1.9467   1.9650   1.9701   1.9719
     1.9739   1.9795   1.9883   2.1666   2.3568   2.3886   2.4028   2.4718
     2.5131   2.5545   2.6015   2.6336   2.6486   2.6557   2.6589   2.6974
     2.8965   2.9061   2.9305   3.1274   3.1505   3.1962   3.1998   3.4216
     3.5203   3.5429   3.5655   3.5759   3.7535   3.8319   4.0097   4.0557
     4.0765   4.1241   4.1541   4.2626   4.2950   4.3434   4.3526   4.3804
     4.4370   4.4399   4.4404   4.6868   4.9017   4.9318   4.9534   4.9700
     5.0018   5.0133   5.1473   5.1624   5.1830   5.2237   5.2493   5.2851
     5.2869   5.3169   5.3588   5.3817   5.3903   5.4283   5.4411   5.4522
     5.4967   5.5997   5.6753   5.6866   5.7119   5.7564   5.7746   5.8342
     5.8399   5.8762   5.8896   5.9180   6.1888   6.2579   6.2755   6.3159
     6.3232   6.3445   6.3506   6.3814   6.4000   6.5182   6.5281   6.5885
     6.6401   6.8673   6.9054   6.9773   6.9861   7.0264   7.0778   7.3834
     7.4110   7.4308   7.4391   7.5467   7.6180   7.7699   7.8941   7.8963
     7.9058   7.9085   7.9480   7.9911   8.0515   8.1028   8.1193   8.1206
     8.1399   8.1878   8.2087   8.2494   8.2539   8.2560   8.3085   8.3304
     8.3515   8.3977   8.4825   8.5813   8.5924   8.6037   8.6409   8.6853
     8.7469   8.7491   9.0815   9.1056   9.1173   9.1493   9.2272   9.2579
     9.2612   9.2668   9.2683   9.3263   9.3615   9.3767   9.5936   9.6166
     9.6187   9.6207   9.6745   9.7045   9.7052   9.7498   9.8376   9.8403
     9.8713   9.9112   9.9144   9.9635   9.9958  10.0093

          k =-0.5000-0.2165 0.0000 (256328 PWs)   bands (ev):

   -15.2550 -15.2479 -15.2344 -15.2233 -14.5204 -14.5150 -14.5003 -14.4989
   -13.0823 -13.0741 -13.0726 -13.0698 -12.1800 -11.4391 -11.4376 -11.4166
   -11.3974 -11.0371 -11.0335 -11.0245 -11.0233 -10.8224 -10.8178 -10.8060
   -10.7917  -9.1365  -9.1281  -9.1247  -9.1014  -8.1990  -8.1960  -8.1744
    -8.1622  -7.9936  -7.4287  -7.4259  -7.4166  -7.4104  -5.3768  -5.3715
    -5.3647  -5.3629  -5.1167  -4.8355  -4.7883  -4.7799  -4.7787  -4.7305
    -4.7275  -4.6989  -4.6951  -4.4560  -4.4482  -4.4407  -4.3968  -4.3630
    -3.8173  -3.8161  -3.8131  -3.8096  -3.8056  -3.7772  -3.7435  -3.7008
    -3.5928  -3.5854  -3.5750  -3.5714  -3.3948  -3.3792  -3.3515  -3.1650
    -3.1131  -3.1018  -3.0933  -3.0782  -3.0672  -3.0569  -3.0426  -3.0331
    -3.0128  -2.8790  -2.8682  -2.8556  -2.6428  -2.6025  -2.5472  -2.4673
    -2.3451  -2.2149  -2.2108  -2.2072  -2.2024  -2.1871  -2.1546  -2.1456
    -2.1311  -1.8322  -1.7941  -1.7802  -1.7623  -1.7585  -1.7064  -1.7045
    -1.7028  -1.6850  -1.6741  -1.6554  -1.6321  -1.4544  -1.4489  -1.4445
    -1.4278  -1.4238  -1.4178  -1.4133  -1.4049  -1.3353  -1.2496  -1.2225
    -1.2197  -1.2099  -1.1860  -1.1855  -1.1440  -1.1180  -1.1147  -1.1054
    -1.1041  -1.0690  -1.0665  -1.0623  -1.0471  -1.0447  -1.0222  -1.0181
    -1.0171  -1.0052  -1.0043  -0.9997  -0.9907  -0.9872  -0.9785  -0.9783
    -0.9762  -0.9698  -0.9687  -0.9421  -0.9379  -0.9362  -0.9256  -0.9097
    -0.9075  -0.8840  -0.8743  -0.8619  -0.8316  -0.8230  -0.8220  -0.8140
    -0.8089  -0.8076  -0.8014  -0.7913  -0.7771  -0.7720  -0.7670  -0.7604
    -0.7553  -0.7489  -0.7473  -0.7438  -0.7407  -0.7182  -0.7099  -0.7050
    -0.7029  -0.6970  -0.6912  -0.6894  -0.6834  -0.6714  -0.6658  -0.6587
    -0.6563  -0.6432  -0.6383  -0.6318  -0.6303  -0.6231  -0.6034  -0.5371
    -0.5103  -0.5033  -0.4973  -0.4913  -0.4820  -0.4792  -0.4782  -0.4763
    -0.4611  -0.4560  -0.4533  -0.4263  -0.4193  -0.3962  -0.3951  -0.3888
    -0.3829  -0.3792  -0.3706  -0.3654  -0.3624  -0.3609  -0.3525  -0.3403
    -0.3305  -0.3216  -0.3208  -0.3158  -0.3080  -0.3066  -0.2972  -0.2838
    -0.2832  -0.2471  -0.2438  -0.2211  -0.1979  -0.1903  -0.1682  -0.1603
    -0.1566  -0.1533  -0.1448  -0.1271  -0.1177  -0.1104  -0.1082  -0.0882
    -0.0848  -0.0822  -0.0754  -0.0682  -0.0554  -0.0504  -0.0430  -0.0350
    -0.0306  -0.0175  -0.0124  -0.0110  -0.0092   0.0021   0.0377   0.0474
     0.0587   0.0655   0.0688   0.0696   0.1009   0.1049   0.1186   0.1211
     0.1260   0.1289   0.1293   0.1310   0.1314   0.1369   0.1408   0.1416
     0.1769   0.1919   0.2005   0.2026   0.2049   0.2109   0.2113   0.2170
     0.2179   0.2201   0.2250   0.2342   0.2484   0.2510   0.2552   0.2584
     0.2621   0.2631   0.2647   0.2686   0.2820   0.2849   0.2970   0.3048
     0.3141   0.3313   0.3464   0.3577   0.3606   0.3634   0.3781   0.3935
     0.4165   0.4211   0.4265   0.4358   0.4360   0.4371   0.4375   0.4442
     0.4466   0.4550   0.4663   0.4674   0.4679   0.4699   0.4752   0.4781
     0.4787   0.4830   0.4836   0.4875   0.4879   0.4929   0.4954   0.4992
     0.5010   0.5081   0.5205   0.5304   0.5334   0.5367   0.5398   0.5409
     0.5480   0.5534   0.5571   0.5575   0.5735   0.5764   0.5802   0.5819
     0.5868   0.5969   0.6011   0.6167   0.6178   0.6217   0.6349   0.6542
     0.6625   0.6766   0.6818   0.7017   0.7070   0.7309   0.7322   0.7390
     0.7452   0.7469   0.7585   0.7611   0.7713   0.7763   0.7805   0.7819
     0.7848   0.7896   0.7941   0.7999   0.8043   0.8058   0.8156   0.8160
     0.8222   0.8270   0.8294   0.8365   0.8379   0.8431   0.8457   0.8476
     0.8496   0.8502   0.8579   0.8586   0.8671   0.8679   0.8694   0.8761
     0.8819   0.8941   0.8971   0.9044   0.9093   0.9127   0.9168   0.9217
     0.9291   0.9379   0.9399   0.9423   0.9446   0.9497   0.9531   0.9540
     0.9619   0.9668   0.9707   0.9743   0.9803   0.9811   0.9853   0.9865
     0.9907   0.9944   0.9979   0.9983   1.0112   1.0173   1.0262   1.0390
     1.0412   1.0456   1.0471   1.0537   1.0549   1.0552   1.0659   1.0679
     1.0766   1.0800   1.0822   1.0851   1.0969   1.0973   1.0979   1.1002
     1.1101   1.1109   1.1134   1.1176   1.1201   1.1224   1.1332   1.1367
     1.1410   1.1637   1.1665   1.1750   1.1765   1.1796   1.1812   1.1830
     1.1922   1.1951   1.1969   1.2158   1.2207   1.2250   1.2290   1.2334
     1.2475   1.2482   1.2492   1.2539   1.2569   1.2592   1.2746   1.2768
     1.2894   1.2988   1.3026   1.3159   1.3204   1.3367   1.3490   1.3531
     1.3531   1.3674   1.3713   1.3811   1.3837   1.3909   1.3918   1.3959
     1.3968   1.4010   1.4052   1.4089   1.4099   1.4109   1.4146   1.4159
     1.4221   1.4242   1.4287   1.4297   1.4332   1.4338   1.4353   1.4393
     1.4457   1.4471   1.4491   1.4495   1.4541   1.4583   1.4597   1.4612
     1.4794   1.4797   1.4812   1.4880   1.4908   1.4988   1.5048   1.5053
     1.5104   1.5157   1.5167   1.5197   1.5267   1.5284   1.5461   1.5576
     1.5619   1.5630   1.5679   1.5694   1.5721   1.5777   1.5807   1.5816
[...]
     atom    3 type  1   force =    -0.00000037    0.00052194    0.00050253
     atom    4 type  1   force =    -0.00007594    0.00041303    0.00078377
     atom    5 type  1   force =    -0.00004631    0.00084649    0.00050670
     atom    6 type  1   force =     0.00006638    0.00053891   -0.00049319
     atom    7 type  1   force =     0.00004027   -0.00020153    0.00070199
     atom    8 type  1   force =    -0.00002596    0.00047263   -0.00054975
     atom    9 type  1   force =     0.00003152    0.00000776   -0.00147984
     atom   10 type  1   force =     0.00001272   -0.00044898   -0.00025435
     atom   11 type  1   force =    -0.00005520   -0.00005970   -0.00107796
     atom   12 type  1   force =     0.00003279   -0.00038930   -0.00029090
     atom   13 type  1   force =    -0.00005729   -0.00068802    0.00070097
     atom   14 type  1   force =     0.00037025    0.00032156    0.00083580
     atom   15 type  1   force =     0.00003614    0.00044168    0.00092310
     atom   16 type  1   force =    -0.00036510    0.00026852    0.00085776
     atom   17 type  1   force =     0.00003364    0.00020764    0.00040502
     atom   18 type  1   force =     0.00008278    0.00007788   -0.00012501
     atom   19 type  1   force =    -0.00000871   -0.00082250    0.00054156
     atom   20 type  1   force =    -0.00005756    0.00005357   -0.00010248
     atom   21 type  1   force =    -0.00002810    0.00198227    0.00083071
     atom   22 type  1   force =     0.00049507    0.00142340    0.00058514
     atom   23 type  1   force =     0.00003741    0.00016823   -0.00007648
     atom   24 type  1   force =    -0.00047381    0.00145041    0.00059961
     atom   25 type  1   force =     0.00005753    0.00067042   -0.00090248
     atom   26 type  1   force =    -0.00037555    0.00130256    0.00011025
     atom   27 type  1   force =    -0.00005809    0.00122616    0.00016247
     atom   28 type  1   force =     0.00043783    0.00119886    0.00001582
     atom   29 type  1   force =     0.00002339   -0.00049016   -0.00082235
     atom   30 type  1   force =    -0.00012454   -0.00017780   -0.00084320
     atom   31 type  1   force =    -0.00001256   -0.00123994    0.00002848
     atom   32 type  1   force =     0.00012294   -0.00013375   -0.00083745
     atom   33 type  1   force =    -0.00003426   -0.00157355    0.00060241
     atom   34 type  1   force =    -0.00049258   -0.00114126   -0.00032442
     atom   35 type  1   force =     0.00001960    0.00053989   -0.00090582
     atom   36 type  1   force =     0.00057347   -0.00112714   -0.00036376
     atom   37 type  1   force =    -0.00001299   -0.00005961    0.00056102
     atom   38 type  1   force =     0.00042576   -0.00124921    0.00040501
     atom   39 type  1   force =     0.00002832   -0.00021785   -0.00038947
     atom   40 type  1   force =    -0.00042595   -0.00124703    0.00033590
     atom   41 type  1   force =    -0.00002608    0.00065170    0.00021680
     atom   42 type  1   force =    -0.00102344   -0.00010967   -0.00035446
     atom   43 type  1   force =     0.00003086    0.00107922   -0.00000940
     atom   44 type  1   force =     0.00102205   -0.00015618   -0.00033136
     atom   45 type  1   force =     0.00008485   -0.00025658   -0.00066448
     atom   46 type  1   force =    -0.00026353   -0.00079666   -0.00035173
     atom   47 type  1   force =    -0.00005329    0.00033852   -0.00158030
     atom   48 type  1   force =     0.00024039   -0.00087317   -0.00037142
     atom   49 type  1   force =     0.00018926    0.00039501   -0.00178440
     atom   50 type  1   force =    -0.00043298    0.00070761   -0.00076927
     atom   51 type  1   force =     0.00005622    0.00014648   -0.00012866
     atom   52 type  1   force =     0.00036043    0.00074498   -0.00080104
     atom   53 type  1   force =     0.00005688    0.00042388   -0.00063782
     atom   54 type  1   force =    -0.00116590    0.00023157   -0.00035219
     atom   55 type  1   force =    -0.00002508    0.00064427   -0.00194856
     atom   56 type  1   force =     0.00118674    0.00029944   -0.00035909
     atom   57 type  1   force =    -0.00000933   -0.00051659    0.00061304
     atom   58 type  1   force =     0.00000836    0.00011767    0.00048604
     atom   59 type  1   force =    -0.00000639   -0.00053935    0.00008086
     atom   60 type  1   force =     0.00002882    0.00013296    0.00046609
     atom   61 type  1   force =     0.00001907   -0.00128246    0.00021849
     atom   62 type  1   force =    -0.00064763    0.00064867   -0.00011848
     atom   63 type  1   force =     0.00001240   -0.00046784    0.00009140
     atom   64 type  1   force =     0.00063078    0.00052255   -0.00013037
     atom   65 type  1   force =    -0.00005259   -0.00159249    0.00089574
     atom   66 type  1   force =    -0.00065599    0.00013395    0.00070395
     atom   67 type  1   force =     0.00008501   -0.00321156   -0.00255529
     atom   68 type  1   force =     0.00062195    0.00051664    0.00107015
     atom   69 type  1   force =     0.00010098    0.00238594    0.00060099
     atom   70 type  1   force =    -0.00167951    0.00037560   -0.00150683
     atom   71 type  1   force =     0.00006974    0.00379047   -0.00250671
     atom   72 type  1   force =     0.00123380    0.00016538   -0.00059413
     atom   73 type  1   force =     0.00001547    0.00111570    0.00014681
     atom   74 type  1   force =    -0.00087369    0.00006145    0.00049245
     atom   75 type  1   force =     0.00000374    0.00005326    0.00001998
     atom   76 type  1   force =     0.00086938    0.00009316    0.00050120
     atom   77 type  1   force =     0.00002697    0.00013746    0.00018444
     atom   78 type  1   force =    -0.00061386   -0.00040110   -0.00035099
     atom   79 type  1   force =    -0.00002533    0.00036289   -0.00002397
     atom   80 type  1   force =     0.00063245   -0.00040632   -0.00038751
     atom   81 type  1   force =    -0.00002387    0.00128811   -0.00099950
     atom   82 type  1   force =     0.00024943   -0.00059683   -0.00028621
     atom   83 type  1   force =    -0.00002674   -0.00042086   -0.00048283
     atom   84 type  1   force =    -0.00030314   -0.00058854   -0.00024407
     atom   85 type  1   force =     0.00006847    0.00101159   -0.00009366
     atom   86 type  1   force =     0.00137558    0.00220727    0.00190425
     atom   87 type  1   force =    -0.00009484   -0.00110358   -0.00135451
     atom   88 type  1   force =    -0.00127959    0.00231579    0.00194061
     atom   89 type  1   force =     0.00002628    0.00016583   -0.00032279
     atom   90 type  1   force =     0.00015896   -0.00112188    0.00058151
     atom   91 type  1   force =     0.00046870    0.00104012   -0.00411424
     atom   92 type  1   force =    -0.00033416   -0.00145741    0.00065691
     atom   93 type  1   force =     0.00010786    0.00069789    0.00061792
     atom   94 type  1   force =     0.00047567    0.00047664   -0.00037337
     atom   95 type  1   force =    -0.00008476    0.00082265   -0.00092396
     atom   96 type  1   force =    -0.00038624    0.00043248   -0.00036649
     atom   97 type  1   force =    -0.00005521   -0.00114375   -0.00106080
     atom   98 type  1   force =    -0.00069148   -0.00001021   -0.00038902
     atom   99 type  1   force =     0.00004700    0.00046168   -0.00090662
     atom  100 type  1   force =     0.00072395    0.00003938   -0.00040189
     atom  101 type  2   force =     0.00018724    0.00224788    0.00052831
     atom  102 type  2   force =    -0.00174490    0.00188733    0.00169477
     atom  103 type  2   force =     0.00100051    0.00008768   -0.00182555
     atom  104 type  2   force =     0.00084459   -0.00082185   -0.00306361
     atom  105 type  2   force =    -0.00036534    0.00222301   -0.00157827
     atom  106 type  2   force =     0.00143906    0.00191160    0.00063455
     atom  107 type  2   force =     0.00087730   -0.00072010   -0.00048678
     atom  108 type  2   force =    -0.00044337    0.00103840    0.00394450
     atom  109 type  2   force =    -0.00026047    0.00181701   -0.00289103
     atom  110 type  2   force =    -0.00144445    0.00266887    0.00028054
     atom  111 type  2   force =    -0.00112662    0.00118114   -0.00115590
     atom  112 type  2   force =     0.00136843    0.00006131   -0.00165659
     atom  113 type  2   force =     0.00212599    0.00038375    0.00503570
     atom  114 type  2   force =    -0.00191154   -0.00056861    0.00439544
     atom  115 type  2   force =    -0.00080234    0.00046664    0.00188940
     atom  116 type  2   force =     0.00209124    0.00117155    0.00470381
     atom  117 type  2   force =    -0.00060993    0.00068466    0.00204648
     atom  118 type  2   force =    -0.00248832   -0.00210573    0.00129746
     atom  119 type  2   force =     0.00006052    0.00191346   -0.00024968
     atom  120 type  2   force =     0.00003322   -0.00135148   -0.00815551
     atom  121 type  2   force =     0.00161259    0.00046660    0.00264788
     atom  122 type  2   force =     0.00074793   -0.00188458    0.00370808
     atom  123 type  2   force =    -0.00136523    0.00137674   -0.00015143
     atom  124 type  2   force =    -0.00015316   -0.00006635    0.00195426
     atom  125 type  2   force =     0.00266669   -0.00164265    0.00083365
     atom  126 type  2   force =    -0.00268473   -0.00185161    0.00115780
     atom  127 type  2   force =    -0.00164371   -0.00000183    0.00216453
     atom  128 type  2   force =     0.00180585   -0.00443543   -0.00268041
     atom  129 type  2   force =     0.00211213   -0.00061378    0.00367081
     atom  130 type  2   force =     0.00044993   -0.00007214    0.00071433
     atom  131 type  2   force =     0.00050491   -0.00233097   -0.00168383
     atom  132 type  2   force =    -0.00078585   -0.00052718   -0.00222111
     atom  133 type  2   force =    -0.00007451   -0.00049413    0.00567314
     atom  134 type  2   force =    -0.00095524   -0.00017403   -0.00088923
     atom  135 type  2   force =    -0.00236516   -0.00013215    0.00179584
     atom  136 type  2   force =     0.00085902   -0.00285532   -0.00198130
     atom  137 type  2   force =    -0.00000703   -0.00277829    0.00050936
     atom  138 type  2   force =     0.00146189   -0.00034681   -0.00412445
     atom  139 type  2   force =    -0.00059317    0.00009921   -0.00182850
     atom  140 type  2   force =    -0.00102634    0.00301544   -0.00225090
     atom  141 type  2   force =    -0.00073583   -0.00323321   -0.00094036
     atom  142 type  2   force =    -0.00062251   -0.00005220    0.00027564
     atom  143 type  2   force =    -0.00024941    0.00202725   -0.00153780
     atom  144 type  2   force =     0.00047565   -0.00029632    0.00340709
     atom  145 type  2   force =     0.00038014   -0.00189066   -0.00205153
     atom  146 type  2   force =     0.00091786    0.00018589    0.00035409
     atom  147 type  2   force =     0.00062898   -0.00042123   -0.00043631
     atom  148 type  2   force =    -0.00026903    0.00225026   -0.00175753
     atom  149 type  3   force =     0.00304633   -0.00395533   -0.00161229
     atom  150 type  3   force =     0.00281722    0.00115810   -0.00011173
     atom  151 type  2   force =     0.00267893   -0.00283008    0.00607500
     atom  152 type  2   force =    -0.00323200   -0.00261862    0.00448814
     atom  153 type  3   force =    -0.00296101   -0.00397367   -0.00168711
     atom  154 type  3   force =    -0.00303457    0.00118982   -0.00012624

     Total force =     0.030094     Total SCF correction =     0.000549

     number of scf cycles    =  15
     number of bfgs steps    =  14

     energy   old            =  -12726.2519719002 Ry
     energy   new            =  -12726.2532721777 Ry

     CASE: energy  _new < energy  _old

     new trust radius        =       0.0561528452 bohr
     new conv_thr            =       0.0000000100 Ry


ATOMIC_POSITIONS (angstrom)
Cu       0.001223552  -0.029193770   7.316230166
Cu       1.850495070   1.638892226   7.318177462
Cu       3.690261790  -0.041673242   7.308702742
Cu       5.530139024   1.638732471   7.318279576
Cu       0.001477751   3.334759330   7.342042744
Cu       1.842851169   5.070313992   7.373359315
Cu       3.690219210   3.348329509   7.340166585
Cu       5.537859581   5.070419497   7.373997807
Cu       0.001030151   6.817405629   7.389445548
Cu       1.843758247   8.565389898   7.364097733
Cu       3.690896398   6.817893312   7.384995351
Cu       5.536795791   8.565366381   7.364725070
Cu       0.001531120  10.300734590   7.327524919
Cu       1.849017960  12.003033129   7.303925857
Cu       3.690098503  10.289567737   7.326763988
Cu       5.531633670  12.003439465   7.303606302
Cu       0.001204377  13.678798617   7.300734016
Cu       1.839543218  15.346502988   7.307178813
Cu       3.690261482  13.693408767   7.300728927
Cu       5.540924320  15.346297687   7.306846699
Cu       0.001459135   1.623095184   9.181882622
Cu       1.844330801  -0.045222299   9.189697303
Cu       3.690444077   1.619174550   9.172183030
Cu       5.536495003  -0.045677713   9.189239433
Cu       0.001606673   5.051432613   9.161060213
Cu       1.846483879   3.316064423   9.164187156
Cu       3.690800657   5.052812199   9.162891152
Cu       5.534481035   3.316303675   9.164395897
Cu       0.001578636   8.589916345   9.152584880
Cu       1.846556872   6.822059825   9.161823463
Cu       3.690538380   8.589980320   9.154302558
Cu       5.534560222   6.822084560   9.162260942
Cu       0.001443020  12.023469314   9.162047212
Cu       1.845951424  10.328272576   9.148906571
Cu       3.690316449  12.024006177   9.156839880
Cu       5.534586459  10.328592830   9.148456566
Cu       0.001483737  15.342069430   9.188219007
Cu       1.845750289  13.692169564   9.175696466
Cu       3.690264500  15.342955933   9.195376225
Cu       5.535106330  13.692165909   9.176239458
Cu       0.002185143  -0.034398989  11.083407880
Cu       1.848321243   1.637962655  11.047249538
Cu       3.690453887  -0.044950505  11.076725341
Cu       5.533443033   1.637064134  11.045972495
Cu       0.001773503   3.336372415  11.005016006
Cu       1.840057716   5.059006489  10.948645698
Cu       3.691211550   3.318955067  10.981786019
Cu       5.542053506   5.058758716  10.948141211
Cu       0.002465416   6.821122715  10.933779715
Cu       1.838925627   8.593447428  10.934511067
Cu       3.690108797   6.823445216  10.929935893
Cu       5.542584702   8.594764887  10.933654822
Cu       0.001576989  10.320440572  10.984013675
Cu       1.849476688  12.015951070  11.025201659
Cu       3.690677845  10.334011079  10.962699149
Cu       5.531625786  12.015169006  11.025315786
Cu       0.001370312  13.677400400  11.071826317
Cu       1.844419190  15.338937844  11.093386824
Cu       3.690905024  13.684818969  11.070040760
Cu       5.536956506  15.339516319  11.093539145
Cu       0.002913078   1.686556309  12.914264459
Cu       1.848858213  -0.006283449  12.966652393
Cu       3.690946646   1.674853910  12.891126345
Cu       5.533877015  -0.005438912  12.966571260
Cu       0.003601564   5.097949099  12.761218598
Cu       1.844143471   3.371165455  12.832532748
Cu       3.691474294   5.057642263  12.710775654
Cu       5.539254697   3.368695990  12.829249451
Cu       0.002184920   8.569241893  12.735897197
Cu       1.837297764   6.835771527  12.680968809
Cu       3.690748713   8.613191486  12.687047923
Cu       5.547115683   6.837031717  12.676270293
Cu       0.001658646  11.964494009  12.908038560
Cu       1.842622260  10.298004641  12.804331606
Cu       3.690842098  11.967570022  12.890656619
Cu       5.539083756  10.297586756  12.804896789
Cu       0.001804184  15.337131286  12.977618218
Cu       1.848399660  13.645787482  12.962019444
Cu       3.691476648  15.338232801  12.986170859
Cu       5.533381620  13.645716818  12.961946782
Cu       0.002747914   0.014734662  14.798635302
Cu       1.832881351   1.752749835  14.766812640
Cu       3.692155374   0.058910107  14.802329934
Cu       5.551722333   1.752527597  14.766027134
Cu       0.002983685   3.456141923  14.694727511
Cu       1.838025623   5.148706317  14.541813679
Cu       3.693352893   3.413158007  14.652652700
Cu       5.548003082   5.147469689  14.537181119
Cu       0.003665040   6.854432322  14.518627562
Cu       1.825227255   8.560542857  14.517933898
Cu       3.691597878   6.878861492  14.286909011
Cu       5.557963827   8.559219817  14.517835759
Cu       0.000959385  10.201321806  14.697229976
Cu       1.830391037  11.890901346  14.763861596
Cu       3.692163953  10.218680716  14.664792661
Cu       5.551101988  11.893021591  14.764026901
Cu       0.003085988  13.626191710  14.802405882
Cu       1.869411797  15.338257262  14.805436883
Cu       3.689949709  13.579713397  14.793899933
Cu       5.513452770  15.337261431  14.805331714
C       -0.000544510   0.725932260  17.877233665
C        0.001057045   2.143250647  18.071318060
C        1.229369177   0.011285731  17.813581444
C        1.229447555   2.849353451  18.203318159
C        2.457232937   0.726955141  17.873219110
C        2.458248167   2.141604593  18.077318548
C        3.688134978   0.014300217  17.792218075
C        3.688939871   2.847370825  18.211185560
C        4.920120541   0.725549771  17.876804450
C        4.919144691   2.139784705  18.078669534
C        6.149413724   0.010663245  17.812414564
C        6.146913837   2.846749386  18.203965246
C       -0.001590239   4.963570397  18.528144635
C        0.000458349   6.385780072  18.630821732
C        1.232077472   4.256161919  18.455050348
C        1.229604663   7.102853366  18.673519988
C        2.458791224   4.958092367  18.645973232
C        2.458948770   6.388361719  18.801709370
C        3.688294403   4.246658291  18.523988949
C        3.689682243   7.112959204  18.848806029
C        4.918367477   4.957420010  18.644445430
C        4.920100326   6.388001195  18.798777307
C        6.145330198   4.253394761  18.459709154
C        6.150300830   7.103674095  18.680512830
C       -0.000869145   9.230387993  18.365732078
C        0.001191814  10.638700074  18.120400450
C        1.228178314   8.522921834  18.509266604
C        1.230905931  11.347854230  18.025057348
C        2.458728027   9.233121014  18.430329216
C        2.459049439  10.638662589  18.163031102
C        3.687870614   8.531344102  18.616978665
C        3.689566530  11.344879894  18.063656283
C        4.917469593   9.231416603  18.426829734
C        4.918860807  10.637075467  18.164494860
C        6.150421613   8.522977607  18.512099350
C        6.146324497  11.345740797  18.024117179
C       -0.000844474  13.478509226  17.777710447
C       -0.000793499  14.905763615  17.736773564
C        1.232236373  12.765615380  17.852049841
C        1.228618140  15.621821368  17.738112272
C        2.461456350  13.478484907  17.796923623
C        2.460993793  14.905932733  17.721221477
C        3.689180773  12.761115520  17.870695023
C        3.687829792  15.625964325  17.717246243
C        4.916344592  13.477547461  17.797295147
C        4.915994071  14.905534043  17.721913677
C        6.145831476  12.763815467  17.847213220
C        6.147280019  15.622179535  17.734925247
H        2.451810703   7.455153200  16.496700242
H        2.477733513   5.624648844  16.371159182
C        2.986426470   6.574694584  16.128964333
C        4.417019297   6.586668366  16.131508095
H        4.940219683   7.476329095  16.494574980
H        4.947811676   5.647083403  16.367675756



     Writing output data file gc.save
     Check: negative starting charge=   -0.001716
     NEW-OLD atomic charge density approx. for the potential
     Check: negative starting charge=   -0.001711

     negative rho (up, down):  1.679E-03 0.000E+00

     total cpu time spent up to now is    54038.5 secs

     Self-consistent Calculation

     iteration #  1     ecut=    80.00 Ry     beta=0.70
     Davidson diagonalization with overlap
