
     Program PWSCF v.5.4.0 starts on 10Apr2017 at 10:46:44 

     This program is part of the open-source Quantum ESPRESSO suite
     for quantum simulation of materials; please cite
         "P. Giannozzi et al., J. Phys.:Condens. Matter 21 395502 (2009);
          URL http://www.quantum-espresso.org", 
     in publications or presentations arising from this work. More details at
     http://www.quantum-espresso.org/quote

     Parallel version (MPI & OpenMP), running on      56 processor cores
     Number of MPI processes:                56
     Threads/MPI process:                     1
     R & G space division:  proc/nbgrp/npool/nimage =      56
     Waiting for input...
     Reading input from standard input

     Current dimensions of program PWSCF are:
     Max number of different atomic species (ntypx) = 10
     Max number of k-points (npk) =  40000
     Max angular momentum in pseudopotentials (lmaxx) =  3

     -------------------------------------
     Parameters for Dispersion Correction:
     -------------------------------------
       atom      VdW radius       C_6     

        Cu         2.952        374.666
        C          2.744         60.710
        H          1.892          4.857

     Subspace diagonalization in iterative solution of the eigenvalue problem:
     one sub-group per band group will be used
     scalapack distributed-memory algorithm (size of sub-group:  5*  5 procs)

 
     Parallelization info
     --------------------
     sticks:   dense  smooth     PW     G-vecs:    dense   smooth      PW
     Min         204     204     54                36612    36612    4962
     Max         205     205     55                36617    36617    4968
     Sum       11433   11433   3039              2050409  2050409  278033
 


     bravais-lattice index     =            0
     lattice parameter (alat)  =      13.9425  a.u.
     unit-cell volume          =   21209.0878 (a.u.)^3
     number of atoms/cell      =          154
     number of atomic types    =            3
     number of electrons       =      1304.00
     number of Kohn-Sham states=          782
     kinetic-energy cutoff     =      80.0000  Ry
     charge density cutoff     =     320.0000  Ry
     convergence threshold     =      1.0E-08
     mixing beta               =       0.7000
     number of iterations used =            8  local-TF  mixing
     Exchange-correlation      =  SLA  PW   PBE  PBE ( 1  4  3  4 0 0)
     nstep                     =           50


     celldm(1)=  13.942539  celldm(2)=   0.000000  celldm(3)=   0.000000
     celldm(4)=   0.000000  celldm(5)=   0.000000  celldm(6)=   0.000000

     crystal axes: (cart. coord. in units of alat)
               a(1) = (   1.000000   0.000000   0.000000 )  
               a(2) = (   0.000000   2.309401   0.000000 )  
               a(3) = (   0.000000   0.000000   3.388418 )  

     reciprocal axes: (cart. coord. in units 2 pi/alat)
               b(1) = (  1.000000  0.000000  0.000000 )  
               b(2) = (  0.000000  0.433013  0.000000 )  
               b(3) = (  0.000000  0.000000  0.295123 )  


     PseudoPot. # 1 for Cu read from file:
     /home/549/hxw549/Short/pseudopotentials/Cu.pbe-n-van_ak.UPF
     MD5 check sum: 601f7c30f7467666bec936e0661ce3e1
     Pseudo is Ultrasoft + core correction, Zval = 11.0
     Generated by new atomic code, or converted to UPF format
     Using radial grid of  867 points,  6 beta functions with: 
                l(1) =   0
                l(2) =   0
                l(3) =   1
                l(4) =   1
                l(5) =   2
                l(6) =   2
     Q(r) pseudized with  8 coefficients,  rinner =    1.400   1.400   1.400
                                                       1.400   1.400

     PseudoPot. # 2 for C  read from file:
     /home/549/hxw549/Short/pseudopotentials/C.pbe-mt_gipaw.UPF
     MD5 check sum: 5ac2f21f2c440b14befe521540822c15
     Pseudo is Norm-conserving, Zval =  4.0
     Generated by new atomic code, or converted to UPF format
     Using radial grid of 1073 points,  1 beta functions with: 
                l(1) =   0

     PseudoPot. # 3 for H  read from file:
     /home/549/hxw549/Short/pseudopotentials/H.pbe-van_ak.UPF
     MD5 check sum: 077eb6d537518a38cb46c6de387227b7
     Pseudo is Ultrasoft, Zval =  1.0
     Generated by new atomic code, or converted to UPF format
     Using radial grid of  615 points,  1 beta functions with: 
                l(1) =   0
     Q(r) pseudized with  8 coefficients,  rinner =    0.800

     atomic species   valence    mass     pseudopotential
        Cu            11.00    63.54600     Cu( 1.00)
        C              4.00    12.01070     C ( 1.00)
        H              1.00     1.00783     H ( 1.00)

     No symmetry found



   Cartesian axes

     site n.     atom                  positions (alat units)
         1           Cu  tau(   1) = (   0.0001658  -0.0039568   0.9916179  )
         2           Cu  tau(   2) = (   0.2508100   0.2221301   0.9918818  )
         3           Cu  tau(   3) = (   0.5001660  -0.0056483   0.9905976  )
         4           Cu  tau(   4) = (   0.7495369   0.2221084   0.9918957  )
         5           Cu  tau(   5) = (   0.0002003   0.4519824   0.9951164  )
         6           Cu  tau(   6) = (   0.2497740   0.6872138   0.9993610  )
         7           Cu  tau(   7) = (   0.5001602   0.4538216   0.9948622  )
         8           Cu  tau(   8) = (   0.7505834   0.6872281   0.9994475  )
         9           Cu  tau(   9) = (   0.0001396   0.9240088   1.0015413  )
        10           Cu  tau(  10) = (   0.2498970   1.1609249   0.9981057  )
        11           Cu  tau(  11) = (   0.5002520   0.9240749   1.0009381  )
        12           Cu  tau(  12) = (   0.7504392   1.1609217   0.9981907  )
        13           Cu  tau(  13) = (   0.0002075   1.3961279   0.9931487  )
        14           Cu  tau(  14) = (   0.2506098   1.6268518   0.9899502  )
        15           Cu  tau(  15) = (   0.5001439   1.3946143   0.9930456  )
        16           Cu  tau(  16) = (   0.7497395   1.6269069   0.9899069  )
        17           Cu  tau(  17) = (   0.0001632   1.8539796   0.9895176  )
        18           Cu  tau(  18) = (   0.2493257   2.0800148   0.9903911  )
        19           Cu  tau(  19) = (   0.5001660   1.8559598   0.9895169  )
        20           Cu  tau(  20) = (   0.7509987   2.0799870   0.9903461  )
        21           Cu  tau(  21) = (   0.0001978   0.2199890   1.2444823  )
        22           Cu  tau(  22) = (   0.2499746  -0.0061293   1.2455415  )
        23           Cu  tau(  23) = (   0.5001907   0.2194576   1.2431677  )
        24           Cu  tau(  24) = (   0.7503984  -0.0061910   1.2454794  )
        25           Cu  tau(  25) = (   0.0002178   0.6846546   1.2416601  )
        26           Cu  tau(  26) = (   0.2502664   0.4494485   1.2420839  )
        27           Cu  tau(  27) = (   0.5002390   0.6848416   1.2419083  )
        28           Cu  tau(  28) = (   0.7501254   0.4494809   1.2421122  )
        29           Cu  tau(  29) = (   0.0002140   1.1642491   1.2405114  )
        30           Cu  tau(  30) = (   0.2502763   0.9246397   1.2417636  )
        31           Cu  tau(  31) = (   0.5002035   1.1642578   1.2407442  )
        32           Cu  tau(  32) = (   0.7501362   0.9246430   1.2418229  )
        33           Cu  tau(  33) = (   0.0001956   1.6296217   1.2417939  )
        34           Cu  tau(  34) = (   0.2501942   1.3998603   1.2400129  )
        35           Cu  tau(  35) = (   0.5001734   1.6296944   1.2410881  )
        36           Cu  tau(  36) = (   0.7501397   1.3999037   1.2399519  )
        37           Cu  tau(  37) = (   0.0002011   2.0794139   1.2453411  )
        38           Cu  tau(  38) = (   0.2501670   1.8557918   1.2436439  )
        39           Cu  tau(  39) = (   0.5001664   2.0795340   1.2463112  )
        40           Cu  tau(  40) = (   0.7502102   1.8557914   1.2437175  )
        41           Cu  tau(  41) = (   0.0002962  -0.0046623   1.5022088  )
        42           Cu  tau(  42) = (   0.2505154   0.2220041   1.4973080  )
        43           Cu  tau(  43) = (   0.5001920  -0.0060924   1.5013031  )
        44           Cu  tau(  44) = (   0.7499848   0.2218823   1.4971350  )
        45           Cu  tau(  45) = (   0.0002404   0.4522010   1.4915839  )
        46           Cu  tau(  46) = (   0.2493954   0.6856812   1.4839436  )
        47           Cu  tau(  47) = (   0.5002947   0.4498403   1.4884353  )
        48           Cu  tau(  48) = (   0.7511518   0.6856476   1.4838752  )
        49           Cu  tau(  49) = (   0.0003342   0.9245126   1.4819287  )
        50           Cu  tau(  50) = (   0.2492420   1.1647277   1.4820278  )
        51           Cu  tau(  51) = (   0.5001453   0.9248274   1.4814077  )
        52           Cu  tau(  52) = (   0.7512238   1.1649063   1.4819118  )
        53           Cu  tau(  53) = (   0.0002137   1.3987987   1.4887373  )
        54           Cu  tau(  54) = (   0.2506720   1.6286027   1.4943197  )
        55           Cu  tau(  55) = (   0.5002224   1.4006380   1.4858484  )
        56           Cu  tau(  56) = (   0.7497385   1.6284967   1.4943352  )
        57           Cu  tau(  57) = (   0.0001857   1.8537901   1.5006391  )
        58           Cu  tau(  58) = (   0.2499865   2.0789894   1.5035613  )
        59           Cu  tau(  59) = (   0.5002532   1.8547956   1.5003971  )
        60           Cu  tau(  60) = (   0.7504610   2.0790678   1.5035820  )
        61           Cu  tau(  61) = (   0.0003948   0.2285903   1.7503571  )
        62           Cu  tau(  62) = (   0.2505882  -0.0008516   1.7574576  )
        63           Cu  tau(  63) = (   0.5002588   0.2270042   1.7472211  )
        64           Cu  tau(  64) = (   0.7500436  -0.0007372   1.7574466  )
        65           Cu  tau(  65) = (   0.0004881   0.6909593   1.7296138  )
        66           Cu  tau(  66) = (   0.2499492   0.4569167   1.7392795  )
        67           Cu  tau(  67) = (   0.5003303   0.6854963   1.7227769  )
        68           Cu  tau(  68) = (   0.7507725   0.4565820   1.7388345  )
        69           Cu  tau(  69) = (   0.0002961   1.1614470   1.7261818  )
        70           Cu  tau(  70) = (   0.2490213   0.9264981   1.7187370  )
        71           Cu  tau(  71) = (   0.5002320   1.1674038   1.7195610  )
        72           Cu  tau(  72) = (   0.7518379   0.9266689   1.7181002  )
        73           Cu  tau(  73) = (   0.0002248   1.6216284   1.7495133  )
        74           Cu  tau(  74) = (   0.2497430   1.3957578   1.7354572  )
        75           Cu  tau(  75) = (   0.5002447   1.6220453   1.7471574  )
        76           Cu  tau(  76) = (   0.7507493   1.3957012   1.7355338  )
        77           Cu  tau(  77) = (   0.0002445   2.0787446   1.7589439  )
        78           Cu  tau(  78) = (   0.2505260   1.8495054   1.7568297  )
        79           Cu  tau(  79) = (   0.5003307   2.0788939   1.7601031  )
        80           Cu  tau(  80) = (   0.7499764   1.8494958   1.7568198  )
        81           Cu  tau(  81) = (   0.0003724   0.0019971   2.0057586  )
        82           Cu  tau(  82) = (   0.2484227   0.2375620   2.0014455  )
        83           Cu  tau(  83) = (   0.5004227   0.0079845   2.0062594  )
        84           Cu  tau(  84) = (   0.7524623   0.2375319   2.0013390  )
        85           Cu  tau(  85) = (   0.0004044   0.4684342   1.9916753  )
        86           Cu  tau(  86) = (   0.2491200   0.6978388   1.9709498  )
        87           Cu  tau(  87) = (   0.5005850   0.4626083   1.9859726  )
        88           Cu  tau(  88) = (   0.7519582   0.6976712   1.9703220  )
        89           Cu  tau(  89) = (   0.0004967   0.9290273   1.9678073  )
        90           Cu  tau(  90) = (   0.2473853   1.1602680   1.9677132  )
        91           Cu  tau(  91) = (   0.5003471   0.9323384   1.9364009  )
        92           Cu  tau(  92) = (   0.7533082   1.1600886   1.9676999  )
        93           Cu  tau(  93) = (   0.0001300   1.3826538   1.9920144  )
        94           Cu  tau(  94) = (   0.2480852   1.6116539   2.0010455  )
        95           Cu  tau(  95) = (   0.5004238   1.3850065   1.9876180  )
        96           Cu  tau(  96) = (   0.7523782   1.6119412   2.0010679  )
        97           Cu  tau(  97) = (   0.0004183   1.8468494   2.0062696  )
        98           Cu  tau(  98) = (   0.2533740   2.0788972   2.0066805  )
        99           Cu  tau(  99) = (   0.5001237   1.8405499   2.0051168  )
       100           Cu  tau( 100) = (   0.7472753   2.0787622   2.0066662  )
       101           C   tau( 101) = (  -0.0000738   0.0983905   2.4230217  )
       102           C   tau( 102) = (   0.0001433   0.2904892   2.4493273  )
       103           C   tau( 103) = (   0.1666247   0.0015296   2.4143945  )
       104           C   tau( 104) = (   0.1666353   0.3861920   2.4672182  )
       105           C   tau( 105) = (   0.3330453   0.0985291   2.4224776  )
       106           C   tau( 106) = (   0.3331829   0.2902661   2.4501406  )
       107           C   tau( 107) = (   0.4998777   0.0019382   2.4114990  )
       108           C   tau( 108) = (   0.4999868   0.3859233   2.4682845  )
       109           C   tau( 109) = (   0.6668570   0.0983386   2.4229636  )
       110           C   tau( 110) = (   0.6667248   0.2900194   2.4503237  )
       111           C   tau( 111) = (   0.8334714   0.0014453   2.4142364  )
       112           C   tau( 112) = (   0.8331326   0.3858391   2.4673059  )
       113           C   tau( 113) = (  -0.0002155   0.6727461   2.5112441  )
       114           C   tau( 114) = (   0.0000621   0.8655077   2.5251606  )
       115           C   tau( 115) = (   0.1669917   0.5768663   2.5013371  )
       116           C   tau( 116) = (   0.1666566   0.9626975   2.5309478  )
       117           C   tau( 117) = (   0.3332565   0.6720036   2.5272142  )
       118           C   tau( 118) = (   0.3332779   0.8658576   2.5483222  )
       119           C   tau( 119) = (   0.4998994   0.5755782   2.5106808  )
       120           C   tau( 120) = (   0.5000875   0.9640672   2.5547055  )
       121           C   tau( 121) = (   0.6666194   0.6719125   2.5270071  )
       122           C   tau( 122) = (   0.6668543   0.8658088   2.5479247  )
       123           C   tau( 123) = (   0.8329179   0.5764912   2.5019686  )
       124           C   tau( 124) = (   0.8335916   0.9628087   2.5318956  )
       125           C   tau( 125) = (  -0.0001178   1.2510566   2.4892312  )
       126           C   tau( 126) = (   0.0001615   1.4419346   2.4559798  )
       127           C   tau( 127) = (   0.1664633   1.1551689   2.5086854  )
       128           C   tau( 128) = (   0.1668330   1.5380510   2.4430573  )
       129           C   tau( 129) = (   0.3332479   1.2514270   2.4979865  )
       130           C   tau( 130) = (   0.3332915   1.4419295   2.4617578  )
       131           C   tau( 131) = (   0.4998419   1.1563105   2.5232844  )
       132           C   tau( 132) = (   0.5000718   1.5376479   2.4482889  )
       133           C   tau( 133) = (   0.6664977   1.2511960   2.4975122  )
       134           C   tau( 134) = (   0.6666863   1.4417144   2.4619562  )
       135           C   tau( 135) = (   0.8336080   1.1551765   2.5090694  )
       136           C   tau( 136) = (   0.8330527   1.5377646   2.4429299  )
       137           C   tau( 137) = (  -0.0001145   1.8268330   2.4095327  )
       138           C   tau( 138) = (  -0.0001075   2.0202784   2.4039842  )
       139           C   tau( 139) = (   0.1670133   1.7302097   2.4196084  )
       140           C   tau( 140) = (   0.1665229   2.1173305   2.4041657  )
       141           C   tau( 141) = (   0.3336177   1.8268297   2.4121368  )
       142           C   tau( 142) = (   0.3335550   2.0203013   2.4018764  )
       143           C   tau( 143) = (   0.5000195   1.7295998   2.4221355  )
       144           C   tau( 144) = (   0.4998364   2.1178921   2.4013376  )
       145           C   tau( 145) = (   0.6663453   1.8267027   2.4121871  )
       146           C   tau( 146) = (   0.6662977   2.0202473   2.4019702  )
       147           C   tau( 147) = (   0.8329859   1.7299658   2.4189529  )
       148           C   tau( 148) = (   0.8331822   2.1173791   2.4037337  )
       149           H   tau( 149) = (   0.3323104   1.0104471   2.2359088  )
       150           H   tau( 150) = (   0.3358239   0.7623465   2.2188933  )
       151           C   tau( 151) = (   0.4047705   0.8911126   2.1860670  )
       152           C   tau( 152) = (   0.5986683   0.8927355   2.1864118  )
       153           H   tau( 153) = (   0.6695812   1.0133172   2.2356207  )
       154           H   tau( 154) = (   0.6706102   0.7653872   2.2184212  )

     number of k points=     6  gaussian smearing, width (Ry)=  0.1000
                       cart. coord. in units 2pi/alat
        k(    1) = (   0.0000000   0.0000000   0.0000000), wk =   0.2500000
        k(    2) = (   0.0000000  -0.2165064   0.0000000), wk =   0.2500000
        k(    3) = (   0.2500000   0.0000000   0.0000000), wk =   0.5000000
        k(    4) = (   0.2500000  -0.2165064   0.0000000), wk =   0.5000000
        k(    5) = (  -0.5000000   0.0000000   0.0000000), wk =   0.2500000
        k(    6) = (  -0.5000000  -0.2165064   0.0000000), wk =   0.2500000

     Dense  grid:  2050409 G-vectors     FFT dimensions: (  80, 192, 270)

     Largest allocated arrays     est. size (Mb)     dimensions
        Kohn-Sham Wavefunctions        54.94 Mb     (    4604,  782)
        NL pseudopotentials           130.25 Mb     (    4604, 1854)
        Each V/rho on FFT grid          1.17 Mb     (   76800)
        Each G-vector array             0.28 Mb     (   36616)
        G-vector shells                 0.14 Mb     (   17932)
     Largest temporary arrays     est. size (Mb)     dimensions
        Auxiliary wavefunctions       219.75 Mb     (    4604, 3128)
        Each subspace H/S matrix        5.96 Mb     (     625,  625)
        Each <psi_i|beta_j> matrix     22.12 Mb     (    1854,  782)
        Arrays for rho mixing           9.38 Mb     (   76800,    8)

     Initial potential from superposition of free atoms
     Check: negative starting charge=   -0.001711

     starting charge 1277.81747, renormalised to 1304.00000

     negative rho (up, down):  1.746E-03 0.000E+00
     Starting wfc are 1304 randomized atomic wfcs

     total cpu time spent up to now is      108.7 secs

     Self-consistent Calculation

     iteration #  1     ecut=    80.00 Ry     beta=0.70
     Davidson diagonalization with overlap
     c_bands:  4 eigenvalues not converged
     c_bands:  4 eigenvalues not converged
     c_bands:  5 eigenvalues not converged
     c_bands:  3 eigenvalues not converged
     ethr =  1.00E-04,  avg # of iterations = 41.3

     negative rho (up, down):  2.705E+01 0.000E+00

     total cpu time spent up to now is     2344.4 secs

     total energy              =   -9608.03367604 Ry
     Harris-Foulkes estimate   =  -17809.32236186 Ry
     estimated scf accuracy    <  200285.80449248 Ry

     iteration #  2     ecut=    80.00 Ry     beta=0.70
     Davidson diagonalization with overlap
     ethr =  1.00E-02,  avg # of iterations = 13.3

     negative rho (up, down):  3.175E+01 0.000E+00

     total cpu time spent up to now is     3335.7 secs

     total energy              =  -11900.56390976 Ry
     Harris-Foulkes estimate   =  -13777.73644987 Ry
     estimated scf accuracy    <   32212.52923464 Ry

     iteration #  3     ecut=    80.00 Ry     beta=0.70
     Davidson diagonalization with overlap
     c_bands:  1 eigenvalues not converged
     ethr =  1.00E-02,  avg # of iterations = 21.0

     negative rho (up, down):  3.316E+01 0.000E+00

     total cpu time spent up to now is     4313.2 secs

     total energy              =  -12255.86717423 Ry
     Harris-Foulkes estimate   =  -13648.27546088 Ry
     estimated scf accuracy    <    7230.65112539 Ry

     iteration #  4     ecut=    80.00 Ry     beta=0.70
     Davidson diagonalization with overlap
     ethr =  1.00E-02,  avg # of iterations =  4.7

     negative rho (up, down):  2.273E+01 0.000E+00

     total cpu time spent up to now is     4811.2 secs

     total energy              =  -12869.68116018 Ry
     Harris-Foulkes estimate   =  -13096.54762290 Ry
     estimated scf accuracy    <     825.76380898 Ry

     iteration #  5     ecut=    80.00 Ry     beta=0.70
     Davidson diagonalization with overlap
     ethr =  1.00E-02,  avg # of iterations =  3.0

     negative rho (up, down):  1.900E+01 0.000E+00

     total cpu time spent up to now is     5080.3 secs

     total energy              =  -12885.40576537 Ry
     Harris-Foulkes estimate   =  -12944.53591865 Ry
     estimated scf accuracy    <    1638.84495368 Ry

     iteration #  6     ecut=    80.00 Ry     beta=0.70
     Davidson diagonalization with overlap
     ethr =  1.00E-02,  avg # of iterations =  1.5

     negative rho (up, down):  1.463E+01 0.000E+00

     total cpu time spent up to now is     5253.6 secs

     total energy              =  -12840.58473088 Ry
     Harris-Foulkes estimate   =  -12918.47569986 Ry
     estimated scf accuracy    <     891.39868092 Ry

     iteration #  7     ecut=    80.00 Ry     beta=0.70
     Davidson diagonalization with overlap
     ethr =  1.00E-02,  avg # of iterations =  2.2

     negative rho (up, down):  8.931E+00 0.000E+00

     total cpu time spent up to now is     5445.8 secs

     total energy              =  -12829.18513977 Ry
     Harris-Foulkes estimate   =  -12879.10427429 Ry
     estimated scf accuracy    <     602.75188040 Ry

     iteration #  8     ecut=    80.00 Ry     beta=0.70
     Davidson diagonalization with overlap
     ethr =  1.00E-02,  avg # of iterations =  2.0

     negative rho (up, down):  6.789E+00 0.000E+00

     total cpu time spent up to now is     5625.2 secs

     total energy              =  -12805.33510379 Ry
     Harris-Foulkes estimate   =  -12846.45397686 Ry
     estimated scf accuracy    <     726.58911371 Ry

     iteration #  9     ecut=    80.00 Ry     beta=0.70
     Davidson diagonalization with overlap
     ethr =  1.00E-02,  avg # of iterations =  2.8

     negative rho (up, down):  6.020E+00 0.000E+00

     total cpu time spent up to now is     5813.8 secs

     total energy              =  -12805.84023764 Ry
     Harris-Foulkes estimate   =  -12820.53804294 Ry
     estimated scf accuracy    <     336.99158672 Ry

     iteration # 10     ecut=    80.00 Ry     beta=0.70
     Davidson diagonalization with overlap
     ethr =  1.00E-02,  avg # of iterations =  1.0

     negative rho (up, down):  3.249E+00 0.000E+00

     total cpu time spent up to now is     5982.3 secs

     total energy              =  -12780.49477350 Ry
     Harris-Foulkes estimate   =  -12810.70646387 Ry
     estimated scf accuracy    <     234.37072032 Ry

     iteration # 11     ecut=    80.00 Ry     beta=0.70
     Davidson diagonalization with overlap
     ethr =  1.00E-02,  avg # of iterations =  2.3

     negative rho (up, down):  7.111E-01 0.000E+00

     total cpu time spent up to now is     6166.3 secs

     total energy              =  -12742.44213920 Ry
     Harris-Foulkes estimate   =  -12789.22531418 Ry
     estimated scf accuracy    <     281.46069277 Ry

     iteration # 12     ecut=    80.00 Ry     beta=0.70
     Davidson diagonalization with overlap
     ethr =  1.00E-02,  avg # of iterations =  2.0

     negative rho (up, down):  1.224E+00 0.000E+00

     total cpu time spent up to now is     6347.8 secs

     total energy              =  -12753.87062143 Ry
     Harris-Foulkes estimate   =  -12763.22033798 Ry
     estimated scf accuracy    <     216.69841889 Ry

     iteration # 13     ecut=    80.00 Ry     beta=0.70
     Davidson diagonalization with overlap
     ethr =  1.00E-02,  avg # of iterations =  2.0

     negative rho (up, down):  6.897E-01 0.000E+00

     total cpu time spent up to now is     6527.3 secs

     total energy              =  -12742.96810251 Ry
     Harris-Foulkes estimate   =  -12768.48431029 Ry
     estimated scf accuracy    <     127.70421859 Ry

     iteration # 14     ecut=    80.00 Ry     beta=0.70
     Davidson diagonalization with overlap
     ethr =  9.79E-03,  avg # of iterations =  2.0

     negative rho (up, down):  1.809E+00 0.000E+00

     total cpu time spent up to now is     6707.2 secs

     total energy              =  -12738.26030175 Ry
     Harris-Foulkes estimate   =  -12752.30858992 Ry
     estimated scf accuracy    <     107.39011567 Ry

     iteration # 15     ecut=    80.00 Ry     beta=0.70
     Davidson diagonalization with overlap
     ethr =  8.24E-03,  avg # of iterations =  1.0

     negative rho (up, down):  2.134E+00 0.000E+00

     total cpu time spent up to now is     6874.7 secs

     total energy              =  -12739.90508117 Ry
     Harris-Foulkes estimate   =  -12744.03708660 Ry
     estimated scf accuracy    <      50.30257321 Ry

     iteration # 16     ecut=    80.00 Ry     beta=0.70
     Davidson diagonalization with overlap
     ethr =  3.86E-03,  avg # of iterations =  1.0

     negative rho (up, down):  4.450E+00 0.000E+00

     total cpu time spent up to now is     7042.5 secs

     total energy              =  -12735.08459667 Ry
     Harris-Foulkes estimate   =  -12740.46304092 Ry
     estimated scf accuracy    <      38.51101129 Ry

     iteration # 17     ecut=    80.00 Ry     beta=0.70
     Davidson diagonalization with overlap
     ethr =  2.95E-03,  avg # of iterations =  1.3

     negative rho (up, down):  4.452E+00 0.000E+00

     total cpu time spent up to now is     7213.7 secs

     total energy              =  -12732.49312678 Ry
     Harris-Foulkes estimate   =  -12736.53661122 Ry
     estimated scf accuracy    <      29.86449561 Ry

     iteration # 18     ecut=    80.00 Ry     beta=0.70
     Davidson diagonalization with overlap
     ethr =  2.29E-03,  avg # of iterations =  2.8

     negative rho (up, down):  4.050E+00 0.000E+00

     total cpu time spent up to now is     7402.3 secs

     total energy              =  -12733.04534959 Ry
     Harris-Foulkes estimate   =  -12734.00456066 Ry
     estimated scf accuracy    <      13.93135376 Ry

     iteration # 19     ecut=    80.00 Ry     beta=0.70
     Davidson diagonalization with overlap
     ethr =  1.07E-03,  avg # of iterations =  4.7

     negative rho (up, down):  2.898E+00 0.000E+00

     total cpu time spent up to now is     7613.4 secs

     total energy              =  -12731.61299724 Ry
     Harris-Foulkes estimate   =  -12733.49553716 Ry
     estimated scf accuracy    <      10.69969922 Ry

     iteration # 20     ecut=    80.00 Ry     beta=0.70
     Davidson diagonalization with overlap
     ethr =  8.21E-04,  avg # of iterations =  7.0

     negative rho (up, down):  2.101E+00 0.000E+00

     total cpu time spent up to now is     7857.0 secs

     total energy              =  -12730.22374765 Ry
     Harris-Foulkes estimate   =  -12731.84914962 Ry
     estimated scf accuracy    <       9.14192600 Ry

     iteration # 21     ecut=    80.00 Ry     beta=0.70
     Davidson diagonalization with overlap
     ethr =  7.01E-04,  avg # of iterations =  2.5

     negative rho (up, down):  1.551E+00 0.000E+00

     total cpu time spent up to now is     8041.4 secs

     total energy              =  -12729.78821101 Ry
     Harris-Foulkes estimate   =  -12730.44401804 Ry
     estimated scf accuracy    <       8.61636759 Ry

     iteration # 22     ecut=    80.00 Ry     beta=0.70
     Davidson diagonalization with overlap
     ethr =  6.61E-04,  avg # of iterations =  1.0

     negative rho (up, down):  6.707E-01 0.000E+00

     total cpu time spent up to now is     8208.8 secs

     total energy              =  -12729.13597049 Ry
     Harris-Foulkes estimate   =  -12729.97514227 Ry
     estimated scf accuracy    <       7.79857468 Ry

     iteration # 23     ecut=    80.00 Ry     beta=0.70
     Davidson diagonalization with overlap
     ethr =  5.98E-04,  avg # of iterations =  5.8

     negative rho (up, down):  2.065E-01 0.000E+00

     total cpu time spent up to now is     8432.6 secs

     total energy              =  -12727.43394418 Ry
     Harris-Foulkes estimate   =  -12729.47924712 Ry
     estimated scf accuracy    <       6.22377036 Ry

     iteration # 24     ecut=    80.00 Ry     beta=0.70
     Davidson diagonalization with overlap
     ethr =  4.77E-04,  avg # of iterations =  3.3

     negative rho (up, down):  2.763E-02 0.000E+00

     total cpu time spent up to now is     8627.0 secs

     total energy              =  -12727.00629565 Ry
     Harris-Foulkes estimate   =  -12727.61608417 Ry
     estimated scf accuracy    <       7.57438782 Ry

     iteration # 25     ecut=    80.00 Ry     beta=0.70
     Davidson diagonalization with overlap
     ethr =  4.77E-04,  avg # of iterations =  1.0

     negative rho (up, down):  4.232E-01 0.000E+00

     total cpu time spent up to now is     8794.7 secs

     total energy              =  -12726.65398935 Ry
     Harris-Foulkes estimate   =  -12727.33907200 Ry
     estimated scf accuracy    <       3.28007757 Ry

     iteration # 26     ecut=    80.00 Ry     beta=0.70
     Davidson diagonalization with overlap
     ethr =  2.52E-04,  avg # of iterations =  5.3

     negative rho (up, down):  1.020E+00 0.000E+00

     total cpu time spent up to now is     9014.8 secs

     total energy              =  -12726.31084972 Ry
     Harris-Foulkes estimate   =  -12726.78077782 Ry
     estimated scf accuracy    <       1.57607885 Ry

     iteration # 27     ecut=    80.00 Ry     beta=0.70
     Davidson diagonalization with overlap
     ethr =  1.21E-04,  avg # of iterations =  9.3

     negative rho (up, down):  5.843E-01 0.000E+00

     total cpu time spent up to now is     9326.8 secs

     total energy              =  -12726.24312373 Ry
     Harris-Foulkes estimate   =  -12726.42471701 Ry
     estimated scf accuracy    <       0.83431041 Ry

     iteration # 28     ecut=    80.00 Ry     beta=0.70
     Davidson diagonalization with overlap
     ethr =  6.40E-05,  avg # of iterations =  8.0

     negative rho (up, down):  6.358E-01 0.000E+00

     total cpu time spent up to now is     9587.9 secs

     total energy              =  -12726.25505754 Ry
     Harris-Foulkes estimate   =  -12726.29410481 Ry
     estimated scf accuracy    <       0.36797167 Ry

     iteration # 29     ecut=    80.00 Ry     beta=0.70
     Davidson diagonalization with overlap
     ethr =  2.82E-05,  avg # of iterations =  8.5

     negative rho (up, down):  1.052E-01 0.000E+00

     total cpu time spent up to now is     9877.3 secs

     total energy              =  -12726.24046281 Ry
     Harris-Foulkes estimate   =  -12726.28333366 Ry
     estimated scf accuracy    <       0.12696076 Ry

     iteration # 30     ecut=    80.00 Ry     beta=0.70
     Davidson diagonalization with overlap
     c_bands:  2 eigenvalues not converged
     ethr =  9.74E-06,  avg # of iterations = 17.2

     negative rho (up, down):  7.619E-02 0.000E+00

     total cpu time spent up to now is    10293.9 secs

     total energy              =  -12726.25295186 Ry
     Harris-Foulkes estimate   =  -12726.25657595 Ry
     estimated scf accuracy    <       0.03677639 Ry

     iteration # 31     ecut=    80.00 Ry     beta=0.70
     Davidson diagonalization with overlap
     ethr =  2.82E-06,  avg # of iterations = 10.0

     negative rho (up, down):  5.050E-02 0.000E+00

     total cpu time spent up to now is    10587.0 secs

     total energy              =  -12726.25482121 Ry
     Harris-Foulkes estimate   =  -12726.25606946 Ry
     estimated scf accuracy    <       0.01473926 Ry

     iteration # 32     ecut=    80.00 Ry     beta=0.70
     Davidson diagonalization with overlap
     ethr =  1.13E-06,  avg # of iterations =  6.8

     negative rho (up, down):  1.408E-02 0.000E+00

     total cpu time spent up to now is    10841.5 secs

     total energy              =  -12726.25429918 Ry
     Harris-Foulkes estimate   =  -12726.25577005 Ry
     estimated scf accuracy    <       0.00580309 Ry

     iteration # 33     ecut=    80.00 Ry     beta=0.70
     Davidson diagonalization with overlap
     c_bands:  1 eigenvalues not converged
     c_bands:  1 eigenvalues not converged
     c_bands:  1 eigenvalues not converged
     c_bands:  1 eigenvalues not converged
     ethr =  4.45E-07,  avg # of iterations = 18.3

     negative rho (up, down):  1.220E-02 0.000E+00

     total cpu time spent up to now is    11252.1 secs

     total energy              =  -12726.25482102 Ry
     Harris-Foulkes estimate   =  -12726.25467406 Ry
     estimated scf accuracy    <       0.00270831 Ry

     iteration # 34     ecut=    80.00 Ry     beta=0.70
     Davidson diagonalization with overlap
     c_bands:  1 eigenvalues not converged
     ethr =  2.08E-07,  avg # of iterations = 11.8

     negative rho (up, down):  1.021E-02 0.000E+00

     total cpu time spent up to now is    11576.1 secs

     total energy              =  -12726.25498555 Ry
     Harris-Foulkes estimate   =  -12726.25500757 Ry
     estimated scf accuracy    <       0.00073666 Ry

     iteration # 35     ecut=    80.00 Ry     beta=0.70
     Davidson diagonalization with overlap
     c_bands:  1 eigenvalues not converged
     ethr =  5.65E-08,  avg # of iterations = 10.3

     negative rho (up, down):  7.081E-03 0.000E+00

     total cpu time spent up to now is    11869.9 secs

     total energy              =  -12726.25499157 Ry
     Harris-Foulkes estimate   =  -12726.25505103 Ry
     estimated scf accuracy    <       0.00022062 Ry

     iteration # 36     ecut=    80.00 Ry     beta=0.70
     Davidson diagonalization with overlap
     ethr =  1.69E-08,  avg # of iterations = 10.7

     negative rho (up, down):  3.257E-03 0.000E+00

     total cpu time spent up to now is    12164.7 secs

     total energy              =  -12726.25494047 Ry
     Harris-Foulkes estimate   =  -12726.25500495 Ry
     estimated scf accuracy    <       0.00004802 Ry

     iteration # 37     ecut=    80.00 Ry     beta=0.70
     Davidson diagonalization with overlap
     ethr =  3.68E-09,  avg # of iterations =  8.2

     negative rho (up, down):  1.933E-03 0.000E+00

     total cpu time spent up to now is    12429.5 secs

     total energy              =  -12726.25492660 Ry
     Harris-Foulkes estimate   =  -12726.25494385 Ry
     estimated scf accuracy    <       0.00002371 Ry

     iteration # 38     ecut=    80.00 Ry     beta=0.70
     Davidson diagonalization with overlap
     ethr =  1.82E-09,  avg # of iterations =  4.8

     negative rho (up, down):  1.310E-03 0.000E+00

     total cpu time spent up to now is    12654.7 secs

     total energy              =  -12726.25492565 Ry
     Harris-Foulkes estimate   =  -12726.25492824 Ry
     estimated scf accuracy    <       0.00000785 Ry

     iteration # 39     ecut=    80.00 Ry     beta=0.70
     Davidson diagonalization with overlap
     ethr =  6.02E-10,  avg # of iterations =  2.3

     negative rho (up, down):  1.382E-03 0.000E+00

     total cpu time spent up to now is    12846.8 secs

     total energy              =  -12726.25493097 Ry
     Harris-Foulkes estimate   =  -12726.25492651 Ry
     estimated scf accuracy    <       0.00000443 Ry

     iteration # 40     ecut=    80.00 Ry     beta=0.70
     Davidson diagonalization with overlap
     ethr =  3.40E-10,  avg # of iterations =  4.7

     negative rho (up, down):  1.396E-03 0.000E+00

     total cpu time spent up to now is    13073.6 secs

     total energy              =  -12726.25493158 Ry
     Harris-Foulkes estimate   =  -12726.25493142 Ry
     estimated scf accuracy    <       0.00000110 Ry

     iteration # 41     ecut=    80.00 Ry     beta=0.70
     Davidson diagonalization with overlap
     ethr =  8.41E-11,  avg # of iterations =  2.0

     negative rho (up, down):  1.550E-03 0.000E+00

     total cpu time spent up to now is    13265.1 secs

     total energy              =  -12726.25493165 Ry
     Harris-Foulkes estimate   =  -12726.25493172 Ry
     estimated scf accuracy    <       0.00000049 Ry

     iteration # 42     ecut=    80.00 Ry     beta=0.70
     Davidson diagonalization with overlap
     ethr =  3.77E-11,  avg # of iterations =  2.7

     negative rho (up, down):  1.644E-03 0.000E+00

     total cpu time spent up to now is    13457.2 secs

     total energy              =  -12726.25493160 Ry
     Harris-Foulkes estimate   =  -12726.25493170 Ry
     estimated scf accuracy    <       0.00000008 Ry

     iteration # 43     ecut=    80.00 Ry     beta=0.70
     Davidson diagonalization with overlap
     ethr =  6.31E-12,  avg # of iterations =  3.0

     negative rho (up, down):  1.660E-03 0.000E+00

     total cpu time spent up to now is    13713.6 secs

     total energy              =  -12726.25493150 Ry
     Harris-Foulkes estimate   =  -12726.25493161 Ry
     estimated scf accuracy    <       0.00000005 Ry

     iteration # 44     ecut=    80.00 Ry     beta=0.70
     Davidson diagonalization with overlap
     ethr =  4.06E-12,  avg # of iterations =  3.0

     negative rho (up, down):  1.672E-03 0.000E+00

     total cpu time spent up to now is    13917.9 secs

     total energy              =  -12726.25493147 Ry
     Harris-Foulkes estimate   =  -12726.25493151 Ry
     estimated scf accuracy    <       0.00000001 Ry

     iteration # 45     ecut=    80.00 Ry     beta=0.70
     Davidson diagonalization with overlap
     ethr =  1.08E-12,  avg # of iterations =  2.3

     negative rho (up, down):  1.675E-03 0.000E+00

     total cpu time spent up to now is    14099.5 secs

     End of self-consistent calculation

          k = 0.0000 0.0000 0.0000 (256287 PWs)   bands (ev):

   -15.8159 -15.4607 -15.4215 -14.3546 -14.3486 -13.8509 -13.8490 -13.5065
   -13.5010 -13.4705 -13.4620 -12.5937 -12.5752 -12.4488 -12.4352 -12.4323
   -12.4270 -12.0228 -10.7730 -10.7663 -10.7612 -10.7570 -10.6415  -9.5267
    -8.9549  -8.9524  -8.8353  -8.8341  -8.0006  -7.9781  -7.9498  -7.9472
    -7.7482  -7.0669  -7.0624  -6.9088  -6.9066  -6.9022  -6.8966  -6.8725
    -6.8714  -5.6394  -5.3872  -5.3839  -5.3784  -5.3655  -5.2553  -5.2523
    -5.2487  -5.2422  -5.1376  -5.1105  -4.9354  -4.5673  -4.4524  -4.1360
    -4.1188  -4.1124  -4.0038  -3.9117  -3.8479  -3.8324  -3.6225  -3.6109
    -3.5259  -3.2150  -3.0249  -3.0237  -3.0088  -3.0073  -3.0024  -2.9906
    -2.8963  -2.7782  -2.7755  -2.7027  -2.6829  -2.6663  -2.6326  -2.6286
    -2.6230  -2.6163  -2.5837  -2.4632  -2.4594  -2.3455  -2.3298  -2.2626
    -2.2178  -2.1866  -2.1678  -2.1577  -2.1521  -2.1480  -2.1453  -1.9770
    -1.9445  -1.9147  -1.8790  -1.8469  -1.8133  -1.8040  -1.8025  -1.7876
    -1.7821  -1.7811  -1.7685  -1.7313  -1.6596  -1.6569  -1.6209  -1.6188
    -1.5662  -1.4801  -1.4629  -1.4036  -1.4001  -1.3903  -1.3668  -1.3583
    -1.3561  -1.3480  -1.3414  -1.3368  -1.3350  -1.3318  -1.2866  -1.2707
    -1.2594  -1.2407  -1.2378  -1.1964  -1.1931  -1.1879  -1.1789  -1.1770
    -1.1638  -1.1550  -1.1519  -1.1443  -1.1392  -1.0815  -1.0742  -1.0332
    -0.9858  -0.9652  -0.9599  -0.9251  -0.9168  -0.9091  -0.8976  -0.8962
    -0.8742  -0.8645  -0.8547  -0.8506  -0.8405  -0.8401  -0.8172  -0.8141
    -0.7762  -0.7655  -0.7401  -0.7022  -0.6999  -0.6949  -0.6892  -0.6781
    -0.6698  -0.6679  -0.6675  -0.6516  -0.6474  -0.6434  -0.6362  -0.6196
    -0.6145  -0.6118  -0.6105  -0.6036  -0.5962  -0.5684  -0.5652  -0.5575
    -0.5509  -0.5356  -0.5337  -0.5259  -0.5170  -0.5032  -0.4929  -0.4827
    -0.4790  -0.4769  -0.4759  -0.4737  -0.4725  -0.4703  -0.4643  -0.4624
    -0.4572  -0.4533  -0.4444  -0.4359  -0.4004  -0.3957  -0.3693  -0.3502
    -0.3390  -0.3304  -0.3169  -0.3111  -0.2982  -0.2827  -0.2813  -0.2629
    -0.2627  -0.2578  -0.2502  -0.2366  -0.2192  -0.2189  -0.2072  -0.1915
    -0.1889  -0.1885  -0.1859  -0.1823  -0.1759  -0.1748  -0.1704  -0.1660
    -0.1604  -0.1308  -0.1281  -0.1150  -0.0983  -0.0946  -0.0827  -0.0725
    -0.0634  -0.0521  -0.0497  -0.0447  -0.0385  -0.0345  -0.0329  -0.0287
    -0.0264  -0.0260  -0.0238  -0.0202  -0.0153  -0.0143  -0.0097  -0.0036
     0.0028   0.0201   0.0281   0.0349   0.0424   0.0576   0.0613   0.0648
     0.0884   0.0896   0.0930   0.0945   0.1076   0.1083   0.1186   0.1214
     0.1250   0.1331   0.1344   0.1388   0.1413   0.1472   0.1541   0.1582
     0.1595   0.1610   0.1716   0.1873   0.1879   0.1901   0.1932   0.1980
     0.2088   0.2151   0.2267   0.2339   0.2412   0.2511   0.2554   0.2665
     0.2770   0.2782   0.2809   0.2837   0.3015   0.3178   0.3184   0.3200
     0.3309   0.3388   0.3406   0.3458   0.3512   0.3567   0.3755   0.3830
     0.3841   0.3849   0.3966   0.3980   0.4018   0.4105   0.4157   0.4160
     0.4192   0.4365   0.4382   0.4386   0.4404   0.4463   0.4588   0.4668
     0.4691   0.4754   0.4772   0.4892   0.5020   0.5057   0.5083   0.5111
     0.5175   0.5217   0.5404   0.5417   0.5419   0.5477   0.5728   0.5781
     0.5812   0.5827   0.5876   0.6103   0.6198   0.6309   0.6476   0.6491
     0.6527   0.6547   0.6777   0.6808   0.6835   0.6938   0.7047   0.7180
     0.7211   0.7344   0.7391   0.7432   0.7452   0.7526   0.7529   0.7598
     0.7681   0.7693   0.7730   0.7815   0.7883   0.7926   0.7966   0.8016
     0.8323   0.8416   0.8477   0.8492   0.8511   0.8548   0.8551   0.8594
     0.8627   0.8646   0.8755   0.8759   0.8987   0.9013   0.9039   0.9100
     0.9116   0.9169   0.9264   0.9287   0.9292   0.9335   0.9413   0.9443
     0.9446   0.9467   0.9514   0.9560   0.9630   0.9766   0.9813   0.9822
     0.9873   0.9874   0.9992   1.0091   1.0125   1.0208   1.0245   1.0261
     1.0278   1.0372   1.0404   1.0448   1.0550   1.0595   1.0611   1.0643
     1.0665   1.0666   1.0719   1.0815   1.0894   1.0943   1.0982   1.0986
     1.1044   1.1129   1.1138   1.1190   1.1222   1.1224   1.1262   1.1283
     1.1448   1.1479   1.1504   1.1554   1.1688   1.1694   1.1768   1.1928
     1.1969   1.2163   1.2191   1.2192   1.2256   1.2265   1.2305   1.2326
     1.2358   1.2463   1.2494   1.2548   1.2599   1.2620   1.2661   1.2679
     1.2737   1.2742   1.2785   1.2858   1.2892   1.3040   1.3054   1.3109
     1.3144   1.3172   1.3224   1.3384   1.3461   1.3580   1.3638   1.3638
     1.3652   1.3733   1.3736   1.3819   1.3826   1.3864   1.3873   1.3886
     1.3952   1.4000   1.4062   1.4111   1.4131   1.4149   1.4201   1.4259
     1.4264   1.4309   1.4376   1.4435   1.4468   1.4486   1.4530   1.4579
     1.4651   1.4691   1.4711   1.4741   1.4800   1.4868   1.4881   1.4906
     1.4941   1.4951   1.4987   1.4990   1.5056   1.5071   1.5126   1.5192
     1.5256   1.5266   1.5364   1.5401   1.5492   1.5554   1.5604   1.5636
     1.5686   1.5762   1.5812   1.5847   1.5966   1.6037   1.6057   1.6091
     1.6103   1.6128   1.6212   1.6242   1.6282   1.6317   1.6344   1.6378
     1.6406   1.6413   1.6467   1.6504   1.6526   1.6536   1.6629   1.6644
     1.6666   1.6776   1.6804   1.6814   1.6833   1.6854   1.6867   1.6884
     1.6950   1.7011   1.7036   1.7043   1.7140   1.7152   1.7210   1.7230
     1.7239   1.7329   1.7374   1.7397   1.7412   1.7495   1.7515   1.7633
     1.7643   1.7698   1.7711   1.7800   1.7856   1.7872   1.7906   1.7944
     1.7992   1.8020   1.8027   1.8070   1.8092   1.8105   1.8162   1.8172
     1.8206   1.8208   1.8252   1.8315   1.8318   1.8395   1.8396   1.8466
     1.8503   1.8524   1.8603   1.8646   1.8858   1.8960   1.9007   1.9026
     1.9083   1.9248   1.9282   1.9306   1.9379   1.9419   1.9665   1.9741
     1.9907   1.9924   1.9963   1.9989   2.0050   2.0059   2.0114   2.0315
     2.0328   2.1642   2.2663   2.3328   2.4532   2.4611   2.4664   2.5280
     2.5574   2.5670   2.5713   2.5719   2.5827   2.5963   2.5986   2.6537
     2.7303   2.7372   2.7940   2.8037   2.8238   2.8283   2.8494   2.9769
     3.0260   3.0663   3.1108   3.1934   3.4854   3.5298   3.5580   3.6078
     3.6154   3.8478   3.9279   4.0509   4.1105   4.1281   4.1387   4.2166
     4.2236   4.2248   4.2936   4.2973   4.3125   4.3303   4.3604   4.3725
     4.3789   4.3826   4.4805   4.5312   4.5322   4.5578   4.6160   5.0643
     5.0837   5.1399   5.4432   5.4518   5.4728   5.4873   5.5201   5.6556
     5.6911   5.7682   5.9317   5.9537   5.9845   6.1740   6.2834   6.3315
     6.4252   6.5508   6.5612   6.7087   6.7342   6.7479   6.8166   6.8597
     6.9917   6.9935   7.0310   7.0723   7.0875   7.1625   7.2128   7.2274
     7.2315   7.2574   7.2622   7.3914   7.3943   7.4165   7.4409   7.4680
     7.4980   7.6454   7.7347   7.7639   7.9174   7.9230   7.9281   7.9711
     7.9860   8.0399   8.0597   8.0865   8.2094   8.3822   8.4204   8.4601
     8.5202   8.5692   8.5765   8.6065   8.6151   8.6734   8.6763   8.7012
     8.7129   8.8835   8.8981   8.9242   8.9345   8.9559   8.9597   8.9819
     8.9940   9.0216   9.0229   9.0464   9.1780   9.2360   9.2557   9.2635
     9.3267   9.3323   9.3596   9.3614   9.3733   9.4252   9.4446   9.5535
     9.5690   9.6902   9.8165   9.8218   9.8382   9.9432  10.0041  10.0087
    10.0906  10.1213  10.1306  10.1447  10.1529  10.2023

          k = 0.0000-0.2165 0.0000 (256176 PWs)   bands (ev):

   -15.7518 -15.6884 -14.9928 -14.9774 -13.7889 -13.7877 -13.7258 -13.7237
   -13.5487 -13.5445 -13.0537 -13.0508 -13.0371 -13.0329 -12.0623 -11.6723
   -11.6638 -11.6615 -11.6444 -11.4988 -11.4716  -9.7975  -9.7936  -9.7822
    -9.7794  -8.5672  -8.5294  -8.3649  -8.3627  -8.3342  -8.3256  -7.7875
    -7.5048  -7.4945  -7.4929  -7.4767  -6.3823  -6.3818  -6.3236  -6.3222
    -6.1923  -6.1888  -6.1852  -6.1723  -5.5154  -5.4976  -5.4732  -5.4702
    -4.9848  -4.5989  -4.5887  -4.5598  -4.5497  -4.4976  -4.4822  -4.4292
    -4.4009  -4.3796  -4.0577  -4.0532  -4.0460  -4.0411  -4.0111  -3.6008
    -3.3856  -3.3713  -3.0546  -2.9991  -2.9313  -2.9301  -2.9165  -2.9131
    -2.7426  -2.6751  -2.6558  -2.6432  -2.6394  -2.5732  -2.5169  -2.4982
    -2.4972  -2.4496  -2.4467  -2.3354  -2.3320  -2.3087  -2.3031  -2.2673
    -2.2597  -2.2168  -2.2129  -2.2101  -2.1829  -2.1475  -2.1182  -2.0964
    -2.0438  -2.0357  -1.9258  -1.9166  -1.9123  -1.8521  -1.8064  -1.7880
    -1.7854  -1.7657  -1.7611  -1.7335  -1.6963  -1.6883  -1.6451  -1.6061
    -1.5927  -1.5896  -1.5861  -1.5270  -1.5179  -1.4343  -1.4221  -1.3969
    -1.3885  -1.3755  -1.3754  -1.3698  -1.3604  -1.3417  -1.3282  -1.2964
    -1.2845  -1.2842  -1.2818  -1.2657  -1.2496  -1.2129  -1.1415  -1.1250
    -1.1152  -1.0599  -1.0374  -0.9988  -0.9847  -0.9825  -0.9477  -0.9422
    -0.9357  -0.9290  -0.9216  -0.9206  -0.9148  -0.9105  -0.9088  -0.8969
    -0.8858  -0.8823  -0.8750  -0.8717  -0.8518  -0.8486  -0.8396  -0.8262
    -0.8152  -0.8090  -0.8064  -0.7960  -0.7654  -0.7241  -0.7218  -0.7139
    -0.7094  -0.7027  -0.6938  -0.6880  -0.6873  -0.6744  -0.6734  -0.6519
    -0.6514  -0.6230  -0.6148  -0.6007  -0.5972  -0.5922  -0.5900  -0.5890
    -0.5770  -0.5537  -0.5504  -0.5476  -0.5403  -0.5357  -0.5272  -0.5196
    -0.5023  -0.4941  -0.4813  -0.4719  -0.4704  -0.4543  -0.4518  -0.4396
    -0.4377  -0.4149  -0.4113  -0.4029  -0.3951  -0.3892  -0.3793  -0.3711
    -0.3662  -0.3311  -0.3163  -0.3129  -0.2823  -0.2645  -0.2624  -0.2422
    -0.2405  -0.2397  -0.2390  -0.2312  -0.2308  -0.2304  -0.2225  -0.2154
    -0.2088  -0.1733  -0.1724  -0.1718  -0.1620  -0.1543  -0.1527  -0.1479
    -0.1345  -0.1160  -0.1138  -0.1085  -0.1073  -0.1043  -0.0976  -0.0874
    -0.0854  -0.0742  -0.0719  -0.0680  -0.0674  -0.0499  -0.0318  -0.0194
    -0.0116   0.0102   0.0131   0.0401   0.0525   0.0560   0.0634   0.0644
     0.0652   0.0673   0.0689   0.0697   0.0800   0.0943   0.1022   0.1090
     0.1104   0.1163   0.1180   0.1217   0.1248   0.1277   0.1288   0.1319
     0.1412   0.1567   0.1570   0.1574   0.1637   0.1655   0.1759   0.1779
     0.1811   0.1851   0.1875   0.2153   0.2182   0.2185   0.2386   0.2413
     0.2473   0.2511   0.2528   0.2563   0.2618   0.2697   0.2799   0.2828
     0.2853   0.2920   0.3029   0.3050   0.3115   0.3149   0.3166   0.3239
     0.3294   0.3347   0.3418   0.3572   0.3675   0.3706   0.3761   0.3806
     0.3903   0.3978   0.4025   0.4071   0.4099   0.4197   0.4264   0.4300
     0.4312   0.4383   0.4386   0.4461   0.4528   0.4541   0.4581   0.4678
     0.4697   0.4714   0.4809   0.4875   0.4895   0.5034   0.5061   0.5081
     0.5101   0.5136   0.5249   0.5286   0.5352   0.5360   0.5502   0.5584
     0.5672   0.5769   0.5805   0.5824   0.5865   0.5926   0.6054   0.6099
     0.6151   0.6316   0.6343   0.6697   0.6725   0.6740   0.6794   0.6952
     0.7178   0.7262   0.7282   0.7488   0.7653   0.7702   0.7756   0.7817
     0.7896   0.8020   0.8022   0.8105   0.8112   0.8115   0.8191   0.8237
     0.8282   0.8385   0.8394   0.8454   0.8533   0.8549   0.8587   0.8663
     0.8664   0.8785   0.8795   0.8804   0.8874   0.8901   0.8939   0.9002
     0.9026   0.9070   0.9096   0.9124   0.9141   0.9143   0.9216   0.9285
     0.9317   0.9346   0.9378   0.9447   0.9464   0.9489   0.9556   0.9596
     0.9597   0.9633   0.9710   0.9719   0.9838   0.9895   0.9899   0.9999
     1.0045   1.0086   1.0114   1.0127   1.0298   1.0354   1.0390   1.0429
     1.0467   1.0511   1.0538   1.0554   1.0586   1.0685   1.0707   1.0742
     1.0758   1.0818   1.0899   1.1031   1.1102   1.1156   1.1263   1.1302
     1.1427   1.1433   1.1468   1.1534   1.1611   1.1625   1.1651   1.1719
     1.1767   1.1774   1.2060   1.2098   1.2182   1.2504   1.2558   1.2562
     1.2587   1.2644   1.2662   1.2697   1.2741   1.2782   1.2860   1.2890
     1.2949   1.2958   1.2985   1.3009   1.3020   1.3037   1.3078   1.3104
     1.3124   1.3167   1.3219   1.3298   1.3335   1.3372   1.3382   1.3389
     1.3431   1.3506   1.3557   1.3589   1.3605   1.3615   1.3624   1.3724
     1.3731   1.3750   1.3799   1.3851   1.3867   1.3901   1.3940   1.4034
     1.4070   1.4081   1.4087   1.4125   1.4137   1.4162   1.4198   1.4208
     1.4242   1.4308   1.4571   1.4591   1.4637   1.4692   1.4916   1.4981
     1.5049   1.5121   1.5146   1.5196   1.5299   1.5357   1.5489   1.5509
     1.5545   1.5554   1.5610   1.5630   1.5633   1.5650   1.5670   1.5682
     1.5712   1.5759   1.5787   1.5818   1.5825   1.5956   1.5957   1.5964
     1.5980   1.6026   1.6029   1.6042   1.6062   1.6136   1.6192   1.6273
     1.6291   1.6334   1.6395   1.6411   1.6450   1.6470   1.6567   1.6626
     1.6632   1.6671   1.6681   1.6830   1.6832   1.6885   1.6907   1.6915
     1.6991   1.7002   1.7029   1.7043   1.7125   1.7127   1.7264   1.7278
     1.7334   1.7420   1.7433   1.7444   1.7549   1.7563   1.7586   1.7611
     1.7637   1.7673   1.7711   1.7768   1.7772   1.7820   1.8000   1.8030
     1.8039   1.8073   1.8169   1.8232   1.8237   1.8251   1.8271   1.8282
     1.8291   1.8413   1.8420   1.8593   1.8603   1.8633   1.8636   1.8637
     1.8751   1.8800   1.8825   1.8830   1.8898   1.8905   1.8953   1.9103
     1.9438   1.9452   1.9461   1.9558   1.9601   1.9724   2.0289   2.0511
     2.0574   2.1063   2.1155   2.1194   2.1226   2.1279   2.1526   2.1604
     2.1793   2.1833   2.1903   2.1959   2.2023   2.2032   2.2533   2.4281
     2.5299   2.5670   2.5848   2.6101   2.7320   2.7359   2.7887   2.8053
     2.8546   2.8563   2.8629   2.8871   2.9377   2.9593   2.9653   2.9685
     3.0746   3.0796   3.0843   3.0953   3.1591   3.2871   3.2911   3.3728
     3.4160   3.5345   3.5350   3.5374   3.6140   3.8874   4.0504   4.1020
     4.3173   4.3239   4.3716   4.4605   4.5091   4.5340   4.5455   4.5603
     4.6248   4.6356   4.6674   4.7060   4.7471   4.8395   4.8715   5.0039
     5.0509   5.3107   5.3193   5.4641   5.6066   5.6401   5.6472   5.7082
     5.7141   5.7317   5.8404   5.9139   6.0018   6.2024   6.2176   6.3270
     6.3535   6.3598   6.3743   6.5696   6.6093   6.6103   6.6246   6.7353
     6.7395   6.8951   6.9179   7.0159   7.0805   7.1301   7.2548   7.3200
     7.3522   7.3895   7.3949   7.4134   7.4302   7.4859   7.5207   7.5547
     7.5591   7.5657   7.5886   7.6394   7.6600   7.6939   7.7130   7.9174
     8.1340   8.1421   8.1570   8.1690   8.2055   8.2335   8.4708   8.4966
     8.5023   8.5392   8.5705   8.5728   8.6061   8.6318   8.7208   8.7300
     8.8083   8.8271   8.9495   8.9761   9.0317   9.0348   9.0373   9.0473
     9.0772   9.1460   9.1565   9.2058   9.2331   9.2522   9.3627   9.4055
     9.4129   9.4702   9.5522   9.5598   9.5697   9.5872   9.6042   9.6106
     9.6575   9.6867   9.7029   9.7474   9.8111   9.8757   9.8841   9.8955
     9.9669  10.0242  10.1485  10.2279  10.2442  10.2454

          k = 0.2500 0.0000 0.0000 (256240 PWs)   bands (ev):

   -15.6915 -15.3368 -15.2978 -14.7033 -14.3528 -14.3147 -14.2326 -14.2268
   -13.2679 -13.2607 -12.7727 -12.4809 -12.4585 -12.4346 -12.3967 -12.0383
   -11.5397 -11.5343 -11.3996 -11.3984 -10.5361 -10.1392 -10.1013 -10.0551
    -9.6894  -9.4221  -9.1458  -9.1356  -8.7221  -8.4764  -8.4680  -8.0147
    -7.7770  -6.9914  -6.9873  -6.9409  -6.9295  -6.8296  -6.8170  -6.3254
    -6.0215  -5.5711  -5.4592  -5.3096  -5.3064  -5.2819  -5.2703  -5.0187
    -4.9378  -4.8681  -4.6165  -4.6125  -4.3989  -4.3700  -4.0797  -4.0627
    -3.9844  -3.8690  -3.8487  -3.8422  -3.7687  -3.7426  -3.7303  -3.6218
    -3.6153  -3.4780  -3.4650  -3.3961  -3.2254  -3.1573  -3.1109  -3.0911
    -3.0822  -2.9851  -2.9796  -2.8831  -2.8775  -2.8731  -2.8599  -2.8418
    -2.7763  -2.7326  -2.6343  -2.5868  -2.5762  -2.5661  -2.4732  -2.4642
    -2.4236  -2.4049  -2.3363  -2.3154  -2.2295  -2.0892  -2.0741  -2.0220
    -1.9393  -1.8955  -1.8334  -1.8298  -1.7474  -1.7212  -1.7137  -1.7061
    -1.6894  -1.6307  -1.5551  -1.5421  -1.5062  -1.4786  -1.4719  -1.4523
    -1.4385  -1.4283  -1.4242  -1.4226  -1.4151  -1.4006  -1.3990  -1.3817
    -1.3638  -1.3182  -1.2812  -1.2693  -1.2547  -1.2254  -1.2081  -1.2059
    -1.1963  -1.1920  -1.1898  -1.1869  -1.1547  -1.1334  -1.1314  -1.1295
    -1.1230  -1.1178  -1.1138  -1.1094  -1.0886  -1.0044  -0.9965  -0.9729
    -0.9480  -0.9424  -0.9280  -0.8995  -0.8816  -0.8675  -0.8607  -0.8506
    -0.8453  -0.8382  -0.8211  -0.8166  -0.8127  -0.8103  -0.7991  -0.7890
    -0.7810  -0.7640  -0.7594  -0.7575  -0.7458  -0.7366  -0.7337  -0.7299
    -0.7211  -0.7184  -0.6916  -0.6754  -0.6609  -0.6550  -0.6464  -0.6447
    -0.6410  -0.6389  -0.6349  -0.6246  -0.6216  -0.6196  -0.6141  -0.6122
    -0.6039  -0.5992  -0.5945  -0.5907  -0.5836  -0.5830  -0.5786  -0.5634
    -0.5415  -0.5325  -0.5197  -0.5061  -0.4856  -0.4695  -0.4554  -0.4524
    -0.4430  -0.4366  -0.4336  -0.4271  -0.4197  -0.4032  -0.3981  -0.3879
    -0.3756  -0.3661  -0.3624  -0.3523  -0.3452  -0.3322  -0.3138  -0.2875
    -0.2659  -0.2597  -0.2457  -0.2405  -0.2244  -0.2049  -0.2023  -0.1967
    -0.1930  -0.1831  -0.1773  -0.1747  -0.1721  -0.1559  -0.1528  -0.1443
    -0.1378  -0.1317  -0.1204  -0.1153  -0.1061  -0.1026  -0.1000  -0.0964
    -0.0903  -0.0898  -0.0809  -0.0788  -0.0638  -0.0427  -0.0324  -0.0231
    -0.0163  -0.0135  -0.0062   0.0045   0.0099   0.0126   0.0182   0.0211
     0.0323   0.0365   0.0514   0.0687   0.0702   0.0723   0.0772   0.0839
     0.0860   0.0871   0.0979   0.1049   0.1108   0.1176   0.1242   0.1262
     0.1361   0.1449   0.1545   0.1681   0.1702   0.1738   0.1750   0.1820
     0.1947   0.1999   0.2019   0.2117   0.2142   0.2200   0.2276   0.2383
     0.2494   0.2521   0.2574   0.2634   0.2677   0.2722   0.2760   0.2864
     0.2942   0.3012   0.3112   0.3219   0.3275   0.3371   0.3495   0.3502
     0.3553   0.3684   0.3708   0.3721   0.3759   0.3804   0.3877   0.3926
     0.3957   0.3992   0.4035   0.4060   0.4100   0.4120   0.4231   0.4271
     0.4300   0.4361   0.4419   0.4437   0.4518   0.4684   0.4705   0.4795
     0.4803   0.4832   0.4996   0.5022   0.5042   0.5092   0.5148   0.5244
     0.5268   0.5321   0.5451   0.5581   0.5639   0.5803   0.5909   0.5964
     0.6121   0.6204   0.6306   0.6355   0.6439   0.6477   0.6504   0.6563
     0.6601   0.6629   0.6752   0.6794   0.6859   0.6890   0.6957   0.7003
     0.7015   0.7060   0.7142   0.7172   0.7242   0.7275   0.7383   0.7411
     0.7447   0.7515   0.7624   0.7655   0.7703   0.7745   0.7835   0.7921
     0.7963   0.8025   0.8075   0.8150   0.8185   0.8209   0.8275   0.8319
     0.8381   0.8441   0.8503   0.8520   0.8606   0.8660   0.8691   0.8737
     0.8821   0.8840   0.8863   0.8903   0.8958   0.9069   0.9138   0.9234
     0.9243   0.9271   0.9308   0.9346   0.9427   0.9461   0.9501   0.9544
     0.9598   0.9621   0.9694   0.9736   0.9817   0.9830   0.9952   1.0032
     1.0047   1.0103   1.0143   1.0151   1.0169   1.0250   1.0298   1.0353
     1.0373   1.0399   1.0470   1.0579   1.0639   1.0742   1.0829   1.0894
     1.0966   1.1062   1.1113   1.1149   1.1183   1.1270   1.1378   1.1401
     1.1441   1.1468   1.1498   1.1539   1.1614   1.1670   1.1719   1.1855
     1.1905   1.1982   1.2010   1.2120   1.2148   1.2229   1.2270   1.2300
     1.2319   1.2421   1.2514   1.2545   1.2576   1.2580   1.2619   1.2692
     1.2694   1.2740   1.2773   1.2839   1.2893   1.2991   1.3055   1.3080
     1.3137   1.3175   1.3208   1.3361   1.3404   1.3458   1.3552   1.3590
     1.3661   1.3684   1.3705   1.3753   1.3803   1.3829   1.3867   1.3876
     1.3900   1.3915   1.3949   1.3990   1.4048   1.4059   1.4088   1.4095
     1.4133   1.4278   1.4303   1.4333   1.4342   1.4374   1.4401   1.4421
     1.4477   1.4491   1.4605   1.4640   1.4654   1.4660   1.4757   1.4794
     1.4811   1.4843   1.4906   1.4970   1.4988   1.5002   1.5017   1.5048
     1.5081   1.5121   1.5149   1.5205   1.5260   1.5382   1.5492   1.5576
     1.5611   1.5630   1.5662   1.5677   1.5810   1.5837   1.5983   1.6036
     1.6135   1.6184   1.6196   1.6232   1.6245   1.6279   1.6299   1.6351
     1.6378   1.6417   1.6458   1.6471   1.6502   1.6560   1.6632   1.6657
     1.6695   1.6727   1.6751   1.6778   1.6799   1.6815   1.6842   1.6899
     1.6940   1.6949   1.6999   1.7021   1.7038   1.7132   1.7151   1.7222
     1.7273   1.7290   1.7349   1.7400   1.7472   1.7514   1.7561   1.7651
     1.7684   1.7721   1.7740   1.7786   1.7836   1.7872   1.7916   1.7967
     1.7986   1.8031   1.8073   1.8123   1.8156   1.8176   1.8205   1.8223
     1.8246   1.8280   1.8315   1.8356   1.8386   1.8412   1.8434   1.8493
     1.8552   1.8568   1.8617   1.8656   1.8681   1.8729   1.8762   1.8791
     1.8825   1.9015   1.9173   1.9192   1.9312   1.9357   1.9504   1.9564
     1.9599   1.9905   1.9931   2.0075   2.0144   2.0212   2.0545   2.1058
     2.1167   2.1335   2.1384   2.1527   2.2130   2.2481   2.3424   2.3852
     2.4019   2.4126   2.4337   2.4599   2.4995   2.5392   2.5497   2.5554
     2.8187   2.9067   2.9175   2.9366   3.0933   3.3339   3.3411   3.3452
     3.5495   3.5524   3.5755   3.5842   3.5897   3.6536   3.7219   3.7543
     3.8092   3.8767   3.9784   4.0103   4.0361   4.0485   4.0495   4.1009
     4.1259   4.1928   4.2098   4.3159   4.3313   4.4012   4.5507   4.5903
     4.6803   4.7968   4.9094   4.9670   4.9731   5.0440   5.0730   5.1370
     5.1869   5.3881   5.4256   5.5716   5.5792   5.6355   5.6932   5.7372
     5.7704   5.7942   5.8210   5.8605   5.8745   5.8852   5.9278   5.9524
     6.0600   6.0662   6.1743   6.2156   6.3090   6.3404   6.3620   6.3960
     6.4106   6.6114   6.8144   7.0156   7.0427   7.0611   7.0701   7.1170
     7.1395   7.2043   7.2156   7.2553   7.2965   7.3613   7.4012   7.4225
     7.4282   7.4700   7.4877   7.5702   7.6084   7.6309   7.6992   7.7304
     7.7896   7.8973   7.9275   7.9679   8.0321   8.0455   8.0910   8.1394
     8.2260   8.2705   8.3268   8.3840   8.3896   8.4500   8.5058   8.5361
     8.5802   8.6826   8.6975   8.7367   8.7396   8.7504   8.7557   8.8296
     8.9537   8.9909   9.0591   9.1197   9.1883   9.2535   9.3465   9.4241
     9.4325   9.4556   9.4649   9.4786   9.5023   9.5218   9.5238   9.5463
     9.5545   9.5830   9.6128   9.6437   9.6678   9.7230   9.7474   9.8246
     9.8294  10.0520  10.0662  10.1196  10.1358  10.1401

          k = 0.2500-0.2165 0.0000 (256316 PWs)   bands (ev):

   -15.6275 -15.5641 -14.8698 -14.8544 -14.6405 -14.5766 -13.8930 -13.8776
   -13.4292 -13.4248 -12.7121 -12.6510 -12.4848 -12.4765 -12.0744 -11.9783
   -11.9543 -11.3870 -11.3607 -10.7078 -10.7041 -10.5054 -10.4818 -10.0657
   -10.0048  -9.0043  -8.9937  -8.5584  -8.5271  -8.4707  -8.4348  -7.8998
    -7.8690  -7.8156  -7.7637  -7.7192  -6.0986  -6.0637  -6.0151  -6.0098
    -5.8844  -5.8215  -5.7169  -5.6654  -5.4288  -5.4264  -5.3367  -5.3201
    -4.9641  -4.5454  -4.5345  -4.3924  -4.3180  -4.2825  -4.2731  -4.2679
    -4.2508  -4.2142  -3.9688  -3.9551  -3.8630  -3.6366  -3.6062  -3.5979
    -3.5841  -3.4936  -3.2681  -3.2517  -3.1641  -3.0938  -3.0891  -3.0816
    -3.0697  -3.0007  -2.9715  -2.9663  -2.9149  -2.8866  -2.7055  -2.6859
    -2.6694  -2.6635  -2.6091  -2.5569  -2.5351  -2.4858  -2.4608  -2.4185
    -2.4118  -2.3701  -2.3606  -2.3067  -2.2281  -2.0723  -2.0670  -2.0559
    -1.9513  -1.9273  -1.8539  -1.8486  -1.8036  -1.8021  -1.7885  -1.7688
    -1.7464  -1.6402  -1.6361  -1.6090  -1.5987  -1.5290  -1.4638  -1.4482
    -1.4460  -1.4412  -1.4149  -1.4100  -1.3623  -1.3520  -1.3406  -1.3333
    -1.3278  -1.3244  -1.3170  -1.3103  -1.3031  -1.2971  -1.2938  -1.2922
    -1.2790  -1.2711  -1.2548  -1.2150  -1.1808  -1.1495  -1.1397  -1.1120
    -1.0950  -1.0854  -1.0207  -0.9796  -0.9671  -0.9566  -0.9360  -0.9106
    -0.9075  -0.9034  -0.8971  -0.8938  -0.8910  -0.8809  -0.8778  -0.8688
    -0.8558  -0.8551  -0.8519  -0.8440  -0.8400  -0.8370  -0.8266  -0.8136
    -0.8077  -0.7968  -0.7908  -0.7845  -0.7731  -0.7582  -0.7359  -0.7350
    -0.7295  -0.7271  -0.7181  -0.7127  -0.6930  -0.6842  -0.6761  -0.6587
    -0.6560  -0.6435  -0.6320  -0.6245  -0.6231  -0.6123  -0.6040  -0.5985
    -0.5872  -0.5861  -0.5822  -0.5757  -0.5675  -0.5593  -0.5568  -0.5521
    -0.5351  -0.5324  -0.5243  -0.5209  -0.4889  -0.4826  -0.4612  -0.4488
    -0.4356  -0.4324  -0.4100  -0.3797  -0.3743  -0.3622  -0.3560  -0.3534
    -0.3443  -0.3312  -0.3273  -0.3174  -0.3127  -0.3043  -0.2838  -0.2738
    -0.2617  -0.2483  -0.2474  -0.2425  -0.2403  -0.2136  -0.2118  -0.2035
    -0.1979  -0.1930  -0.1874  -0.1787  -0.1714  -0.1635  -0.1626  -0.1480
    -0.1371  -0.1275  -0.1226  -0.1125  -0.1070  -0.1031  -0.0969  -0.0876
    -0.0754  -0.0671  -0.0575  -0.0507  -0.0356  -0.0349  -0.0318  -0.0216
    -0.0160  -0.0083  -0.0077   0.0012   0.0055   0.0073   0.0150   0.0224
     0.0277   0.0302   0.0403   0.0416   0.0587   0.0601   0.0727   0.0809
     0.0882   0.0941   0.0983   0.1018   0.1115   0.1127   0.1223   0.1299
     0.1325   0.1336   0.1367   0.1495   0.1612   0.1685   0.1743   0.1827
     0.1922   0.1963   0.1980   0.2097   0.2260   0.2408   0.2453   0.2611
     0.2632   0.2671   0.2724   0.2766   0.2830   0.2846   0.2885   0.2969
     0.3075   0.3099   0.3144   0.3218   0.3283   0.3355   0.3412   0.3438
     0.3560   0.3604   0.3655   0.3700   0.3737   0.3759   0.3770   0.3777
     0.3832   0.3847   0.3866   0.3888   0.3929   0.4035   0.4056   0.4126
     0.4248   0.4285   0.4374   0.4435   0.4518   0.4553   0.4625   0.4716
     0.4730   0.4889   0.5027   0.5108   0.5171   0.5228   0.5255   0.5309
     0.5324   0.5376   0.5476   0.5495   0.5562   0.5583   0.5609   0.5698
     0.5803   0.5990   0.6006   0.6136   0.6205   0.6244   0.6346   0.6435
     0.6523   0.6563   0.6587   0.6707   0.6761   0.6808   0.6875   0.6925
     0.7017   0.7125   0.7152   0.7208   0.7244   0.7315   0.7344   0.7408
     0.7515   0.7575   0.7603   0.7651   0.7684   0.7787   0.7845   0.7872
     0.7919   0.7937   0.8108   0.8160   0.8222   0.8260   0.8373   0.8413
     0.8465   0.8521   0.8565   0.8615   0.8659   0.8680   0.8728   0.8778
     0.8852   0.8882   0.8898   0.9045   0.9081   0.9113   0.9293   0.9424
     0.9483   0.9591   0.9629   0.9666   0.9701   0.9738   0.9780   0.9799
     0.9826   0.9878   0.9938   0.9950   1.0012   1.0118   1.0138   1.0202
     1.0222   1.0300   1.0356   1.0389   1.0415   1.0440   1.0463   1.0501
     1.0516   1.0574   1.0606   1.0654   1.0657   1.0706   1.0787   1.0814
     1.0838   1.0898   1.0935   1.0962   1.0997   1.1079   1.1131   1.1196
     1.1333   1.1339   1.1353   1.1388   1.1453   1.1486   1.1671   1.1768
     1.1783   1.1836   1.1980   1.2034   1.2045   1.2063   1.2101   1.2133
     1.2174   1.2244   1.2252   1.2274   1.2323   1.2349   1.2385   1.2411
     1.2541   1.2596   1.2660   1.2780   1.2793   1.2824   1.2860   1.2879
     1.2891   1.2956   1.3052   1.3101   1.3181   1.3319   1.3355   1.3373
     1.3429   1.3467   1.3481   1.3545   1.3640   1.3725   1.3771   1.3777
     1.3853   1.3924   1.4032   1.4073   1.4136   1.4258   1.4360   1.4424
     1.4502   1.4548   1.4580   1.4602   1.4613   1.4625   1.4659   1.4710
     1.4743   1.4745   1.4781   1.4791   1.4831   1.4836   1.4903   1.4930
     1.4958   1.5040   1.5129   1.5147   1.5212   1.5255   1.5309   1.5385
     1.5427   1.5452   1.5486   1.5515   1.5521   1.5577   1.5610   1.5629
     1.5673   1.5716   1.5743   1.5750   1.5796   1.5821   1.5873   1.5900
     1.5911   1.5930   1.5991   1.6013   1.6043   1.6101   1.6152   1.6177
     1.6210   1.6391   1.6401   1.6421   1.6441   1.6470   1.6493   1.6547
     1.6631   1.6672   1.6717   1.6790   1.6827   1.6901   1.6955   1.6985
     1.7036   1.7045   1.7066   1.7103   1.7143   1.7187   1.7204   1.7251
     1.7315   1.7405   1.7422   1.7435   1.7480   1.7487   1.7559   1.7600
     1.7620   1.7647   1.7741   1.7749   1.7786   1.7808   1.7818   1.7837
     1.7852   1.7888   1.7923   1.8001   1.8058   1.8072   1.8092   1.8151
     1.8172   1.8210   1.8228   1.8320   1.8350   1.8359   1.8418   1.8530
     1.8540   1.8567   1.8676   1.8767   1.8786   1.8850   1.8864   1.8906
     1.8992   1.9012   1.9175   1.9214   1.9226   1.9375   1.9437   1.9521
     1.9831   1.9903   2.0188   2.0239   2.0444   2.0796   2.1059   2.1104
     2.1246   2.1272   2.1344   2.1404   2.1457   2.1520   2.1711   2.2426
     2.2878   2.4844   2.4894   2.5118   2.5223   2.5740   2.6245   2.7111
     2.9367   2.9517   3.0956   3.1146   3.1206   3.1223   3.1457   3.1547
     3.2184   3.3013   3.3358   3.3465   3.3610   3.5577   3.8295   3.8581
     3.8632   3.9066   3.9382   4.0900   4.1427   4.1982   4.2161   4.2449
     4.3507   4.4024   4.4382   4.4627   4.5150   4.5284   4.6927   4.7216
     4.8040   4.8594   4.8837   4.9332   4.9552   4.9964   5.0795   5.1699
     5.2059   5.2449   5.2546   5.2985   5.3224   5.3717   5.4610   5.4894
     5.5463   5.6761   5.6895   5.7531   5.7925   5.8457   5.8941   5.9647
     6.0650   6.1117   6.1148   6.1719   6.3213   6.5174   6.5281   6.5289
     6.6125   6.7863   6.8968   6.9524   7.0535   7.0588   7.0911   7.1524
     7.1669   7.1946   7.2752   7.3471   7.3641   7.4588   7.5069   7.5445
     7.5600   7.5660   7.5941   7.6434   7.7056   7.7260   7.7461   7.7693
     7.7714   7.7849   7.8013   7.8290   7.9209   7.9494   8.0937   8.1309
     8.1462   8.2400   8.3425   8.3778   8.4503   8.5017   8.5361   8.6122
     8.6957   8.7395   8.7727   8.7974   8.8452   8.8857   8.8925   8.9442
     8.9862   9.0105   9.0444   9.0571   9.0687   9.1090   9.1928   9.2533
     9.2827   9.3122   9.3379   9.3850   9.4047   9.4158   9.4777   9.4951
     9.5187   9.5813   9.5940   9.6209   9.6371   9.6979   9.7250   9.7276
     9.7492   9.7624   9.7851   9.8821  10.0354  10.0572

          k =-0.5000 0.0000 0.0000 (256496 PWs)   bands (ev):

   -15.3208 -15.3182 -14.9710 -14.9613 -14.9278 -14.9275 -13.8746 -13.8637
   -13.8633 -13.8621 -12.1858 -12.1141 -12.1114 -12.1088 -11.9921 -11.4961
   -11.4893 -11.1837 -11.1658 -11.1429 -11.1418 -10.5288 -10.5227 -10.2270
   -10.2086  -9.5376  -9.5278  -9.1262  -9.1198  -8.3349  -8.3227  -8.3133
    -8.3104  -7.7835  -6.8833  -6.8817  -6.8076  -6.7984  -6.7959  -6.7866
    -5.2858  -5.2827  -4.9648  -4.9344  -4.9189  -4.5256  -4.4993  -4.4597
    -4.4179  -4.4141  -4.4133  -4.2565  -4.1249  -4.1190  -4.1165  -4.1101
    -4.0858  -4.0817  -4.0765  -4.0686  -3.9029  -3.8874  -3.8289  -3.8255
    -3.8122  -3.8071  -3.5496  -3.5460  -3.4416  -3.3928  -3.3287  -3.3258
    -3.0732  -3.0616  -3.0544  -3.0496  -3.0385  -3.0077  -2.9713  -2.8634
    -2.8443  -2.8410  -2.7830  -2.7721  -2.7666  -2.7463  -2.5324  -2.3541
    -2.2854  -2.2811  -2.2526  -2.2498  -2.1972  -2.1863  -2.1753  -2.1719
    -2.1511  -2.1360  -1.9953  -1.9910  -1.9893  -1.7758  -1.7310  -1.7146
    -1.6455  -1.5335  -1.5188  -1.5117  -1.5101  -1.4980  -1.4941  -1.4902
    -1.4009  -1.3974  -1.3933  -1.2902  -1.2870  -1.2858  -1.2685  -1.2387
    -1.2306  -1.2213  -1.2187  -1.2009  -1.1582  -1.1332  -1.1294  -1.1177
    -1.0868  -1.0780  -1.0572  -1.0542  -1.0443  -1.0377  -1.0345  -1.0233
    -1.0179  -0.9776  -0.9773  -0.9738  -0.9700  -0.9642  -0.9639  -0.9593
    -0.9508  -0.9460  -0.9305  -0.9296  -0.9253  -0.9241  -0.9221  -0.9182
    -0.9153  -0.8973  -0.8935  -0.8922  -0.8907  -0.8859  -0.8563  -0.8326
    -0.8314  -0.8161  -0.8101  -0.7975  -0.7962  -0.7865  -0.7858  -0.7597
    -0.7576  -0.7533  -0.7459  -0.7337  -0.7275  -0.7248  -0.7187  -0.7090
    -0.7007  -0.6979  -0.6977  -0.6965  -0.6763  -0.6278  -0.6162  -0.6149
    -0.6021  -0.5931  -0.5862  -0.5844  -0.5783  -0.5734  -0.5571  -0.5528
    -0.5457  -0.5446  -0.5435  -0.5426  -0.5381  -0.5348  -0.5264  -0.5065
    -0.4787  -0.4730  -0.4614  -0.4534  -0.4447  -0.4313  -0.4223  -0.4139
    -0.4076  -0.3532  -0.3307  -0.3304  -0.3277  -0.3087  -0.3013  -0.2977
    -0.2956  -0.2859  -0.2846  -0.2592  -0.2413  -0.2393  -0.2342  -0.2264
    -0.2227  -0.2203  -0.2183  -0.2179  -0.2068  -0.2054  -0.2016  -0.1904
    -0.1495  -0.1433  -0.1033  -0.0959  -0.0718  -0.0617  -0.0611  -0.0561
    -0.0496  -0.0411  -0.0323  -0.0322  -0.0314  -0.0282  -0.0139   0.0014
     0.0030   0.0067   0.0100   0.0125   0.0168   0.0316   0.0474   0.0481
     0.0514   0.0516   0.0566   0.0685   0.0700   0.0764   0.0766   0.0824
     0.0881   0.0896   0.1220   0.1233   0.1286   0.1321   0.1426   0.1468
     0.1569   0.1619   0.1650   0.1661   0.2049   0.2090   0.2160   0.2171
     0.2204   0.2267   0.2374   0.2378   0.2439   0.2504   0.2562   0.2609
     0.2690   0.2707   0.2870   0.2968   0.3028   0.3371   0.3414   0.3434
     0.3472   0.3502   0.3570   0.3582   0.3587   0.3591   0.3614   0.3664
     0.3770   0.3819   0.4106   0.4229   0.4244   0.4261   0.4301   0.4343
     0.4368   0.4397   0.4427   0.4443   0.4519   0.4561   0.4583   0.4610
     0.4623   0.4623   0.4708   0.4740   0.4787   0.4828   0.4835   0.4872
     0.4921   0.5012   0.5028   0.5079   0.5091   0.5108   0.5200   0.5214
     0.5353   0.5367   0.5442   0.5476   0.5562   0.5563   0.5607   0.5651
     0.5687   0.5694   0.5820   0.5901   0.6316   0.6335   0.6427   0.6451
     0.6563   0.6731   0.6845   0.6857   0.6872   0.6946   0.7027   0.7100
     0.7140   0.7219   0.7303   0.7394   0.7458   0.7471   0.7533   0.7582
     0.7632   0.7652   0.7659   0.7716   0.7763   0.7802   0.7822   0.7849
     0.7889   0.7916   0.7949   0.7969   0.7972   0.8144   0.8454   0.8505
     0.8567   0.8618   0.8651   0.8732   0.8776   0.8871   0.8880   0.8949
     0.8995   0.9014   0.9079   0.9101   0.9111   0.9129   0.9153   0.9227
     0.9259   0.9292   0.9348   0.9370   0.9428   0.9432   0.9458   0.9523
     0.9541   0.9545   0.9628   0.9698   0.9720   0.9910   0.9936   1.0036
     1.0091   1.0092   1.0134   1.0173   1.0200   1.0217   1.0240   1.0248
     1.0256   1.0287   1.0349   1.0372   1.0386   1.0443   1.0490   1.0502
     1.0573   1.0672   1.0686   1.0865   1.0874   1.0918   1.0983   1.1012
     1.1015   1.1063   1.1070   1.1075   1.1227   1.1306   1.1326   1.1488
     1.1494   1.1556   1.1737   1.1867   1.1881   1.1919   1.2006   1.2014
     1.2034   1.2050   1.2098   1.2106   1.2114   1.2185   1.2234   1.2278
     1.2347   1.2402   1.2429   1.2435   1.2524   1.2596   1.2616   1.2636
     1.2713   1.2736   1.2743   1.2800   1.2809   1.2878   1.2891   1.2926
     1.3134   1.3147   1.3211   1.3286   1.3388   1.3767   1.3805   1.3819
     1.3881   1.3921   1.3952   1.4108   1.4114   1.4254   1.4257   1.4282
     1.4402   1.4433   1.4480   1.4562   1.4582   1.4590   1.4629   1.4656
     1.4712   1.4746   1.4834   1.4888   1.4901   1.4916   1.4921   1.4957
     1.5017   1.5034   1.5059   1.5065   1.5087   1.5142   1.5183   1.5204
     1.5267   1.5280   1.5350   1.5429   1.5463   1.5495   1.5508   1.5590
     1.5688   1.5736   1.5745   1.5824   1.5855   1.5900   1.5981   1.6033
     1.6058   1.6073   1.6113   1.6134   1.6145   1.6163   1.6194   1.6224
     1.6246   1.6247   1.6281   1.6413   1.6613   1.6652   1.6682   1.6720
     1.6730   1.6738   1.6758   1.6777   1.6783   1.6805   1.6833   1.6849
     1.6884   1.6933   1.6935   1.6950   1.6968   1.7039   1.7058   1.7076
     1.7117   1.7136   1.7165   1.7190   1.7260   1.7263   1.7284   1.7297
     1.7329   1.7407   1.7409   1.7499   1.7520   1.7636   1.7649   1.7684
     1.7723   1.7826   1.7842   1.7863   1.7878   1.7896   1.7980   1.7998
     1.8003   1.8032   1.8139   1.8170   1.8179   1.8204   1.8286   1.8305
     1.8329   1.8360   1.8431   1.8495   1.8535   1.8567   1.8576   1.8578
     1.8597   1.8666   1.8740   1.8839   1.8852   1.8918   1.8932   1.8953
     1.9011   1.9080   1.9129   1.9405   1.9461   1.9699   1.9751   1.9766
     1.9781   1.9808   1.9911   2.1390   2.3621   2.3891   2.4079   2.4667
     2.5386   2.5736   2.5941   2.6407   2.6514   2.6564   2.6593   2.6959
     2.9083   2.9097   2.9454   3.1358   3.1705   3.1957   3.1992   3.4640
     3.4682   3.5472   3.5563   3.5605   3.7638   3.8360   4.0271   4.0753
     4.0975   4.1551   4.1757   4.2458   4.2876   4.3002   4.3600   4.3910
     4.4340   4.4388   4.4464   4.6518   4.9104   4.9206   4.9447   4.9781
     4.9881   4.9987   5.1159   5.1417   5.1769   5.2248   5.2406   5.2725
     5.2946   5.3532   5.3704   5.3869   5.3871   5.4156   5.4204   5.4292
     5.5003   5.6258   5.6654   5.6695   5.6714   5.7465   5.7943   5.8315
     5.8401   5.8741   5.8757   5.9124   6.2312   6.2460   6.2842   6.3022
     6.3206   6.3249   6.3408   6.3520   6.3972   6.5455   6.5640   6.5845
     6.6820   6.8629   6.8879   6.9369   6.9436   7.0068   7.0283   7.3899
     7.4132   7.4281   7.4359   7.5408   7.5913   7.8086   7.9183   7.9190
     7.9317   7.9372   7.9524   7.9909   8.0597   8.1108   8.1245   8.1270
     8.1402   8.1921   8.2263   8.2454   8.2628   8.2892   8.3272   8.3385
     8.3433   8.3828   8.4458   8.5787   8.5886   8.5982   8.6498   8.6756
     8.7519   8.7569   9.1076   9.1407   9.1495   9.1711   9.1798   9.2665
     9.2668   9.2707   9.2754   9.3450   9.3780   9.3803   9.5967   9.5993
     9.6198   9.6203   9.6567   9.7081   9.7340   9.7355   9.8077   9.8405
     9.8460   9.8541   9.9005   9.9573   9.9729  10.0173

          k =-0.5000-0.2165 0.0000 (256328 PWs)   bands (ev):

   -15.2561 -15.2557 -15.1963 -15.1884 -14.5068 -14.4968 -14.4869 -14.4861
   -13.0790 -13.0691 -13.0681 -13.0619 -12.0536 -11.4402 -11.4388 -11.3784
   -11.3620 -11.0544 -11.0519 -11.0336 -11.0224 -10.8138 -10.8098 -10.7795
   -10.7699  -9.1412  -9.1360  -9.1025  -9.0865  -8.2116  -8.2022  -8.1700
    -8.1686  -7.7906  -7.4518  -7.4495  -7.4128  -7.4117  -5.3954  -5.3889
    -5.3804  -5.3751  -4.9643  -4.8284  -4.7986  -4.7842  -4.7811  -4.7412
    -4.7397  -4.6927  -4.6898  -4.4464  -4.4330  -4.4025  -4.3531  -4.2409
    -3.8383  -3.8343  -3.8242  -3.8178  -3.8134  -3.7984  -3.7392  -3.6987
    -3.5823  -3.5713  -3.5621  -3.5584  -3.4215  -3.4182  -3.3279  -3.1471
    -3.1417  -3.1306  -3.0837  -3.0790  -3.0715  -3.0570  -3.0496  -3.0265
    -2.9770  -2.8659  -2.8649  -2.8493  -2.6313  -2.6108  -2.5393  -2.4670
    -2.2903  -2.2116  -2.2093  -2.2042  -2.2001  -2.1870  -2.1465  -2.1180
    -2.0969  -1.8220  -1.8027  -1.7996  -1.7921  -1.7889  -1.7031  -1.7009
    -1.6968  -1.6811  -1.6741  -1.6649  -1.6386  -1.4579  -1.4520  -1.4486
    -1.4347  -1.4317  -1.4236  -1.4214  -1.4118  -1.3238  -1.2272  -1.2231
    -1.2131  -1.2050  -1.1723  -1.1610  -1.1273  -1.1234  -1.1190  -1.1134
    -1.1120  -1.0722  -1.0618  -1.0551  -1.0380  -1.0365  -1.0309  -1.0279
    -1.0140  -1.0118  -1.0095  -1.0058  -0.9949  -0.9933  -0.9839  -0.9783
    -0.9778  -0.9710  -0.9667  -0.9517  -0.9487  -0.9386  -0.9316  -0.9145
    -0.9124  -0.8691  -0.8610  -0.8354  -0.8272  -0.8226  -0.8216  -0.8129
    -0.8123  -0.8083  -0.8071  -0.7849  -0.7798  -0.7652  -0.7648  -0.7602
    -0.7572  -0.7471  -0.7418  -0.7383  -0.7356  -0.7216  -0.7132  -0.7046
    -0.6979  -0.6967  -0.6958  -0.6894  -0.6824  -0.6819  -0.6667  -0.6616
    -0.6585  -0.6423  -0.6395  -0.6379  -0.6365  -0.6136  -0.5490  -0.5243
    -0.5208  -0.5180  -0.5065  -0.4935  -0.4913  -0.4890  -0.4850  -0.4827
    -0.4821  -0.4608  -0.4514  -0.4265  -0.4132  -0.3959  -0.3906  -0.3872
    -0.3840  -0.3772  -0.3752  -0.3732  -0.3715  -0.3561  -0.3434  -0.3241
    -0.3226  -0.3194  -0.3144  -0.3091  -0.3029  -0.2932  -0.2926  -0.2912
    -0.2880  -0.2449  -0.2442  -0.2101  -0.1841  -0.1808  -0.1690  -0.1624
    -0.1595  -0.1592  -0.1424  -0.1195  -0.1167  -0.1070  -0.1024  -0.0837
    -0.0800  -0.0728  -0.0669  -0.0653  -0.0481  -0.0465  -0.0415  -0.0405
    -0.0199  -0.0178  -0.0125  -0.0068  -0.0066  -0.0053   0.0458   0.0506
     0.0552   0.0608   0.0669   0.0749   0.1034   0.1092   0.1241   0.1256
     0.1262   0.1307   0.1326   0.1362   0.1381   0.1393   0.1536   0.1703
     0.1904   0.2053   0.2073   0.2084   0.2099   0.2108   0.2139   0.2159
     0.2236   0.2255   0.2261   0.2407   0.2522   0.2574   0.2585   0.2620
     0.2651   0.2695   0.2740   0.2752   0.2860   0.2911   0.2950   0.2980
     0.3149   0.3395   0.3444   0.3446   0.3622   0.3729   0.3921   0.4032
     0.4187   0.4198   0.4221   0.4246   0.4319   0.4352   0.4427   0.4429
     0.4505   0.4511   0.4568   0.4629   0.4657   0.4677   0.4752   0.4758
     0.4817   0.4868   0.4871   0.4889   0.4896   0.4954   0.4981   0.5002
     0.5032   0.5072   0.5107   0.5167   0.5256   0.5258   0.5273   0.5327
     0.5418   0.5456   0.5507   0.5587   0.5679   0.5730   0.5772   0.5795
     0.5815   0.5935   0.6034   0.6074   0.6185   0.6195   0.6242   0.6284
     0.6634   0.6695   0.6768   0.6806   0.6830   0.7154   0.7198   0.7275
     0.7304   0.7336   0.7343   0.7461   0.7617   0.7661   0.7709   0.7711
     0.7722   0.7832   0.7846   0.7935   0.7962   0.7971   0.7994   0.8174
     0.8209   0.8222   0.8274   0.8351   0.8384   0.8413   0.8430   0.8439
     0.8452   0.8493   0.8508   0.8574   0.8595   0.8616   0.8636   0.8751
     0.8832   0.8868   0.9030   0.9035   0.9075   0.9134   0.9137   0.9193
     0.9301   0.9334   0.9367   0.9428   0.9450   0.9472   0.9492   0.9507
     0.9550   0.9605   0.9657   0.9668   0.9767   0.9798   0.9806   0.9837
     0.9900   0.9924   0.9973   0.9976   1.0054   1.0113   1.0189   1.0345
     1.0374   1.0426   1.0432   1.0514   1.0543   1.0564   1.0671   1.0707
     1.0724   1.0732   1.0838   1.0867   1.0934   1.0990   1.0991   1.1009
     1.1093   1.1098   1.1160   1.1172   1.1177   1.1207   1.1257   1.1366
     1.1369   1.1536   1.1580   1.1680   1.1775   1.1820   1.1841   1.1850
     1.1863   1.1955   1.1983   1.2124   1.2192   1.2307   1.2313   1.2374
     1.2429   1.2458   1.2490   1.2506   1.2587   1.2590   1.2786   1.2833
     1.2932   1.3127   1.3129   1.3159   1.3175   1.3412   1.3504   1.3571
     1.3653   1.3665   1.3742   1.3829   1.3880   1.3883   1.3955   1.3973
     1.3995   1.4030   1.4034   1.4058   1.4086   1.4114   1.4156   1.4171
     1.4210   1.4210   1.4228   1.4237   1.4281   1.4305   1.4399   1.4403
     1.4483   1.4490   1.4518   1.4524   1.4542   1.4586   1.4614   1.4633
     1.4716   1.4790   1.4824   1.4933   1.4960   1.4977   1.5037   1.5039
     1.5136   1.5145   1.5195   1.5216   1.5224   1.5263   1.5431   1.5545
     1.5613   1.5643   1.5666   1.5696   1.5734   1.5775   1.5808   1.5845
[...]
     atom   58 type  1   force =    -0.00067154    0.00020523    0.00017651
     atom   59 type  1   force =    -0.00000578    0.00022119    0.00029020
     atom   60 type  1   force =     0.00069699    0.00022307    0.00022252
     atom   61 type  1   force =     0.00003661    0.00020558    0.00006666
     atom   62 type  1   force =    -0.00032846    0.00035181    0.00001057
     atom   63 type  1   force =    -0.00003266    0.00043981    0.00053027
     atom   64 type  1   force =     0.00033344    0.00042828    0.00001734
     atom   65 type  1   force =    -0.00008240   -0.00035481    0.00095133
     atom   66 type  1   force =    -0.00003619    0.00077030   -0.00018356
     atom   67 type  1   force =    -0.00003984    0.00030503    0.00074669
     atom   68 type  1   force =     0.00007861    0.00073364   -0.00022834
     atom   69 type  1   force =    -0.00002136    0.00060673    0.00015763
     atom   70 type  1   force =    -0.00010616   -0.00010898    0.00083042
     atom   71 type  1   force =    -0.00002778    0.00028320   -0.00000628
     atom   72 type  1   force =     0.00019294   -0.00002265    0.00055495
     atom   73 type  1   force =    -0.00000345   -0.00008538   -0.00016709
     atom   74 type  1   force =    -0.00009798   -0.00020269   -0.00056286
     atom   75 type  1   force =    -0.00003367    0.00008835    0.00044730
     atom   76 type  1   force =     0.00014349   -0.00023622   -0.00054659
     atom   77 type  1   force =    -0.00001197    0.00009141   -0.00033454
     atom   78 type  1   force =    -0.00043633   -0.00013794   -0.00011199
     atom   79 type  1   force =     0.00001920    0.00019306   -0.00012425
     atom   80 type  1   force =     0.00042069   -0.00014745   -0.00008340
     atom   81 type  1   force =     0.00001015    0.00019332   -0.00071396
     atom   82 type  1   force =    -0.00000115    0.00048775   -0.00041778
     atom   83 type  1   force =     0.00001332    0.00062727   -0.00032764
     atom   84 type  1   force =     0.00003490    0.00041248   -0.00045801
     atom   85 type  1   force =    -0.00011992   -0.00014821   -0.00088649
     atom   86 type  1   force =    -0.00106830   -0.00044707    0.00035281
     atom   87 type  1   force =     0.00006650    0.00021348    0.00031707
     atom   88 type  1   force =     0.00110661   -0.00058478    0.00014681
     atom   89 type  1   force =    -0.00006351    0.00036953    0.00081322
     atom   90 type  1   force =    -0.00046832    0.00042246    0.00057106
     atom   91 type  1   force =     0.00002666    0.00013414    0.00411809
     atom   92 type  1   force =     0.00054613    0.00058870    0.00043508
     atom   93 type  1   force =    -0.00005936    0.00063626   -0.00135516
     atom   94 type  1   force =    -0.00023498   -0.00038877   -0.00060086
     atom   95 type  1   force =     0.00001429    0.00033424    0.00019916
     atom   96 type  1   force =     0.00025034   -0.00032387   -0.00059345
     atom   97 type  1   force =     0.00002535    0.00003910   -0.00064709
     atom   98 type  1   force =     0.00061281    0.00018185   -0.00071534
     atom   99 type  1   force =    -0.00006912   -0.00020055   -0.00005865
     atom  100 type  1   force =    -0.00058107    0.00016027   -0.00070002
     atom  101 type  2   force =    -0.00043757    0.00046721    0.00220426
     atom  102 type  2   force =     0.00067731    0.00030353    0.00085872
     atom  103 type  2   force =     0.00012233    0.00063624    0.00042692
     atom  104 type  2   force =     0.00013982    0.00136326    0.00196393
     atom  105 type  2   force =    -0.00087547    0.00041354   -0.00083171
     atom  106 type  2   force =    -0.00141444    0.00008276    0.00019809
     atom  107 type  2   force =     0.00027003    0.00192046   -0.00146770
     atom  108 type  2   force =     0.00078479    0.00005681    0.00086566
     atom  109 type  2   force =     0.00001636    0.00033406   -0.00026703
     atom  110 type  2   force =     0.00064916    0.00012011    0.00029030
     atom  111 type  2   force =     0.00071608    0.00048374    0.00029706
     atom  112 type  2   force =    -0.00046186    0.00084229    0.00114966
     atom  113 type  2   force =     0.00026448   -0.00018355   -0.00111348
     atom  114 type  2   force =    -0.00034986    0.00032104   -0.00011873
     atom  115 type  2   force =    -0.00019800    0.00077844   -0.00042248
     atom  116 type  2   force =     0.00013838   -0.00116501   -0.00101695
     atom  117 type  2   force =     0.00033558    0.00028459    0.00001752
     atom  118 type  2   force =     0.00075170   -0.00035910   -0.00221734
     atom  119 type  2   force =    -0.00019210   -0.00191923    0.00326977
     atom  120 type  2   force =    -0.00026725    0.00145311    0.00097597
     atom  121 type  2   force =     0.00018713   -0.00046870   -0.00004851
     atom  122 type  2   force =     0.00000756    0.00008357   -0.00309639
     atom  123 type  2   force =    -0.00076018    0.00090722    0.00089158
     atom  124 type  2   force =     0.00046985   -0.00077763    0.00002895
     atom  125 type  2   force =     0.00018616   -0.00097848   -0.00056418
     atom  126 type  2   force =     0.00062380   -0.00077522   -0.00180419
     atom  127 type  2   force =    -0.00055283   -0.00103075   -0.00014555
     atom  128 type  2   force =    -0.00034362    0.00021291    0.00130093
     atom  129 type  2   force =    -0.00011531   -0.00055023   -0.00013966
     atom  130 type  2   force =    -0.00085966   -0.00070892    0.00105144
     atom  131 type  2   force =    -0.00092885   -0.00013532    0.00137930
     atom  132 type  2   force =     0.00057396   -0.00123965    0.00082801
     atom  133 type  2   force =     0.00122473   -0.00101559   -0.00102636
     atom  134 type  2   force =     0.00030293   -0.00001660    0.00193321
     atom  135 type  2   force =    -0.00015244   -0.00074191   -0.00028418
     atom  136 type  2   force =    -0.00026435   -0.00078630    0.00100872
     atom  137 type  2   force =    -0.00031650    0.00016950    0.00009740
     atom  138 type  2   force =    -0.00048916   -0.00049718   -0.00034004
     atom  139 type  2   force =     0.00014246   -0.00054864    0.00099661
     atom  140 type  2   force =    -0.00003552   -0.00029538   -0.00165856
     atom  141 type  2   force =     0.00006983    0.00017949   -0.00115758
     atom  142 type  2   force =     0.00075993   -0.00001500   -0.00059595
     atom  143 type  2   force =     0.00025416   -0.00177663   -0.00275406
     atom  144 type  2   force =    -0.00030959    0.00050040   -0.00107407
     atom  145 type  2   force =    -0.00058605   -0.00012938   -0.00087021
     atom  146 type  2   force =    -0.00050592   -0.00000435   -0.00102376
     atom  147 type  2   force =     0.00019896   -0.00036080    0.00026486
     atom  148 type  2   force =     0.00053542   -0.00015775   -0.00150834
     atom  149 type  3   force =    -0.00053821   -0.00001429    0.00166267
     atom  150 type  3   force =    -0.00050024   -0.00354189   -0.00018836
     atom  151 type  2   force =    -0.00081805   -0.00134245    0.00321226
     atom  152 type  2   force =     0.00096637   -0.00125945    0.00300396
     atom  153 type  3   force =     0.00038287   -0.00013310    0.00190853
     atom  154 type  3   force =     0.00024896   -0.00339834   -0.00001671

     Total force =     0.015446     Total SCF correction =     0.000322

     number of scf cycles    =  14
     number of bfgs steps    =  13

     energy   old            =  -12726.2616308394 Ry
     energy   new            =  -12726.2619926191 Ry

     CASE: energy  _new < energy  _old

     new trust radius        =       0.0246766821 bohr
     new conv_thr            =       0.0000000100 Ry


ATOMIC_POSITIONS (angstrom)
Cu       0.001507225  -0.018974067   7.335360727
Cu       1.846446307   1.656229798   7.330830570
Cu       3.690808377  -0.028672875   7.322550747
Cu       5.535075046   1.656424379   7.330627582
Cu       0.001760038   3.362681857   7.330119754
Cu       1.850163740   5.088326470   7.340972425
Cu       3.690816418   3.367175262   7.343912749
Cu       5.531521019   5.088307566   7.340835508
Cu       0.002022657   6.817109912   7.336985174
Cu       1.850039890   8.550445919   7.335954823
Cu       3.690681327   6.816986758   7.344810370
Cu       5.531493401   8.550266107   7.335707075
Cu       0.001479464  10.286361334   7.316971075
Cu       1.845912618  12.004435158   7.312482187
Cu       3.690860588  10.282564574   7.329979027
Cu       5.535373680  12.004446376   7.312676414
Cu       0.001630790  13.687006745   7.323036630
Cu       1.841437794  15.355006062   7.327812145
Cu       3.690486733  13.696647651   7.305831604
Cu       5.539773101  15.354860662   7.328076593
Cu       0.001831491   1.654851369   9.184106108
Cu       1.843604445  -0.024825284   9.201718925
Cu       3.690906353   1.639596785   9.165338651
Cu       5.538079353  -0.024268770   9.202189005
Cu       0.001967892   5.076579631   9.138975819
Cu       1.844195522   3.347902341   9.153195743
Cu       3.691208264   5.080868000   9.159439361
Cu       5.537791847   3.347780291   9.153085956
Cu       0.001827156   8.571083083   9.125625173
Cu       1.845626769   6.821911706   9.148398738
Cu       3.691116773   8.566479822   9.143575115
Cu       5.536559809   6.821839576   9.148070166
Cu       0.001621987  12.008943330   9.158675599
Cu       1.844970791  10.309942117   9.127792726
Cu       3.690808136  12.025349114   9.141094069
Cu       5.536633468  10.309733264   9.127964292
Cu       0.001530925  15.351693648   9.205034429
Cu       1.842778932  13.689867314   9.184899517
Cu       3.690968896  15.347678549   9.197024664
Cu       5.538777142  13.689476521   9.185205582
Cu       0.001722115  -0.018798574  11.083645722
Cu       1.839350585   1.663369015  11.045318480
Cu       3.691408482  -0.020036676  11.061725281
Cu       5.543113380   1.663768004  11.045844784
Cu       0.002387207   3.358484580  11.002464208
Cu       1.837042233   5.063678414  10.948453224
Cu       3.691147881   3.334414528  10.969508809
Cu       5.545723124   5.063523089  10.948964789
Cu       0.002132925   6.829711246  10.926627713
Cu       1.838974848   8.601311377  10.924899650
Cu       3.691651978   6.829507339  10.933631046
Cu       5.543338680   8.601001276  10.925268507
Cu       0.001873620  10.312359657  10.967545269
Cu       1.840634783  12.006924681  11.012487983
Cu       3.691172930  10.330402620  10.941397786
Cu       5.541428111  12.006590907  11.013279917
Cu       0.001899056  13.677575225  11.070800190
Cu       1.848394072  15.346933993  11.087945053
Cu       3.691027001  13.674362561  11.059470708
Cu       5.533603330  15.346719114  11.087744000
Cu       0.002167007   1.700637099  12.918950152
Cu       1.845154981   0.004606408  12.951440025
Cu       3.691704853   1.680458550  12.879357671
Cu       5.537519642   0.004151938  12.951686830
Cu       0.003440878   5.107294847  12.782008291
Cu       1.841329186   3.391416534  12.855484708
Cu       3.691925888   5.048883603  12.696784440
Cu       5.542127668   3.392736347  12.856648415
Cu       0.002274444   8.586192562  12.739475892
Cu       1.831633864   6.846386486  12.670042606
Cu       3.691520562   8.637550884  12.672520089
Cu       5.551100383   6.845578350  12.671543199
Cu       0.001955947  11.965454998  12.905210387
Cu       1.840381736  10.303880738  12.805251991
Cu       3.691537125  11.965315788  12.878432554
Cu       5.542129447  10.302717917  12.806948969
Cu       0.002428163  15.340829880  12.966510901
Cu       1.847708359  13.646862649  12.942865883
Cu       3.691089948  15.348840102  12.957341451
Cu       5.534928909  13.647251393  12.942783645
Cu       0.002349194   0.030381401  14.781370781
Cu       1.835400522   1.746532854  14.765915668
Cu       3.691514215   0.041259546  14.779766514
Cu       5.548105033   1.747367220  14.766438160
Cu       0.003813152   3.481890151  14.707219767
Cu       1.853183601   5.178994069  14.559083018
Cu       3.691941777   3.403621962  14.638210858
Cu       5.533095286   5.180094778  14.558111417
Cu       0.004957144   6.868575510  14.512840950
Cu       1.823928589   8.571755361  14.508636535
Cu       3.691515062   6.894466323  14.277834278
Cu       5.558796853   8.567819958  14.510283338
Cu       0.001739264  10.219038123  14.719074693
Cu       1.850364735  11.907494159  14.756752777
Cu       3.691856348  10.218640737  14.657130092
Cu       5.532098709  11.907615162  14.757065184
Cu       0.001950063  13.611154140  14.787106781
Cu       1.847318604  15.341744636  14.784302059
Cu       3.691680168  13.614626531  14.762510960
Cu       5.535421336  15.342028521  14.784439517
C       -0.000605348   0.734060292  17.837957598
C       -0.000562573   2.149420086  18.061812171
C        1.229511379   0.017462644  17.766668009
C        1.229985651   2.851191363  18.215130191
C        2.459394401   0.731043539  17.850032182
C        2.460387113   2.146374798  18.076632169
C        3.688877815   0.012648565  17.775478357
C        3.688787217   2.853982673  18.231757423
C        4.918417249   0.732391247  17.847506260
C        4.917188556   2.147612553  18.077057027
C        6.147808953   0.017544431  17.766276279
C        6.147615680   2.852621549  18.214928229
C        0.000297384   4.958210557  18.643061235
C       -0.000727227   6.384096999  18.768458224
C        1.230738662   4.248240625  18.533158422
C        1.228892006   7.103221095  18.788467283
C        2.457128596   4.952367974  18.718433458
C        2.456353014   6.381888389  18.876587781
C        3.688799503   4.248909987  18.567086911
C        3.688291195   7.103625479  18.878621048
C        4.920429103   4.953207372  18.717100410
C        4.919621140   6.381977088  18.878036632
C        6.147337988   4.250553922  18.528561082
C        6.147388428   7.102795769  18.785402447
C       -0.000179135   9.222996437  18.425157257
C       -0.000514649  10.622692131  18.125211703
C        1.230106722   8.521477656  18.586375924
C        1.230743935  11.328350677  17.992393995
C        2.462222083   9.226638212  18.461462412
C        2.461078674  10.626002488  18.148474685
C        3.689207736   8.521138289  18.638966889
C        3.688699146  11.336230972  18.019219398
C        4.916405747   9.228375396  18.464917356
C        4.916211871  10.626846907  18.147480874
C        6.147679955   8.521688456  18.586810009
C        6.146579712  11.329771603  17.992631840
C        0.000085439  13.467347462  17.721070114
C        0.000144633  14.901806786  17.682748204
C        1.230808028  12.747268257  17.789809046
C        1.228999733  15.623821774  17.687029836
C        2.458259822  13.469723394  17.756223684
C        2.458768171  14.901446039  17.695909570
C        3.688572138  12.756045314  17.830981764
C        3.689109836  15.620024419  17.708805883
C        4.919203022  13.470154677  17.757004054
C        4.919269910  14.901731872  17.695668971
C        6.146875453  12.749103184  17.793738222
C        6.149308891  15.623910439  17.688750407
H        2.449164828   7.356624879  16.506444590
H        2.490800471   5.528257811  16.402366717
C        2.981816283   6.480707167  16.131920190
C        4.415114543   6.493138070  16.126583482
H        4.933370882   7.377732044  16.501729216
H        4.924789838   5.550744289  16.399310611



     Writing output data file gc.save
     Check: negative starting charge=   -0.001695
     NEW-OLD atomic charge density approx. for the potential
     Check: negative starting charge=   -0.001695

     negative rho (up, down):  1.668E-03 0.000E+00

     total cpu time spent up to now is    51745.7 secs

     Self-consistent Calculation

     iteration #  1     ecut=    80.00 Ry     beta=0.70
     Davidson diagonalization with overlap
     ethr =  1.00E-06,  avg # of iterations =  4.0

     negative rho (up, down):  1.845E-03 0.000E+00

     total cpu time spent up to now is    52230.9 secs

     total energy              =  -12726.26221422 Ry
     Harris-Foulkes estimate   =  -12726.26341225 Ry
     estimated scf accuracy    <       0.01004640 Ry

     iteration #  2     ecut=    80.00 Ry     beta=0.70
     Davidson diagonalization with overlap
     ethr =  7.70E-07,  avg # of iterations =  2.0

     negative rho (up, down):  1.969E-03 0.000E+00

     total cpu time spent up to now is    52422.7 secs

     total energy              =  -12726.26223115 Ry
     Harris-Foulkes estimate   =  -12726.26274017 Ry
     estimated scf accuracy    <       0.00154133 Ry

     iteration #  3     ecut=    80.00 Ry     beta=0.70
     Davidson diagonalization with overlap
     ethr =  1.18E-07,  avg # of iterations =  3.0

     negative rho (up, down):  2.114E-03 0.000E+00

     total cpu time spent up to now is    52667.1 secs

     total energy              =  -12726.26232136 Ry
     Harris-Foulkes estimate   =  -12726.26260091 Ry
     estimated scf accuracy    <       0.00292862 Ry

     iteration #  4     ecut=    80.00 Ry     beta=0.70
     Davidson diagonalization with overlap
     ethr =  1.18E-07,  avg # of iterations =  2.0

     negative rho (up, down):  2.105E-03 0.000E+00

     total cpu time spent up to now is    52861.0 secs

     total energy              =  -12726.26243500 Ry
     Harris-Foulkes estimate   =  -12726.26244222 Ry
     estimated scf accuracy    <       0.00004377 Ry

     iteration #  5     ecut=    80.00 Ry     beta=0.70
     Davidson diagonalization with overlap
     ethr =  3.36E-09,  avg # of iterations =  3.0

     negative rho (up, down):  2.046E-03 0.000E+00

     total cpu time spent up to now is    53099.9 secs

     total energy              =  -12726.26243817 Ry
     Harris-Foulkes estimate   =  -12726.26244255 Ry
     estimated scf accuracy    <       0.00002698 Ry

     iteration #  6     ecut=    80.00 Ry     beta=0.70
     Davidson diagonalization with overlap
     ethr =  2.07E-09,  avg # of iterations =  2.0

     negative rho (up, down):  1.961E-03 0.000E+00

     total cpu time spent up to now is    53294.7 secs

     total energy              =  -12726.26243894 Ry
     Harris-Foulkes estimate   =  -12726.26243988 Ry
     estimated scf accuracy    <       0.00000798 Ry

     iteration #  7     ecut=    80.00 Ry     beta=0.70
     Davidson diagonalization with overlap
     ethr =  6.12E-10,  avg # of iterations =  2.0

     negative rho (up, down):  1.867E-03 0.000E+00

     total cpu time spent up to now is    53484.1 secs

     total energy              =  -12726.26243929 Ry
     Harris-Foulkes estimate   =  -12726.26243961 Ry
     estimated scf accuracy    <       0.00000427 Ry

     iteration #  8     ecut=    80.00 Ry     beta=0.70
     Davidson diagonalization with overlap
     ethr =  3.28E-10,  avg # of iterations =  2.0

     negative rho (up, down):  1.778E-03 0.000E+00

     total cpu time spent up to now is    53676.0 secs

     total energy              =  -12726.26243964 Ry
     Harris-Foulkes estimate   =  -12726.26243955 Ry
     estimated scf accuracy    <       0.00000078 Ry

     iteration #  9     ecut=    80.00 Ry     beta=0.70
     Davidson diagonalization with overlap
     ethr =  6.00E-11,  avg # of iterations =  2.8

     negative rho (up, down):  1.732E-03 0.000E+00

     total cpu time spent up to now is    53878.5 secs

     total energy              =  -12726.26243979 Ry
     Harris-Foulkes estimate   =  -12726.26243972 Ry
     estimated scf accuracy    <       0.00000046 Ry

     iteration # 10     ecut=    80.00 Ry     beta=0.70
     Davidson diagonalization with overlap
     ethr =  3.50E-11,  avg # of iterations =  2.0

     negative rho (up, down):  1.710E-03 0.000E+00

     total cpu time spent up to now is    54068.9 secs

     total energy              =  -12726.26243987 Ry
     Harris-Foulkes estimate   =  -12726.26243982 Ry
     estimated scf accuracy    <       0.00000013 Ry

     iteration # 11     ecut=    80.00 Ry     beta=0.70
     Davidson diagonalization with overlap
