
     Program PWSCF v.5.4.0 starts on 17Mar2017 at  1:56:33 

     This program is part of the open-source Quantum ESPRESSO suite
     for quantum simulation of materials; please cite
         "P. Giannozzi et al., J. Phys.:Condens. Matter 21 395502 (2009);
          URL http://www.quantum-espresso.org", 
     in publications or presentations arising from this work. More details at
     http://www.quantum-espresso.org/quote

     Parallel version (MPI & OpenMP), running on      56 processor cores
     Number of MPI processes:                56
     Threads/MPI process:                     1
     R & G space division:  proc/nbgrp/npool/nimage =      56
     Waiting for input...
     Reading input from standard input

     Current dimensions of program PWSCF are:
     Max number of different atomic species (ntypx) = 10
     Max number of k-points (npk) =  40000
     Max angular momentum in pseudopotentials (lmaxx) =  3

     -------------------------------------
     Parameters for Dispersion Correction:
     -------------------------------------
       atom      VdW radius       C_6     

        Cu         2.952        374.666
        C          2.744         60.710
        H          1.892          4.857

     Subspace diagonalization in iterative solution of the eigenvalue problem:
     one sub-group per band group will be used
     scalapack distributed-memory algorithm (size of sub-group:  5*  5 procs)

 
     Parallelization info
     --------------------
     sticks:   dense  smooth     PW     G-vecs:    dense   smooth      PW
     Min         204     204     54                36612    36612    4962
     Max         205     205     55                36617    36617    4968
     Sum       11433   11433   3039              2050409  2050409  278033
 


     bravais-lattice index     =            0
     lattice parameter (alat)  =      13.9425  a.u.
     unit-cell volume          =   21209.0878 (a.u.)^3
     number of atoms/cell      =          154
     number of atomic types    =            3
     number of electrons       =      1304.00
     number of Kohn-Sham states=          782
     kinetic-energy cutoff     =      80.0000  Ry
     charge density cutoff     =     320.0000  Ry
     convergence threshold     =      1.0E-08
     mixing beta               =       0.7000
     number of iterations used =            8  local-TF  mixing
     Exchange-correlation      =  SLA  PW   PBE  PBE ( 1  4  3  4 0 0)
     nstep                     =           50


     celldm(1)=  13.942539  celldm(2)=   0.000000  celldm(3)=   0.000000
     celldm(4)=   0.000000  celldm(5)=   0.000000  celldm(6)=   0.000000

     crystal axes: (cart. coord. in units of alat)
               a(1) = (   1.000000   0.000000   0.000000 )  
               a(2) = (   0.000000   2.309401   0.000000 )  
               a(3) = (   0.000000   0.000000   3.388418 )  

     reciprocal axes: (cart. coord. in units 2 pi/alat)
               b(1) = (  1.000000  0.000000  0.000000 )  
               b(2) = (  0.000000  0.433013  0.000000 )  
               b(3) = (  0.000000  0.000000  0.295123 )  


     PseudoPot. # 1 for Cu read from file:
     /home/549/hxw549/Short/pseudopotentials/Cu.pbe-n-van_ak.UPF
     MD5 check sum: 601f7c30f7467666bec936e0661ce3e1
     Pseudo is Ultrasoft + core correction, Zval = 11.0
     Generated by new atomic code, or converted to UPF format
     Using radial grid of  867 points,  6 beta functions with: 
                l(1) =   0
                l(2) =   0
                l(3) =   1
                l(4) =   1
                l(5) =   2
                l(6) =   2
     Q(r) pseudized with  8 coefficients,  rinner =    1.400   1.400   1.400
                                                       1.400   1.400

     PseudoPot. # 2 for C  read from file:
     /home/549/hxw549/Short/pseudopotentials/C.pbe-mt_gipaw.UPF
     MD5 check sum: 5ac2f21f2c440b14befe521540822c15
     Pseudo is Norm-conserving, Zval =  4.0
     Generated by new atomic code, or converted to UPF format
     Using radial grid of 1073 points,  1 beta functions with: 
                l(1) =   0

     PseudoPot. # 3 for H  read from file:
     /home/549/hxw549/Short/pseudopotentials/H.pbe-van_ak.UPF
     MD5 check sum: 077eb6d537518a38cb46c6de387227b7
     Pseudo is Ultrasoft, Zval =  1.0
     Generated by new atomic code, or converted to UPF format
     Using radial grid of  615 points,  1 beta functions with: 
                l(1) =   0
     Q(r) pseudized with  8 coefficients,  rinner =    0.800

     atomic species   valence    mass     pseudopotential
        Cu            11.00    63.54600     Cu( 1.00)
        C              4.00    12.01070     C ( 1.00)
        H              1.00     1.00783     H ( 1.00)

     No symmetry found



   Cartesian axes

     site n.     atom                  positions (alat units)
         1           Cu  tau(   1) = (  -0.0000061   0.0000859   0.9974453  )
         2           Cu  tau(   2) = (   0.2499834   0.2309435   0.9974857  )
         3           Cu  tau(   3) = (   0.4999820   0.0000292   0.9973921  )
         4           Cu  tau(   4) = (   0.7499943   0.2309608   0.9975192  )
         5           Cu  tau(   5) = (  -0.0000148   0.4618129   0.9975194  )
         6           Cu  tau(   6) = (   0.2499854   0.6927730   0.9973716  )
         7           Cu  tau(   7) = (   0.4999975   0.4618632   0.9975075  )
         8           Cu  tau(   8) = (   0.7500019   0.6927697   0.9973799  )
         9           Cu  tau(   9) = (  -0.0000106   0.9237787   0.9972545  )
        10           Cu  tau(  10) = (   0.2500158   1.1547493   0.9973328  )
        11           Cu  tau(  11) = (   0.4999952   0.9237374   0.9972820  )
        12           Cu  tau(  12) = (   0.7499663   1.1547437   0.9973571  )
        13           Cu  tau(  13) = (  -0.0000104   1.3856717   0.9974709  )
        14           Cu  tau(  14) = (   0.2499853   1.6165564   0.9975482  )
        15           Cu  tau(  15) = (   0.4999900   1.3856800   0.9975628  )
        16           Cu  tau(  16) = (   0.7499916   1.6165628   0.9975545  )
        17           Cu  tau(  17) = (  -0.0000073   1.8474464   0.9974902  )
        18           Cu  tau(  18) = (   0.2499750   2.0784722   0.9974066  )
        19           Cu  tau(  19) = (   0.4999832   1.8474812   0.9974253  )
        20           Cu  tau(  20) = (   0.7500006   2.0784589   0.9973454  )
        21           Cu  tau(  21) = (   0.0000109   0.2310340   1.2461899  )
        22           Cu  tau(  22) = (   0.2499611   0.0001434   1.2460132  )
        23           Cu  tau(  23) = (   0.4999655   0.2309886   1.2459791  )
        24           Cu  tau(  24) = (   0.7500092   0.0000164   1.2458673  )
        25           Cu  tau(  25) = (   0.0000112   0.6929613   1.2458008  )
        26           Cu  tau(  26) = (   0.2499727   0.4619415   1.2459274  )
        27           Cu  tau(  27) = (   0.5000148   0.6929143   1.2458515  )
        28           Cu  tau(  28) = (   0.7500244   0.4619772   1.2460084  )
        29           Cu  tau(  29) = (   0.0000256   1.1545435   1.2458302  )
        30           Cu  tau(  30) = (   0.2500054   0.9237705   1.2457457  )
        31           Cu  tau(  31) = (   0.4999823   1.1544964   1.2459093  )
        32           Cu  tau(  32) = (   0.7500144   0.9237499   1.2457813  )
        33           Cu  tau(  33) = (   0.0000043   1.6164167   1.2460943  )
        34           Cu  tau(  34) = (   0.2499800   1.3854236   1.2460378  )
        35           Cu  tau(  35) = (   0.4999700   1.6165683   1.2460311  )
        36           Cu  tau(  36) = (   0.7500068   1.3854772   1.2459916  )
        37           Cu  tau(  37) = (   0.0000062   2.0785055   1.2457744  )
        38           Cu  tau(  38) = (   0.2499628   1.8474789   1.2459507  )
        39           Cu  tau(  39) = (   0.4999638   2.0784842   1.2457312  )
        40           Cu  tau(  40) = (   0.7500076   1.8475446   1.2458854  )
        41           Cu  tau(  41) = (   0.0000421  -0.0000984   1.4956486  )
        42           Cu  tau(  42) = (   0.2499623   0.2315383   1.4961046  )
        43           Cu  tau(  43) = (   0.4999233  -0.0000235   1.4954027  )
        44           Cu  tau(  44) = (   0.7500237   0.2310909   1.4955939  )
        45           Cu  tau(  45) = (   0.0001374   0.4625534   1.4958692  )
        46           Cu  tau(  46) = (   0.2500592   0.6931357   1.4956891  )
        47           Cu  tau(  47) = (   0.4999375   0.4622726   1.4956622  )
        48           Cu  tau(  48) = (   0.7501621   0.6931585   1.4957151  )
        49           Cu  tau(  49) = (   0.0001828   0.9236847   1.4959747  )
        50           Cu  tau(  50) = (   0.2499626   1.1539495   1.4960842  )
        51           Cu  tau(  51) = (   0.5000381   0.9235334   1.4959102  )
        52           Cu  tau(  52) = (   0.7502011   1.1541901   1.4957430  )
        53           Cu  tau(  53) = (   0.0000953   1.3849016   1.4959015  )
        54           Cu  tau(  54) = (   0.2498984   1.6162198   1.4957240  )
        55           Cu  tau(  55) = (   0.4999417   1.3851159   1.4955146  )
        56           Cu  tau(  56) = (   0.7500739   1.6163865   1.4955053  )
        57           Cu  tau(  57) = (   0.0000045   1.8475864   1.4954591  )
        58           Cu  tau(  58) = (   0.2499675   2.0785101   1.4955159  )
        59           Cu  tau(  59) = (   0.4999572   1.8477277   1.4954640  )
        60           Cu  tau(  60) = (   0.7499945   2.0785278   1.4955203  )
        61           Cu  tau(  61) = (   0.0002526   0.2313820   1.7443139  )
        62           Cu  tau(  62) = (   0.2500737  -0.0001503   1.7450533  )
        63           Cu  tau(  63) = (   0.4998469   0.2308748   1.7445869  )
        64           Cu  tau(  64) = (   0.7499076  -0.0000485   1.7449958  )
        65           Cu  tau(  65) = (   0.0007880   0.6933814   1.7462931  )
        66           Cu  tau(  66) = (   0.2505091   0.4637436   1.7464953  )
        67           Cu  tau(  67) = (   0.5001093   0.6932142   1.7459778  )
        68           Cu  tau(  68) = (   0.7499111   0.4624311   1.7447734  )
        69           Cu  tau(  69) = (   0.0006026   1.1535406   1.7467850  )
        70           Cu  tau(  70) = (   0.2504681   0.9227611   1.7472317  )
        71           Cu  tau(  71) = (   0.5001426   1.1538995   1.7452058  )
        72           Cu  tau(  72) = (   0.7505891   0.9235710   1.7460410  )
        73           Cu  tau(  73) = (   0.0000939   1.6164061   1.7446895  )
        74           Cu  tau(  74) = (   0.2497645   1.3844234   1.7455021  )
        75           Cu  tau(  75) = (   0.4999242   1.6163742   1.7438986  )
        76           Cu  tau(  76) = (   0.7504900   1.3848341   1.7447937  )
        77           Cu  tau(  77) = (  -0.0000473   2.0782602   1.7454104  )
        78           Cu  tau(  78) = (   0.2498110   1.8476558   1.7448167  )
        79           Cu  tau(  79) = (   0.5000051   2.0786793   1.7453087  )
        80           Cu  tau(  80) = (   0.7501459   1.8475994   1.7447935  )
        81           Cu  tau(  81) = (   0.0000976   0.0007723   1.9906318  )
        82           Cu  tau(  82) = (   0.2501989   0.2313265   1.9903681  )
        83           Cu  tau(  83) = (   0.4999932   0.0000684   1.9922485  )
        84           Cu  tau(  84) = (   0.7502428   0.2309055   1.9904384  )
        85           Cu  tau(  85) = (   0.0001321   0.4622343   1.9898579  )
        86           Cu  tau(  86) = (   0.2538981   0.6929866   1.9986273  )
        87           Cu  tau(  87) = (   0.5010490   0.4602715   1.9915572  )
        88           Cu  tau(  88) = (   0.7488732   0.6926230   1.9918521  )
        89           Cu  tau(  89) = (   0.0018147   0.9218361   1.9937327  )
        90           Cu  tau(  90) = (   0.2511742   1.1538759   1.9943600  )
        91           Cu  tau(  91) = (   0.5011685   0.9247265   1.9937814  )
        92           Cu  tau(  92) = (   0.7507104   1.1545977   1.9924256  )
        93           Cu  tau(  93) = (   0.0005167   1.3857501   1.9918262  )
        94           Cu  tau(  94) = (   0.2497976   1.6164030   1.9902238  )
        95           Cu  tau(  95) = (   0.5002128   1.3859419   1.9895526  )
        96           Cu  tau(  96) = (   0.7503957   1.6162378   1.9900106  )
        97           Cu  tau(  97) = (  -0.0000512   1.8469837   1.9922161  )
        98           Cu  tau(  98) = (   0.2497710   2.0782644   1.9915109  )
        99           Cu  tau(  99) = (   0.5000489   1.8467959   1.9902846  )
       100           Cu  tau( 100) = (   0.7502177   2.0783528   1.9915112  )
       101           C   tau( 101) = (  -0.0003414   0.0959260   2.4569285  )
       102           C   tau( 102) = (  -0.0005311   0.2880372   2.4550987  )
       103           C   tau( 103) = (   0.1664900   0.0000150   2.4558442  )
       104           C   tau( 104) = (   0.1658950   0.3836141   2.4503549  )
       105           C   tau( 105) = (   0.3329823   0.0959316   2.4525913  )
       106           C   tau( 106) = (   0.3328908   0.2882354   2.4495146  )
       107           C   tau( 107) = (   0.4998429  -0.0001390   2.4526455  )
       108           C   tau( 108) = (   0.4998623   0.3845275   2.4474544  )
       109           C   tau( 109) = (   0.6666737   0.0961327   2.4539196  )
       110           C   tau( 110) = (   0.6667355   0.2883844   2.4505853  )
       111           C   tau( 111) = (   0.8331060  -0.0000590   2.4567116  )
       112           C   tau( 112) = (   0.8332675   0.3844924   2.4518729  )
       113           C   tau( 113) = (  -0.0008062   0.6731012   2.4487556  )
       114           C   tau( 114) = (  -0.0004346   0.8662185   2.4426700  )
       115           C   tau( 115) = (   0.1659344   0.5759929   2.4480644  )
       116           C   tau( 116) = (   0.1629216   0.9639019   2.4514121  )
       117           C   tau( 117) = (   0.3320481   0.6697401   2.4496501  )
       118           C   tau( 118) = (   0.3296302   0.8640589   2.4460855  )
       119           C   tau( 119) = (   0.4992644   0.5768075   2.4492842  )
       120           C   tau( 120) = (   0.5027458   0.9640845   2.4487420  )
       121           C   tau( 121) = (   0.6668673   0.6738861   2.4491893  )
       122           C   tau( 122) = (   0.6694731   0.8650813   2.4519136  )
       123           C   tau( 123) = (   0.8334719   0.5771319   2.4489454  )
       124           C   tau( 124) = (   0.8326020   0.9624951   2.4437814  )
       125           C   tau( 125) = (  -0.0005408   1.2515536   2.4461533  )
       126           C   tau( 126) = (  -0.0002025   1.4441657   2.4469530  )
       127           C   tau( 127) = (   0.1659611   1.1548761   2.4504769  )
       128           C   tau( 128) = (   0.1666509   1.5402873   2.4507615  )
       129           C   tau( 129) = (   0.3337850   1.2519397   2.4556680  )
       130           C   tau( 130) = (   0.3332515   1.4442312   2.4535943  )
       131           C   tau( 131) = (   0.5005739   1.1593011   2.4588666  )
       132           C   tau( 132) = (   0.4998278   1.5404340   2.4549903  )
       133           C   tau( 133) = (   0.6662401   1.2526435   2.4504363  )
       134           C   tau( 134) = (   0.6665454   1.4450373   2.4512766  )
       135           C   tau( 135) = (   0.8333031   1.1555540   2.4462617  )
       136           C   tau( 136) = (   0.8331891   1.5406696   2.4503007  )
       137           C   tau( 137) = (  -0.0000297   1.8288667   2.4528759  )
       138           C   tau( 138) = (  -0.0000613   2.0211271   2.4554105  )
       139           C   tau( 139) = (   0.1667729   1.7325293   2.4535265  )
       140           C   tau( 140) = (   0.1665083   2.1171200   2.4554105  )
       141           C   tau( 141) = (   0.3332856   1.8286704   2.4560339  )
       142           C   tau( 142) = (   0.3333299   2.0209605   2.4555189  )
       143           C   tau( 143) = (   0.4998642   1.7326998   2.4559255  )
       144           C   tau( 144) = (   0.4998585   2.1169691   2.4556680  )
       145           C   tau( 145) = (   0.6664680   1.8286764   2.4559933  )
       146           C   tau( 146) = (   0.6664575   2.0209616   2.4557629  )
       147           C   tau( 147) = (   0.8331465   1.7328249   2.4536078  )
       148           C   tau( 148) = (   0.8332060   2.1170919   2.4556273  )
       149           H   tau( 149) = (   0.3606632   1.0300791   2.2468143  )
       150           H   tau( 150) = (   0.3606632   0.7915345   2.2468143  )
       151           C   tau( 151) = (   0.4148802   0.9105182   2.2468143  )
       152           C   tau( 152) = (   0.5910779   0.9105182   2.2468143  )
       153           H   tau( 153) = (   0.6534226   1.0300791   2.2468143  )
       154           H   tau( 154) = (   0.6534226   0.7915345   2.2468143  )

     number of k points=     6  gaussian smearing, width (Ry)=  0.1000
                       cart. coord. in units 2pi/alat
        k(    1) = (   0.0000000   0.0000000   0.0000000), wk =   0.2500000
        k(    2) = (   0.0000000  -0.2165064   0.0000000), wk =   0.2500000
        k(    3) = (   0.2500000   0.0000000   0.0000000), wk =   0.5000000
        k(    4) = (   0.2500000  -0.2165064   0.0000000), wk =   0.5000000
        k(    5) = (  -0.5000000   0.0000000   0.0000000), wk =   0.2500000
        k(    6) = (  -0.5000000  -0.2165064   0.0000000), wk =   0.2500000

     Dense  grid:  2050409 G-vectors     FFT dimensions: (  80, 192, 270)

     Largest allocated arrays     est. size (Mb)     dimensions
        Kohn-Sham Wavefunctions        54.94 Mb     (    4604,  782)
        NL pseudopotentials           130.25 Mb     (    4604, 1854)
        Each V/rho on FFT grid          1.17 Mb     (   76800)
        Each G-vector array             0.28 Mb     (   36616)
        G-vector shells                 0.14 Mb     (   17932)
     Largest temporary arrays     est. size (Mb)     dimensions
        Auxiliary wavefunctions       219.75 Mb     (    4604, 3128)
        Each subspace H/S matrix        5.96 Mb     (     625,  625)
        Each <psi_i|beta_j> matrix     22.12 Mb     (    1854,  782)
        Arrays for rho mixing           9.38 Mb     (   76800,    8)

     Initial potential from superposition of free atoms
     Check: negative starting charge=   -0.001799

     starting charge 1277.81747, renormalised to 1304.00000

     negative rho (up, down):  1.836E-03 0.000E+00
     Starting wfc are 1304 randomized atomic wfcs

     total cpu time spent up to now is      108.6 secs

     Self-consistent Calculation

     iteration #  1     ecut=    80.00 Ry     beta=0.70
     Davidson diagonalization with overlap
     c_bands:  5 eigenvalues not converged
     c_bands:  4 eigenvalues not converged
     ethr =  1.00E-04,  avg # of iterations = 46.8

     negative rho (up, down):  2.745E+01 0.000E+00

     total cpu time spent up to now is     2426.8 secs

     total energy              =   -9563.39224970 Ry
     Harris-Foulkes estimate   =  -17773.42202810 Ry
     estimated scf accuracy    <  197906.10877401 Ry

     iteration #  2     ecut=    80.00 Ry     beta=0.70
     Davidson diagonalization with overlap
     ethr =  1.00E-02,  avg # of iterations = 13.7

     negative rho (up, down):  3.214E+01 0.000E+00

     total cpu time spent up to now is     3401.9 secs

     total energy              =  -11924.84736918 Ry
     Harris-Foulkes estimate   =  -13778.66165760 Ry
     estimated scf accuracy    <   31782.83950800 Ry

     iteration #  3     ecut=    80.00 Ry     beta=0.70
     Davidson diagonalization with overlap
     c_bands:  1 eigenvalues not converged
     ethr =  1.00E-02,  avg # of iterations = 17.8

     negative rho (up, down):  3.368E+01 0.000E+00

     total cpu time spent up to now is     4181.6 secs

     total energy              =  -12330.37718978 Ry
     Harris-Foulkes estimate   =  -13602.84379324 Ry
     estimated scf accuracy    <    7184.83327826 Ry

     iteration #  4     ecut=    80.00 Ry     beta=0.70
     Davidson diagonalization with overlap
     ethr =  1.00E-02,  avg # of iterations =  4.8

     negative rho (up, down):  2.317E+01 0.000E+00

     total cpu time spent up to now is     4670.2 secs

     total energy              =  -12868.48416272 Ry
     Harris-Foulkes estimate   =  -13111.06494494 Ry
     estimated scf accuracy    <     894.35270030 Ry

     iteration #  5     ecut=    80.00 Ry     beta=0.70
     Davidson diagonalization with overlap
     ethr =  1.00E-02,  avg # of iterations =  2.8

     negative rho (up, down):  1.976E+01 0.000E+00

     total cpu time spent up to now is     4935.4 secs

     total energy              =  -12885.12427302 Ry
     Harris-Foulkes estimate   =  -12946.63632229 Ry
     estimated scf accuracy    <    1531.26938245 Ry

     iteration #  6     ecut=    80.00 Ry     beta=0.70
     Davidson diagonalization with overlap
     ethr =  1.00E-02,  avg # of iterations =  1.7

     negative rho (up, down):  1.375E+01 0.000E+00

     total cpu time spent up to now is     5109.8 secs

     total energy              =  -12847.07924091 Ry
     Harris-Foulkes estimate   =  -12915.43827907 Ry
     estimated scf accuracy    <     641.99883214 Ry

     iteration #  7     ecut=    80.00 Ry     beta=0.70
     Davidson diagonalization with overlap
     ethr =  1.00E-02,  avg # of iterations =  2.0

     negative rho (up, down):  1.034E+01 0.000E+00

     total cpu time spent up to now is     5291.8 secs

     total energy              =  -12839.36099604 Ry
     Harris-Foulkes estimate   =  -12870.36139751 Ry
     estimated scf accuracy    <     598.77518198 Ry

     iteration #  8     ecut=    80.00 Ry     beta=0.70
     Davidson diagonalization with overlap
     ethr =  1.00E-02,  avg # of iterations =  1.0

     negative rho (up, down):  7.243E+00 0.000E+00

     total cpu time spent up to now is     5459.1 secs

     total energy              =  -12806.42836531 Ry
     Harris-Foulkes estimate   =  -12851.10682996 Ry
     estimated scf accuracy    <     691.63006090 Ry

     iteration #  9     ecut=    80.00 Ry     beta=0.70
     Davidson diagonalization with overlap
     ethr =  1.00E-02,  avg # of iterations =  2.3

     negative rho (up, down):  6.487E+00 0.000E+00

     total cpu time spent up to now is     5641.8 secs

     total energy              =  -12803.92856840 Ry
     Harris-Foulkes estimate   =  -12820.99913588 Ry
     estimated scf accuracy    <     373.93608916 Ry

     iteration # 10     ecut=    80.00 Ry     beta=0.70
     Davidson diagonalization with overlap
     ethr =  1.00E-02,  avg # of iterations =  1.2

     negative rho (up, down):  2.726E+00 0.000E+00

     total cpu time spent up to now is     5812.1 secs

     total energy              =  -12771.58450826 Ry
     Harris-Foulkes estimate   =  -12810.25612745 Ry
     estimated scf accuracy    <     218.43388873 Ry

     iteration # 11     ecut=    80.00 Ry     beta=0.70
     Davidson diagonalization with overlap
     ethr =  1.00E-02,  avg # of iterations =  2.5

     negative rho (up, down):  6.453E-01 0.000E+00

     total cpu time spent up to now is     6000.6 secs

     total energy              =  -12745.59792540 Ry
     Harris-Foulkes estimate   =  -12784.23996389 Ry
     estimated scf accuracy    <     393.64394452 Ry

     iteration # 12     ecut=    80.00 Ry     beta=0.70
     Davidson diagonalization with overlap
     ethr =  1.00E-02,  avg # of iterations =  2.5

     negative rho (up, down):  5.565E-01 0.000E+00

     total cpu time spent up to now is     6187.3 secs

     total energy              =  -12740.08142886 Ry
     Harris-Foulkes estimate   =  -12771.27480666 Ry
     estimated scf accuracy    <     572.42100935 Ry

     iteration # 13     ecut=    80.00 Ry     beta=0.70
     Davidson diagonalization with overlap
     ethr =  1.00E-02,  avg # of iterations =  1.5

     negative rho (up, down):  1.818E+00 0.000E+00

     total cpu time spent up to now is     6360.7 secs

     total energy              =  -12741.56075167 Ry
     Harris-Foulkes estimate   =  -12758.56149508 Ry
     estimated scf accuracy    <      72.69884679 Ry

     iteration # 14     ecut=    80.00 Ry     beta=0.70
     Davidson diagonalization with overlap
     ethr =  5.58E-03,  avg # of iterations =  2.0

     negative rho (up, down):  3.387E+00 0.000E+00

     total cpu time spent up to now is     6541.1 secs

     total energy              =  -12736.29896792 Ry
     Harris-Foulkes estimate   =  -12745.74726436 Ry
     estimated scf accuracy    <      77.09844449 Ry

     iteration # 15     ecut=    80.00 Ry     beta=0.70
     Davidson diagonalization with overlap
     ethr =  5.58E-03,  avg # of iterations =  1.2

     negative rho (up, down):  2.183E+00 0.000E+00

     total cpu time spent up to now is     6711.8 secs

     total energy              =  -12735.31498147 Ry
     Harris-Foulkes estimate   =  -12739.39230678 Ry
     estimated scf accuracy    <      35.10149509 Ry

     iteration # 16     ecut=    80.00 Ry     beta=0.70
     Davidson diagonalization with overlap
     ethr =  2.69E-03,  avg # of iterations =  1.2

     negative rho (up, down):  4.719E+00 0.000E+00

     total cpu time spent up to now is     6881.3 secs

     total energy              =  -12732.85679094 Ry
     Harris-Foulkes estimate   =  -12736.74245260 Ry
     estimated scf accuracy    <      31.85977383 Ry

     iteration # 17     ecut=    80.00 Ry     beta=0.70
     Davidson diagonalization with overlap
     ethr =  2.44E-03,  avg # of iterations =  2.2

     negative rho (up, down):  4.017E+00 0.000E+00

     total cpu time spent up to now is     7061.6 secs

     total energy              =  -12732.04779825 Ry
     Harris-Foulkes estimate   =  -12733.65975275 Ry
     estimated scf accuracy    <      14.62200806 Ry

     iteration # 18     ecut=    80.00 Ry     beta=0.70
     Davidson diagonalization with overlap
     ethr =  1.12E-03,  avg # of iterations =  7.5

     negative rho (up, down):  2.364E+00 0.000E+00

     total cpu time spent up to now is     7314.3 secs

     total energy              =  -12730.64505638 Ry
     Harris-Foulkes estimate   =  -12732.25538535 Ry
     estimated scf accuracy    <      10.02986109 Ry

     iteration # 19     ecut=    80.00 Ry     beta=0.70
     Davidson diagonalization with overlap
     ethr =  7.69E-04,  avg # of iterations =  1.3

     negative rho (up, down):  1.473E+00 0.000E+00

     total cpu time spent up to now is     7486.6 secs

     total energy              =  -12728.90305601 Ry
     Harris-Foulkes estimate   =  -12730.87197138 Ry
     estimated scf accuracy    <       7.84869482 Ry

     iteration # 20     ecut=    80.00 Ry     beta=0.70
     Davidson diagonalization with overlap
     ethr =  6.02E-04,  avg # of iterations =  3.2

     negative rho (up, down):  1.718E+00 0.000E+00

     total cpu time spent up to now is     7678.9 secs

     total energy              =  -12729.24381568 Ry
     Harris-Foulkes estimate   =  -12729.31078514 Ry
     estimated scf accuracy    <      21.58503034 Ry

     iteration # 21     ecut=    80.00 Ry     beta=0.70
     Davidson diagonalization with overlap
     ethr =  6.02E-04,  avg # of iterations =  1.2

     negative rho (up, down):  2.137E+00 0.000E+00

     total cpu time spent up to now is     7849.0 secs

     total energy              =  -12729.62765623 Ry
     Harris-Foulkes estimate   =  -12729.59012369 Ry
     estimated scf accuracy    <       8.73328747 Ry

     iteration # 22     ecut=    80.00 Ry     beta=0.70
     Davidson diagonalization with overlap
     ethr =  6.02E-04,  avg # of iterations =  1.0

     negative rho (up, down):  4.141E-01 0.000E+00

     total cpu time spent up to now is     8017.5 secs

     total energy              =  -12728.11710476 Ry
     Harris-Foulkes estimate   =  -12729.88350627 Ry
     estimated scf accuracy    <       6.75875872 Ry

     iteration # 23     ecut=    80.00 Ry     beta=0.70
     Davidson diagonalization with overlap
     ethr =  5.18E-04,  avg # of iterations =  6.8

     negative rho (up, down):  3.262E-02 0.000E+00

     total cpu time spent up to now is     8255.7 secs

     total energy              =  -12726.68996382 Ry
     Harris-Foulkes estimate   =  -12728.47374942 Ry
     estimated scf accuracy    <      16.07815446 Ry

     iteration # 24     ecut=    80.00 Ry     beta=0.70
     Davidson diagonalization with overlap
     ethr =  5.18E-04,  avg # of iterations =  3.5

     negative rho (up, down):  3.925E-01 0.000E+00

     total cpu time spent up to now is     8452.2 secs

     total energy              =  -12725.95535629 Ry
     Harris-Foulkes estimate   =  -12727.24398880 Ry
     estimated scf accuracy    <      49.39378442 Ry

     iteration # 25     ecut=    80.00 Ry     beta=0.70
     Davidson diagonalization with overlap
     ethr =  5.18E-04,  avg # of iterations =  2.2

     negative rho (up, down):  3.020E-01 0.000E+00

     total cpu time spent up to now is     8634.0 secs

     total energy              =  -12725.60822968 Ry
     Harris-Foulkes estimate   =  -12726.47048825 Ry
     estimated scf accuracy    <      18.85200946 Ry

     iteration # 26     ecut=    80.00 Ry     beta=0.70
     Davidson diagonalization with overlap
     ethr =  5.18E-04,  avg # of iterations =  1.2

     negative rho (up, down):  6.183E-01 0.000E+00

     total cpu time spent up to now is     8804.5 secs

     total energy              =  -12725.40924764 Ry
     Harris-Foulkes estimate   =  -12726.02629863 Ry
     estimated scf accuracy    <       4.99361165 Ry

     iteration # 27     ecut=    80.00 Ry     beta=0.70
     Davidson diagonalization with overlap
     ethr =  3.83E-04,  avg # of iterations =  8.2

     negative rho (up, down):  7.422E-01 0.000E+00

     total cpu time spent up to now is     9067.6 secs

     total energy              =  -12725.44334766 Ry
     Harris-Foulkes estimate   =  -12725.65706179 Ry
     estimated scf accuracy    <       1.11905668 Ry

     iteration # 28     ecut=    80.00 Ry     beta=0.70
     Davidson diagonalization with overlap
     ethr =  8.58E-05,  avg # of iterations =  9.3

     negative rho (up, down):  6.047E-01 0.000E+00

     total cpu time spent up to now is     9365.1 secs

     total energy              =  -12725.42588934 Ry
     Harris-Foulkes estimate   =  -12725.52495290 Ry
     estimated scf accuracy    <       0.56790859 Ry

     iteration # 29     ecut=    80.00 Ry     beta=0.70
     Davidson diagonalization with overlap
     ethr =  4.36E-05,  avg # of iterations =  7.7

     negative rho (up, down):  3.613E-01 0.000E+00

     total cpu time spent up to now is     9625.1 secs

     total energy              =  -12725.43361416 Ry
     Harris-Foulkes estimate   =  -12725.48425406 Ry
     estimated scf accuracy    <       0.28294436 Ry

     iteration # 30     ecut=    80.00 Ry     beta=0.70
     Davidson diagonalization with overlap
     c_bands:  1 eigenvalues not converged
     ethr =  2.17E-05,  avg # of iterations = 10.3

     negative rho (up, down):  1.690E-01 0.000E+00

     total cpu time spent up to now is     9911.0 secs

     total energy              =  -12725.44847183 Ry
     Harris-Foulkes estimate   =  -12725.45870302 Ry
     estimated scf accuracy    <       0.07720638 Ry

     iteration # 31     ecut=    80.00 Ry     beta=0.70
     Davidson diagonalization with overlap
     ethr =  5.92E-06,  avg # of iterations = 11.2

     negative rho (up, down):  5.104E-02 0.000E+00

     total cpu time spent up to now is    10228.5 secs

     total energy              =  -12725.44969121 Ry
     Harris-Foulkes estimate   =  -12725.45592999 Ry
     estimated scf accuracy    <       0.03269918 Ry

     iteration # 32     ecut=    80.00 Ry     beta=0.70
     Davidson diagonalization with overlap
     c_bands:  1 eigenvalues not converged
     c_bands:  1 eigenvalues not converged
     c_bands:  1 eigenvalues not converged
     ethr =  2.51E-06,  avg # of iterations = 17.2

     negative rho (up, down):  3.106E-02 0.000E+00

     total cpu time spent up to now is    10638.0 secs

     total energy              =  -12725.45292485 Ry
     Harris-Foulkes estimate   =  -12725.45278035 Ry
     estimated scf accuracy    <       0.00983579 Ry

     iteration # 33     ecut=    80.00 Ry     beta=0.70
     Davidson diagonalization with overlap
     ethr =  7.54E-07,  avg # of iterations = 10.8

     negative rho (up, down):  2.371E-02 0.000E+00

     total cpu time spent up to now is    10963.3 secs

     total energy              =  -12725.45262689 Ry
     Harris-Foulkes estimate   =  -12725.45332478 Ry
     estimated scf accuracy    <       0.00320111 Ry

     iteration # 34     ecut=    80.00 Ry     beta=0.70
     Davidson diagonalization with overlap
     ethr =  2.45E-07,  avg # of iterations =  6.5

     negative rho (up, down):  1.030E-02 0.000E+00

     total cpu time spent up to now is    11216.7 secs

     total energy              =  -12725.45274995 Ry
     Harris-Foulkes estimate   =  -12725.45290501 Ry
     estimated scf accuracy    <       0.00162913 Ry

     iteration # 35     ecut=    80.00 Ry     beta=0.70
     Davidson diagonalization with overlap
     ethr =  1.25E-07,  avg # of iterations =  7.0

     negative rho (up, down):  7.973E-03 0.000E+00

     total cpu time spent up to now is    11467.9 secs

     total energy              =  -12725.45299346 Ry
     Harris-Foulkes estimate   =  -12725.45286179 Ry
     estimated scf accuracy    <       0.00036507 Ry

     iteration # 36     ecut=    80.00 Ry     beta=0.70
     Davidson diagonalization with overlap
     c_bands:  1 eigenvalues not converged
     ethr =  2.80E-08,  avg # of iterations = 13.0

     negative rho (up, down):  9.046E-03 0.000E+00

     total cpu time spent up to now is    11815.1 secs

     total energy              =  -12725.45303792 Ry
     Harris-Foulkes estimate   =  -12725.45302535 Ry
     estimated scf accuracy    <       0.00011849 Ry

     iteration # 37     ecut=    80.00 Ry     beta=0.70
     Davidson diagonalization with overlap
     ethr =  9.09E-09,  avg # of iterations =  5.3

     negative rho (up, down):  4.645E-03 0.000E+00

     total cpu time spent up to now is    12047.6 secs

     total energy              =  -12725.45296317 Ry
     Harris-Foulkes estimate   =  -12725.45304883 Ry
     estimated scf accuracy    <       0.00005251 Ry

     iteration # 38     ecut=    80.00 Ry     beta=0.70
     Davidson diagonalization with overlap
     c_bands:  3 eigenvalues not converged
     ethr =  4.03E-09,  avg # of iterations = 11.2

     negative rho (up, down):  4.506E-03 0.000E+00

     total cpu time spent up to now is    12357.7 secs

     total energy              =  -12725.45296278 Ry
     Harris-Foulkes estimate   =  -12725.45296791 Ry
     estimated scf accuracy    <       0.00002447 Ry

     iteration # 39     ecut=    80.00 Ry     beta=0.70
     Davidson diagonalization with overlap
     ethr =  1.88E-09,  avg # of iterations =  4.7

     negative rho (up, down):  2.049E-03 0.000E+00

     total cpu time spent up to now is    12579.1 secs

     total energy              =  -12725.45294214 Ry
     Harris-Foulkes estimate   =  -12725.45296513 Ry
     estimated scf accuracy    <       0.00001340 Ry

     iteration # 40     ecut=    80.00 Ry     beta=0.70
     Davidson diagonalization with overlap
     c_bands:  1 eigenvalues not converged
     ethr =  1.03E-09,  avg # of iterations = 11.5

     negative rho (up, down):  1.578E-03 0.000E+00

     total cpu time spent up to now is    12887.4 secs

     total energy              =  -12725.45294293 Ry
     Harris-Foulkes estimate   =  -12725.45294323 Ry
     estimated scf accuracy    <       0.00000359 Ry

     iteration # 41     ecut=    80.00 Ry     beta=0.70
     Davidson diagonalization with overlap
     ethr =  2.76E-10,  avg # of iterations =  3.3

     negative rho (up, down):  1.577E-03 0.000E+00

     total cpu time spent up to now is    13088.0 secs

     total energy              =  -12725.45294349 Ry
     Harris-Foulkes estimate   =  -12725.45294315 Ry
     estimated scf accuracy    <       0.00000106 Ry

     iteration # 42     ecut=    80.00 Ry     beta=0.70
     Davidson diagonalization with overlap
     ethr =  8.10E-11,  avg # of iterations =  2.2

     negative rho (up, down):  1.640E-03 0.000E+00

     total cpu time spent up to now is    13278.3 secs

     total energy              =  -12725.45294387 Ry
     Harris-Foulkes estimate   =  -12725.45294358 Ry
     estimated scf accuracy    <       0.00000060 Ry

     iteration # 43     ecut=    80.00 Ry     beta=0.70
     Davidson diagonalization with overlap
     ethr =  4.58E-11,  avg # of iterations =  2.7

     negative rho (up, down):  1.768E-03 0.000E+00

     total cpu time spent up to now is    13472.6 secs

     total energy              =  -12725.45294376 Ry
     Harris-Foulkes estimate   =  -12725.45294391 Ry
     estimated scf accuracy    <       0.00000025 Ry

     iteration # 44     ecut=    80.00 Ry     beta=0.70
     Davidson diagonalization with overlap
     ethr =  1.90E-11,  avg # of iterations =  3.0

     negative rho (up, down):  1.789E-03 0.000E+00

     total cpu time spent up to now is    13676.6 secs

     total energy              =  -12725.45294375 Ry
     Harris-Foulkes estimate   =  -12725.45294379 Ry
     estimated scf accuracy    <       0.00000011 Ry

     iteration # 45     ecut=    80.00 Ry     beta=0.70
     Davidson diagonalization with overlap
     ethr =  8.63E-12,  avg # of iterations =  1.3

     negative rho (up, down):  1.800E-03 0.000E+00

     total cpu time spent up to now is    13856.8 secs

     total energy              =  -12725.45294373 Ry
     Harris-Foulkes estimate   =  -12725.45294376 Ry
     estimated scf accuracy    <       0.00000002 Ry

     iteration # 46     ecut=    80.00 Ry     beta=0.70
     Davidson diagonalization with overlap
     ethr =  1.60E-12,  avg # of iterations =  2.7

     negative rho (up, down):  1.840E-03 0.000E+00

     total cpu time spent up to now is    14073.3 secs

     End of self-consistent calculation

          k = 0.0000 0.0000 0.0000 (256287 PWs)   bands (ev):

   -19.6497 -15.7813 -15.6382 -15.6252 -15.3098 -14.6612 -14.4064 -13.8003
   -13.7467 -13.6721 -13.6504 -13.3762 -12.9923 -12.9037 -12.6791 -12.6670
   -12.5774 -12.4230 -11.4578 -11.1633 -11.0578 -11.0147 -10.7300 -10.2576
   -10.1504  -9.4772  -9.1459  -9.1270  -8.7683  -8.5832  -8.3538  -8.1919
    -8.1498  -7.9403  -7.4862  -7.4542  -7.3425  -7.1191  -7.0925  -7.0469
    -7.0254  -6.7816  -6.3194  -6.0576  -5.9779  -5.7142  -5.5885  -5.5487
    -5.4422  -5.4267  -5.3829  -5.3135  -5.0854  -5.0522  -4.8612  -4.4612
    -4.4570  -4.3175  -4.1792  -4.0551  -4.0007  -3.8895  -3.8845  -3.8422
    -3.5975  -3.5544  -3.5494  -3.4015  -3.2757  -3.2003  -3.0997  -3.0563
    -3.0520  -2.9779  -2.9777  -2.9220  -2.8455  -2.7868  -2.6082  -2.6031
    -2.5857  -2.5827  -2.5822  -2.5764  -2.5750  -2.5303  -2.3828  -2.3380
    -2.2996  -2.2653  -2.2473  -2.2134  -2.2049  -2.1697  -2.0973  -2.0597
    -1.9478  -1.8801  -1.8768  -1.8717  -1.8453  -1.7707  -1.7701  -1.7364
    -1.7341  -1.7316  -1.7310  -1.6672  -1.6071  -1.6032  -1.5994  -1.5986
    -1.5882  -1.5640  -1.5554  -1.5063  -1.4345  -1.4235  -1.3576  -1.3562
    -1.3154  -1.3147  -1.3113  -1.3081  -1.3038  -1.2764  -1.2555  -1.2416
    -1.2367  -1.2123  -1.1995  -1.1973  -1.1648  -1.1496  -1.1456  -1.1418
    -1.1353  -1.1312  -1.1236  -1.1053  -1.0960  -1.0933  -1.0448  -1.0444
    -0.9962  -0.9565  -0.9323  -0.8940  -0.8923  -0.8891  -0.8781  -0.8753
    -0.8473  -0.8425  -0.8368  -0.8279  -0.7963  -0.7886  -0.7737  -0.7693
    -0.7471  -0.7452  -0.7197  -0.6715  -0.6454  -0.6396  -0.6329  -0.6217
    -0.6200  -0.6158  -0.6097  -0.6066  -0.6036  -0.6013  -0.5979  -0.5969
    -0.5955  -0.5922  -0.5916  -0.5870  -0.5797  -0.5232  -0.5211  -0.5194
    -0.5176  -0.5066  -0.4990  -0.4949  -0.4578  -0.4535  -0.4471  -0.4390
    -0.4375  -0.4351  -0.4349  -0.4330  -0.4329  -0.4313  -0.4291  -0.4276
    -0.4271  -0.4261  -0.4214  -0.4204  -0.4202  -0.3942  -0.3845  -0.3478
    -0.3165  -0.2906  -0.2749  -0.2702  -0.2610  -0.2580  -0.2472  -0.2375
    -0.2221  -0.2220  -0.2207  -0.2042  -0.1978  -0.1927  -0.1875  -0.1797
    -0.1759  -0.1720  -0.1496  -0.1452  -0.1442  -0.1433  -0.1374  -0.1359
    -0.1328  -0.1185  -0.1024  -0.0757  -0.0735  -0.0323  -0.0275  -0.0184
    -0.0159  -0.0068  -0.0031   0.0058   0.0066   0.0156   0.0163   0.0164
     0.0166   0.0184   0.0203   0.0231   0.0341   0.0354   0.0396   0.0426
     0.0560   0.0659   0.0674   0.1189   0.1246   0.1254   0.1299   0.1317
     0.1353   0.1523   0.1532   0.1557   0.1566   0.1580   0.1670   0.1729
     0.1769   0.1790   0.1822   0.1926   0.1980   0.1981   0.2002   0.2027
     0.2101   0.2109   0.2187   0.2220   0.2281   0.2286   0.2358   0.2455
     0.2511   0.2563   0.2872   0.2937   0.3007   0.3038   0.3202   0.3210
     0.3317   0.3498   0.3583   0.3590   0.3597   0.3616   0.3632   0.3678
     0.3681   0.3945   0.4034   0.4067   0.4146   0.4175   0.4210   0.4292
     0.4395   0.4432   0.4444   0.4463   0.4491   0.4641   0.4655   0.4666
     0.4679   0.4709   0.4721   0.4794   0.4826   0.4845   0.4855   0.4871
     0.4954   0.5034   0.5055   0.5058   0.5152   0.5189   0.5255   0.5507
     0.5592   0.5635   0.5771   0.5968   0.5988   0.6054   0.6404   0.6419
     0.6436   0.6477   0.6526   0.6638   0.6653   0.6658   0.6681   0.6824
     0.6846   0.6977   0.7000   0.7152   0.7278   0.7328   0.7487   0.7508
     0.7594   0.7631   0.7714   0.7830   0.7851   0.7879   0.7928   0.8019
     0.8062   0.8139   0.8223   0.8305   0.8366   0.8413   0.8462   0.8535
     0.8554   0.8564   0.8602   0.8790   0.8895   0.9086   0.9124   0.9178
     0.9205   0.9219   0.9272   0.9375   0.9391   0.9444   0.9510   0.9519
     0.9551   0.9562   0.9606   0.9620   0.9634   0.9655   0.9669   0.9682
     0.9710   0.9715   0.9729   0.9791   1.0137   1.0176   1.0216   1.0226
     1.0240   1.0268   1.0520   1.0642   1.0652   1.0661   1.0692   1.0724
     1.0756   1.0804   1.0838   1.0907   1.0912   1.0964   1.1003   1.1036
     1.1071   1.1101   1.1136   1.1162   1.1206   1.1226   1.1244   1.1316
     1.1360   1.1457   1.1529   1.1630   1.1646   1.1655   1.1656   1.1723
     1.1739   1.1779   1.1878   1.1898   1.2149   1.2188   1.2246   1.2255
     1.2318   1.2336   1.2439   1.2502   1.2527   1.2650   1.2720   1.2767
     1.2837   1.2956   1.2979   1.3002   1.3014   1.3095   1.3113   1.3194
     1.3218   1.3259   1.3292   1.3313   1.3329   1.3396   1.3428   1.3517
     1.3554   1.3619   1.3628   1.3691   1.3750   1.3875   1.3928   1.3970
     1.3989   1.4051   1.4083   1.4176   1.4196   1.4242   1.4262   1.4336
     1.4381   1.4401   1.4430   1.4456   1.4509   1.4536   1.4551   1.4582
     1.4649   1.4700   1.4722   1.4800   1.4826   1.4876   1.4913   1.4928
     1.5002   1.5109   1.5139   1.5163   1.5233   1.5268   1.5301   1.5321
     1.5364   1.5378   1.5396   1.5402   1.5486   1.5520   1.5536   1.5551
     1.5673   1.5769   1.5788   1.5840   1.5926   1.5998   1.6085   1.6157
     1.6170   1.6258   1.6275   1.6323   1.6332   1.6346   1.6387   1.6537
     1.6552   1.6579   1.6597   1.6614   1.6670   1.6760   1.6810   1.6841
     1.6902   1.6904   1.6966   1.6974   1.7023   1.7043   1.7074   1.7153
     1.7199   1.7226   1.7238   1.7280   1.7299   1.7304   1.7314   1.7350
     1.7361   1.7402   1.7420   1.7474   1.7500   1.7523   1.7617   1.7650
     1.7682   1.7708   1.7767   1.7803   1.7840   1.8048   1.8077   1.8078
     1.8135   1.8230   1.8280   1.8287   1.8309   1.8376   1.8391   1.8404
     1.8442   1.8462   1.8469   1.8472   1.8478   1.8546   1.8556   1.8623
     1.8641   1.8671   1.8750   1.8756   1.8809   1.8852   1.8880   1.8906
     1.8911   1.9052   1.9056   1.9131   1.9136   1.9162   1.9394   1.9589
     1.9639   1.9759   1.9785   1.9849   1.9937   1.9981   2.0021   2.0206
     2.0277   2.0418   2.0424   2.0489   2.0498   2.0608   2.0630   2.0648
     2.0707   2.3153   2.3746   2.4680   2.4910   2.5002   2.5573   2.5746
     2.5946   2.6082   2.6183   2.6248   2.6252   2.6303   2.6312   2.7182
     2.7916   2.8155   2.8443   2.8466   2.8494   2.8654   2.8704   2.9856
     3.0705   3.1002   3.1059   3.2520   3.3161   3.4268   3.4893   3.5781
     3.8451   3.8925   4.1515   4.1743   4.2065   4.2128   4.2179   4.2331
     4.2431   4.2935   4.3680   4.3734   4.3741   4.3862   4.4083   4.4122
     4.4141   4.4165   4.5067   4.5595   4.5910   4.5916   4.7237   5.0063
     5.0251   5.2050   5.2590   5.3382   5.3809   5.5871   5.6385   5.7035
     5.7412   5.8971   5.9539   6.0481   6.0933   6.2000   6.2793   6.3320
     6.5020   6.6287   6.6500   6.7655   6.7693   6.7757   6.8140   6.8778
     6.9084   7.0103   7.0457   7.0571   7.0811   7.1325   7.1935   7.2058
     7.2523   7.2754   7.2999   7.3862   7.4088   7.4284   7.4306   7.4814
     7.7075   7.7199   7.7262   7.7606   7.8933   7.9089   8.0085   8.0553
     8.0555   8.0655   8.0729   8.1673   8.2574   8.3328   8.4292   8.4671
     8.4907   8.5721   8.5746   8.5959   8.6361   8.7034   8.7173   8.7429
     8.7585   8.8400   8.9132   8.9257   8.9380   8.9458   8.9726   9.0389
     9.0595   9.0961   9.1198   9.1722   9.1950   9.2074   9.3192   9.3561
     9.3674   9.3982   9.4069   9.4100   9.4222   9.4383   9.4495   9.5075
     9.6253   9.7514   9.8095   9.8429   9.9214   9.9679   9.9728  10.0131
    10.0218  10.0887  10.1142  10.1481  10.2469  10.2692

          k = 0.0000-0.2165 0.0000 (256176 PWs)   bands (ev):

   -19.6497 -15.7912 -15.6547 -15.6021 -15.2407 -14.9041 -13.9620 -13.8766
   -13.8196 -13.7684 -13.4570 -13.4292 -13.2487 -13.2388 -12.9013 -12.2167
   -12.0858 -11.9150 -11.8345 -11.6875 -11.6141 -10.7820 -10.3032 -10.0905
   -10.0367  -9.6122  -9.3007  -9.0938  -8.7695  -8.5303  -8.4695  -8.2425
    -7.9594  -7.8926  -7.7846  -7.6892  -7.5893  -7.0988  -6.8965  -6.5959
    -6.4906  -6.4237  -6.4084  -6.3806  -6.3440  -6.1851  -5.7321  -5.4830
    -5.4721  -5.4497  -5.2709  -5.1182  -4.9313  -4.6483  -4.5905  -4.4601
    -4.4068  -4.4032  -4.3696  -4.3103  -4.2034  -4.1241  -4.0883  -3.9409
    -3.8998  -3.6218  -3.3842  -3.3381  -3.3188  -3.0556  -2.9589  -2.8769
    -2.8751  -2.8744  -2.8738  -2.7632  -2.7161  -2.7003  -2.6683  -2.6191
    -2.6052  -2.6015  -2.5686  -2.5578  -2.3855  -2.3294  -2.3270  -2.3020
    -2.2892  -2.2424  -2.2122  -2.1598  -2.1582  -2.1567  -2.1546  -2.1195
    -2.0410  -2.0402  -2.0350  -2.0306  -1.8802  -1.8751  -1.8680  -1.7989
    -1.7887  -1.7163  -1.7114  -1.7070  -1.7033  -1.6992  -1.6435  -1.6116
    -1.5687  -1.5653  -1.5401  -1.5392  -1.4748  -1.4648  -1.3902  -1.3599
    -1.3497  -1.3308  -1.3299  -1.3261  -1.3196  -1.3028  -1.3012  -1.2675
    -1.2559  -1.2535  -1.2431  -1.2291  -1.2241  -1.2152  -1.1226  -1.0666
    -1.0623  -1.0620  -1.0505  -1.0056  -0.9615  -0.9496  -0.9486  -0.9458
    -0.9262  -0.8944  -0.8922  -0.8867  -0.8778  -0.8640  -0.8590  -0.8563
    -0.8549  -0.8509  -0.8506  -0.8486  -0.8159  -0.8128  -0.8076  -0.8067
    -0.8056  -0.8031  -0.7984  -0.7786  -0.7670  -0.7631  -0.7441  -0.6925
    -0.6718  -0.6684  -0.6621  -0.6510  -0.6326  -0.6296  -0.6260  -0.6247
    -0.5706  -0.5701  -0.5650  -0.5638  -0.5611  -0.5598  -0.5529  -0.5118
    -0.5097  -0.5021  -0.5005  -0.4963  -0.4918  -0.4890  -0.4878  -0.4833
    -0.4774  -0.4374  -0.4331  -0.4313  -0.4269  -0.4212  -0.4069  -0.3996
    -0.3972  -0.3819  -0.3736  -0.3594  -0.3575  -0.3380  -0.3372  -0.3365
    -0.3319  -0.2405  -0.2343  -0.2339  -0.2335  -0.2183  -0.2125  -0.2123
    -0.2059  -0.2016  -0.1852  -0.1848  -0.1804  -0.1802  -0.1786  -0.1554
    -0.1464  -0.1453  -0.1267  -0.1245  -0.1238  -0.1220  -0.1155  -0.1128
    -0.0861  -0.0812  -0.0804  -0.0715  -0.0681  -0.0645  -0.0645  -0.0355
    -0.0319  -0.0281  -0.0233  -0.0208  -0.0201  -0.0183  -0.0153   0.0146
     0.0439   0.0537   0.0587   0.0589   0.0607   0.0647   0.0834   0.0961
     0.1089   0.1145   0.1151   0.1182   0.1199   0.1300   0.1318   0.1364
     0.1374   0.1391   0.1529   0.1567   0.1697   0.1709   0.1755   0.1784
     0.1873   0.1902   0.1912   0.2010   0.2016   0.2021   0.2138   0.2154
     0.2189   0.2194   0.2302   0.2504   0.2537   0.2703   0.2708   0.2753
     0.2761   0.2847   0.2855   0.2908   0.2945   0.2952   0.2979   0.3249
     0.3319   0.3344   0.3387   0.3435   0.3444   0.3475   0.3511   0.3515
     0.3791   0.3863   0.3887   0.4121   0.4125   0.4136   0.4194   0.4213
     0.4260   0.4272   0.4316   0.4327   0.4336   0.4360   0.4472   0.4477
     0.4572   0.4684   0.4706   0.4906   0.4947   0.4952   0.5004   0.5052
     0.5140   0.5197   0.5253   0.5269   0.5303   0.5349   0.5482   0.5485
     0.5499   0.5563   0.5672   0.5887   0.5922   0.5960   0.6035   0.6054
     0.6062   0.6120   0.6195   0.6227   0.6266   0.6448   0.6531   0.6657
     0.6746   0.6754   0.6840   0.7064   0.7183   0.7211   0.7220   0.7600
     0.7699   0.7803   0.7870   0.7939   0.8141   0.8166   0.8261   0.8315
     0.8349   0.8378   0.8450   0.8511   0.8611   0.8644   0.8676   0.8736
     0.8819   0.8842   0.8870   0.8917   0.8932   0.8952   0.8978   0.9006
     0.9069   0.9138   0.9168   0.9181   0.9263   0.9316   0.9396   0.9416
     0.9426   0.9472   0.9535   0.9536   0.9551   0.9585   0.9602   0.9635
     0.9738   0.9748   0.9789   0.9801   0.9846   0.9936   0.9978   1.0008
     1.0045   1.0049   1.0057   1.0064   1.0087   1.0194   1.0246   1.0576
     1.0587   1.0685   1.0755   1.0777   1.0846   1.0876   1.0898   1.0909
     1.0940   1.0947   1.0980   1.0991   1.1026   1.1068   1.1090   1.1276
     1.1369   1.1372   1.1472   1.1489   1.1512   1.1589   1.1597   1.1663
     1.1704   1.1785   1.1804   1.1934   1.1941   1.1990   1.1992   1.2024
     1.2042   1.2399   1.2500   1.2704   1.2773   1.2812   1.2949   1.3028
     1.3076   1.3122   1.3172   1.3206   1.3243   1.3275   1.3301   1.3367
     1.3390   1.3414   1.3428   1.3431   1.3464   1.3512   1.3536   1.3570
     1.3600   1.3673   1.3679   1.3806   1.3817   1.3824   1.3836   1.3838
     1.3907   1.3919   1.3972   1.3981   1.3989   1.4000   1.4035   1.4046
     1.4064   1.4064   1.4075   1.4284   1.4307   1.4327   1.4361   1.4418
     1.4451   1.4459   1.4486   1.4538   1.4572   1.4586   1.4603   1.4605
     1.4623   1.4869   1.4934   1.4946   1.5054   1.5265   1.5416   1.5468
     1.5483   1.5486   1.5511   1.5635   1.5713   1.5877   1.5900   1.5968
     1.5989   1.6021   1.6051   1.6083   1.6100   1.6118   1.6123   1.6195
     1.6210   1.6229   1.6259   1.6269   1.6295   1.6317   1.6348   1.6355
     1.6383   1.6412   1.6420   1.6434   1.6501   1.6527   1.6553   1.6788
     1.6793   1.6809   1.6812   1.6892   1.6955   1.6981   1.6997   1.7003
     1.7060   1.7063   1.7127   1.7239   1.7271   1.7279   1.7295   1.7308
     1.7392   1.7411   1.7512   1.7554   1.7616   1.7730   1.7763   1.7784
     1.7786   1.7912   1.7921   1.7954   1.7964   1.7974   1.8024   1.8060
     1.8132   1.8154   1.8160   1.8289   1.8315   1.8336   1.8449   1.8510
     1.8557   1.8564   1.8611   1.8672   1.8716   1.8734   1.8742   1.8764
     1.8766   1.8923   1.8957   1.8990   1.8993   1.9030   1.9104   1.9146
     1.9191   1.9229   1.9305   1.9318   1.9365   1.9485   1.9525   1.9613
     1.9634   1.9643   1.9845   1.9926   1.9935   2.0643   2.0802   2.0852
     2.1342   2.1531   2.1576   2.1721   2.1735   2.1767   2.1839   2.1903
     2.1929   2.2171   2.2358   2.2367   2.2380   2.2686   2.2712   2.2747
     2.3150   2.5347   2.6027   2.8053   2.8070   2.8082   2.8387   2.9036
     2.9065   2.9361   2.9397   2.9427   2.9783   2.9813   3.0301   3.0824
     3.1141   3.1193   3.1391   3.1541   3.1771   3.3374   3.3394   3.4917
     3.5183   3.5794   3.5794   3.6261   3.7527   3.9242   4.0173   4.0704
     4.1345   4.3912   4.4219   4.4333   4.4349   4.5052   4.5267   4.6628
     4.6792   4.6930   4.7794   4.8130   4.8308   4.8660   4.9534   4.9808
     5.2509   5.4212   5.4458   5.5077   5.6376   5.6681   5.6911   5.7306
     5.7551   5.7848   5.8597   5.8679   5.9303   6.0019   6.0419   6.2605
     6.2830   6.5033   6.5945   6.6376   6.7004   6.7012   6.7609   6.7817
     6.8769   6.9600   7.0343   7.0394   7.0818   7.1419   7.2585   7.3367
     7.3796   7.4318   7.4349   7.4422   7.4753   7.4912   7.5064   7.5296
     7.5504   7.5522   7.5738   7.6139   7.6751   7.7271   7.7375   7.7592
     8.0340   8.0842   8.1617   8.1906   8.2300   8.4181   8.4693   8.5082
     8.5260   8.5746   8.6330   8.6421   8.6484   8.6691   8.7512   8.7978
     8.8248   8.8841   8.9814   9.0144   9.0678   9.0775   9.0872   9.1173
     9.1336   9.1470   9.1787   9.2133   9.2257   9.2591   9.2721   9.3202
     9.3818   9.4149   9.4886   9.6081   9.6673   9.6884   9.7197   9.7479
     9.7816   9.7838   9.7925   9.7948   9.8131   9.8152   9.8813   9.9822
    10.0099  10.0462  10.1344  10.1836  10.1963  10.2415

          k = 0.2500 0.0000 0.0000 (256240 PWs)   bands (ev):

   -19.6447 -15.9763 -15.5806 -15.5159 -14.9878 -14.6267 -14.5936 -14.4181
   -14.1265 -13.8592 -13.5237 -13.0270 -12.8195 -12.6601 -12.5804 -12.5505
   -12.0124 -11.8109 -11.6837 -11.6397 -11.1812 -10.6987 -10.3962 -10.2225
   -10.0795  -9.9338  -9.6890  -9.5055  -9.2553  -8.9603  -8.7020  -8.5504
    -8.2038  -8.0737  -7.5401  -7.3287  -7.2573  -7.1033  -6.9788  -6.8598
    -6.7336  -6.5296  -6.1792  -5.8947  -5.7676  -5.6193  -5.4520  -5.4290
    -5.4121  -5.1514  -5.0874  -4.8805  -4.8709  -4.6915  -4.5645  -4.2964
    -4.1818  -4.1141  -4.0312  -3.9983  -3.9101  -3.8469  -3.8178  -3.7815
    -3.7457  -3.6072  -3.5687  -3.5619  -3.4468  -3.4072  -3.4068  -3.3115
    -3.2375  -3.1647  -3.1286  -3.1000  -3.0623  -3.0352  -3.0198  -2.8634
    -2.8505  -2.7102  -2.6984  -2.6637  -2.6464  -2.6184  -2.5010  -2.4821
    -2.3778  -2.3769  -2.3545  -2.2898  -2.2581  -2.2157  -2.1427  -2.1300
    -2.0208  -1.9772  -1.9007  -1.8951  -1.8715  -1.6799  -1.6781  -1.6646
    -1.6606  -1.6529  -1.5651  -1.5434  -1.5119  -1.4993  -1.4484  -1.4297
    -1.4029  -1.3857  -1.3799  -1.3743  -1.3733  -1.3703  -1.3540  -1.3423
    -1.3336  -1.3300  -1.3182  -1.2830  -1.2544  -1.2242  -1.2171  -1.1861
    -1.1737  -1.1665  -1.1647  -1.1602  -1.1515  -1.1443  -1.1375  -1.1283
    -1.1217  -1.0853  -1.0821  -1.0769  -1.0725  -1.0437  -0.9510  -0.9082
    -0.8976  -0.8904  -0.8707  -0.8630  -0.8297  -0.8258  -0.8230  -0.8169
    -0.8161  -0.7894  -0.7873  -0.7794  -0.7704  -0.7649  -0.7616  -0.7599
    -0.7351  -0.7315  -0.7151  -0.7137  -0.7091  -0.6964  -0.6928  -0.6898
    -0.6771  -0.6745  -0.6739  -0.6502  -0.6237  -0.6205  -0.6185  -0.6117
    -0.6057  -0.6030  -0.5986  -0.5973  -0.5944  -0.5835  -0.5801  -0.5754
    -0.5628  -0.5622  -0.5606  -0.5585  -0.5573  -0.5539  -0.5527  -0.5449
    -0.5362  -0.5284  -0.5229  -0.4914  -0.4874  -0.4758  -0.4409  -0.4319
    -0.4003  -0.3990  -0.3901  -0.3832  -0.3754  -0.3672  -0.3646  -0.3479
    -0.3446  -0.3372  -0.3306  -0.3291  -0.3200  -0.3123  -0.3070  -0.2847
    -0.2099  -0.2026  -0.1944  -0.1873  -0.1623  -0.1608  -0.1551  -0.1521
    -0.1412  -0.1385  -0.1312  -0.1275  -0.1188  -0.1151  -0.1135  -0.1060
    -0.0955  -0.0823  -0.0770  -0.0712  -0.0637  -0.0611  -0.0571  -0.0546
    -0.0416  -0.0405  -0.0393   0.0013   0.0121   0.0173   0.0196   0.0241
     0.0259   0.0267   0.0318   0.0375   0.0408   0.0441   0.0577   0.0626
     0.0848   0.0877   0.0899   0.1092   0.1182   0.1214   0.1250   0.1270
     0.1296   0.1300   0.1461   0.1538   0.1596   0.1660   0.1729   0.1751
     0.1766   0.1956   0.2008   0.2061   0.2168   0.2201   0.2246   0.2279
     0.2300   0.2331   0.2385   0.2481   0.2612   0.2666   0.2770   0.2791
     0.2864   0.2920   0.3056   0.3103   0.3140   0.3220   0.3467   0.3475
     0.3540   0.3580   0.3687   0.3726   0.3797   0.3922   0.4006   0.4073
     0.4086   0.4120   0.4148   0.4159   0.4200   0.4231   0.4250   0.4295
     0.4316   0.4339   0.4388   0.4459   0.4476   0.4565   0.4581   0.4628
     0.4758   0.4767   0.4802   0.4902   0.4921   0.4938   0.5123   0.5198
     0.5263   0.5325   0.5389   0.5403   0.5432   0.5545   0.5577   0.5623
     0.5669   0.5736   0.5747   0.6004   0.6265   0.6449   0.6551   0.6722
     0.6782   0.6808   0.6852   0.6912   0.6978   0.7004   0.7037   0.7047
     0.7053   0.7067   0.7080   0.7091   0.7125   0.7142   0.7199   0.7221
     0.7250   0.7289   0.7453   0.7493   0.7497   0.7526   0.7536   0.7566
     0.7578   0.7786   0.7811   0.7959   0.8167   0.8242   0.8287   0.8423
     0.8511   0.8565   0.8582   0.8599   0.8695   0.8747   0.8803   0.8892
     0.8908   0.8932   0.8975   0.9031   0.9095   0.9103   0.9147   0.9169
     0.9185   0.9284   0.9311   0.9347   0.9441   0.9524   0.9563   0.9599
     0.9663   0.9677   0.9702   0.9774   0.9785   0.9837   0.9969   0.9980
     1.0045   1.0072   1.0112   1.0169   1.0198   1.0278   1.0314   1.0339
     1.0419   1.0434   1.0562   1.0585   1.0650   1.0727   1.0771   1.0789
     1.0817   1.0832   1.0870   1.1117   1.1166   1.1237   1.1293   1.1412
     1.1436   1.1466   1.1577   1.1598   1.1677   1.1712   1.1729   1.1772
     1.1845   1.1913   1.1920   1.1956   1.2023   1.2031   1.2122   1.2296
     1.2317   1.2380   1.2466   1.2504   1.2547   1.2640   1.2673   1.2695
     1.2747   1.2757   1.2895   1.2953   1.3024   1.3039   1.3056   1.3080
     1.3118   1.3130   1.3150   1.3181   1.3231   1.3254   1.3277   1.3405
     1.3541   1.3574   1.3618   1.3784   1.3842   1.3923   1.3961   1.4040
     1.4115   1.4143   1.4151   1.4160   1.4188   1.4256   1.4300   1.4320
     1.4351   1.4365   1.4384   1.4389   1.4425   1.4506   1.4518   1.4543
     1.4603   1.4672   1.4686   1.4772   1.4827   1.4842   1.4858   1.4914
     1.4921   1.4952   1.5000   1.5044   1.5076   1.5090   1.5156   1.5174
     1.5258   1.5281   1.5316   1.5346   1.5358   1.5411   1.5427   1.5469
     1.5481   1.5500   1.5581   1.5623   1.5707   1.5795   1.5882   1.5991
     1.6001   1.6050   1.6089   1.6169   1.6234   1.6289   1.6356   1.6395
     1.6455   1.6576   1.6600   1.6673   1.6702   1.6738   1.6764   1.6797
     1.6833   1.6871   1.6919   1.6955   1.6972   1.7025   1.7068   1.7090
     1.7120   1.7182   1.7207   1.7227   1.7256   1.7274   1.7282   1.7317
     1.7340   1.7367   1.7376   1.7432   1.7513   1.7546   1.7594   1.7695
     1.7722   1.7732   1.7802   1.7868   1.7918   1.7928   1.7980   1.8012
     1.8101   1.8191   1.8299   1.8322   1.8341   1.8397   1.8416   1.8439
     1.8464   1.8500   1.8510   1.8527   1.8552   1.8557   1.8597   1.8614
     1.8642   1.8650   1.8681   1.8725   1.8812   1.8879   1.8901   1.8951
     1.8955   1.9033   1.9040   1.9066   1.9152   1.9167   1.9226   1.9236
     1.9264   1.9351   1.9361   1.9534   1.9616   1.9685   1.9737   2.0025
     2.0374   2.0422   2.0433   2.0503   2.0529   2.0605   2.1373   2.1542
     2.1712   2.1771   2.1883   2.2015   2.2553   2.2728   2.3426   2.4225
     2.4475   2.4495   2.4594   2.4837   2.5154   2.5806   2.6006   2.6836
     2.9480   2.9541   2.9666   2.9697   3.3680   3.3902   3.3915   3.5410
     3.6002   3.6042   3.6100   3.6338   3.6347   3.6526   3.7561   3.8613
     3.8773   3.9354   3.9829   4.0213   4.0794   4.0831   4.1060   4.1500
     4.1633   4.2211   4.2436   4.2868   4.2978   4.4038   4.5202   4.5985
     4.6748   4.6933   4.6994   5.0061   5.0382   5.1782   5.2240   5.2399
     5.3274   5.4559   5.5855   5.6067   5.6103   5.6501   5.7314   5.7751
     5.8299   5.8346   5.8530   5.8725   5.8972   5.9526   5.9680   6.0267
     6.0433   6.0996   6.1250   6.2252   6.3384   6.3898   6.4118   6.4234
     6.4411   6.5118   6.8740   7.0196   7.0367   7.1227   7.1496   7.1512
     7.1788   7.1932   7.2622   7.2720   7.3957   7.4187   7.4241   7.4406
     7.4580   7.4926   7.5342   7.5462   7.5764   7.7024   7.7433   7.7804
     7.8741   7.9210   7.9286   7.9977   8.0385   8.0611   8.1410   8.2128
     8.2293   8.2741   8.3761   8.4242   8.4434   8.4799   8.5104   8.5459
     8.5613   8.6935   8.7026   8.7391   8.7489   8.7533   8.8008   8.8639
     9.0172   9.0354   9.1070   9.1677   9.2550   9.2923   9.4062   9.4199
     9.4365   9.4520   9.4958   9.5221   9.5354   9.5532   9.5555   9.5820
     9.5846   9.5882   9.6127   9.6258   9.6600   9.6731   9.7618   9.8575
     9.8865   9.9957  10.0762  10.1065  10.1169  10.1462

          k = 0.2500-0.2165 0.0000 (256316 PWs)   bands (ev):

   -19.6447 -15.9715 -15.6685 -15.3391 -15.1275 -14.6759 -14.5833 -14.3151
   -14.1318 -13.7190 -13.5738 -13.2874 -12.7557 -12.7411 -12.5725 -12.3077
   -12.2094 -11.7108 -11.6403 -11.4516 -10.9924 -10.8540 -10.7242 -10.6361
   -10.0979  -9.7722  -9.4228  -9.4023  -9.0530  -8.6909  -8.6356  -8.5536
    -8.3408  -8.0380  -8.0085  -7.9217  -7.5339  -7.1281  -6.6583  -6.3950
    -6.3400  -6.1372  -6.0775  -5.9843  -5.9186  -5.8572  -5.6164  -5.4457
    -5.3269  -5.2752  -5.1589  -4.9656  -4.7845  -4.6509  -4.4065  -4.3042
    -4.2427  -4.2387  -4.2006  -4.1491  -3.9284  -3.9153  -3.8954  -3.8321
    -3.7557  -3.6733  -3.6308  -3.5635  -3.5017  -3.2741  -3.2388  -3.2279
    -3.1819  -3.0475  -3.0303  -3.0257  -2.9446  -2.9315  -2.9007  -2.8175
    -2.7541  -2.7489  -2.6851  -2.6321  -2.5993  -2.5627  -2.5548  -2.5153
    -2.4837  -2.4752  -2.3987  -2.2907  -2.2797  -2.2361  -2.1778  -2.1390
    -1.8953  -1.8909  -1.8512  -1.8081  -1.7772  -1.7571  -1.7529  -1.7466
    -1.7402  -1.6820  -1.5952  -1.5904  -1.5880  -1.5834  -1.5615  -1.4952
    -1.4345  -1.4306  -1.3960  -1.3950  -1.3807  -1.3567  -1.3514  -1.2996
    -1.2971  -1.2923  -1.2889  -1.2881  -1.2701  -1.2693  -1.2626  -1.2575
    -1.2512  -1.2491  -1.2478  -1.2462  -1.2392  -1.1651  -1.1611  -1.1140
    -1.0489  -1.0400  -0.9781  -0.9747  -0.9139  -0.9076  -0.8818  -0.8690
    -0.8632  -0.8551  -0.8501  -0.8479  -0.8446  -0.8351  -0.8288  -0.8283
    -0.8166  -0.8094  -0.8089  -0.7971  -0.7923  -0.7912  -0.7758  -0.7682
    -0.7667  -0.7662  -0.7578  -0.7551  -0.7253  -0.7127  -0.7069  -0.7035
    -0.6957  -0.6934  -0.6874  -0.6736  -0.6597  -0.6233  -0.6218  -0.6171
    -0.6161  -0.6042  -0.5924  -0.5869  -0.5810  -0.5760  -0.5722  -0.5588
    -0.5476  -0.5422  -0.5414  -0.5380  -0.5365  -0.5299  -0.5169  -0.5112
    -0.4993  -0.4988  -0.4962  -0.4615  -0.4550  -0.4468  -0.4434  -0.4418
    -0.4369  -0.4201  -0.3825  -0.3776  -0.3564  -0.3525  -0.3472  -0.3464
    -0.3137  -0.3023  -0.2982  -0.2968  -0.2880  -0.2865  -0.2823  -0.2708
    -0.2418  -0.2303  -0.2131  -0.2067  -0.2047  -0.1796  -0.1741  -0.1680
    -0.1507  -0.1465  -0.1445  -0.1431  -0.1318  -0.1062  -0.1010  -0.0987
    -0.0865  -0.0812  -0.0708  -0.0695  -0.0654  -0.0639  -0.0331  -0.0302
    -0.0231  -0.0167  -0.0146  -0.0032   0.0075   0.0179   0.0205   0.0268
     0.0325   0.0365   0.0405   0.0478   0.0515   0.0525   0.0555   0.0566
     0.0642   0.0668   0.0749   0.0778   0.0865   0.0893   0.0945   0.1011
     0.1206   0.1240   0.1344   0.1367   0.1515   0.1545   0.1573   0.1679
     0.1758   0.1803   0.1883   0.2020   0.2051   0.2110   0.2133   0.2278
     0.2438   0.2546   0.2663   0.2721   0.2817   0.2862   0.3009   0.3048
     0.3097   0.3112   0.3153   0.3282   0.3340   0.3430   0.3459   0.3485
     0.3521   0.3655   0.3725   0.3753   0.3799   0.3829   0.3842   0.3868
     0.3978   0.4023   0.4059   0.4108   0.4118   0.4126   0.4158   0.4210
     0.4251   0.4264   0.4334   0.4361   0.4426   0.4501   0.4518   0.4575
     0.4699   0.4767   0.4802   0.4904   0.4955   0.4966   0.5034   0.5129
     0.5408   0.5450   0.5466   0.5537   0.5608   0.5671   0.5717   0.5719
     0.5733   0.5778   0.5855   0.5862   0.5896   0.5907   0.6104   0.6218
     0.6382   0.6662   0.6781   0.6811   0.6923   0.7010   0.7042   0.7058
     0.7082   0.7100   0.7125   0.7155   0.7203   0.7287   0.7339   0.7359
     0.7388   0.7403   0.7424   0.7480   0.7536   0.7574   0.7665   0.7719
     0.7767   0.7884   0.7897   0.7947   0.8055   0.8077   0.8231   0.8302
     0.8345   0.8426   0.8465   0.8663   0.8743   0.8761   0.8808   0.8852
     0.8860   0.8923   0.8937   0.8989   0.9000   0.9050   0.9095   0.9118
     0.9274   0.9377   0.9393   0.9421   0.9482   0.9539   0.9729   0.9854
     0.9865   0.9931   0.9986   1.0056   1.0117   1.0138   1.0175   1.0237
     1.0294   1.0325   1.0399   1.0428   1.0459   1.0554   1.0608   1.0647
     1.0672   1.0714   1.0728   1.0790   1.0809   1.0873   1.0888   1.0910
     1.0928   1.0945   1.0970   1.1062   1.1088   1.1141   1.1181   1.1205
     1.1211   1.1267   1.1309   1.1335   1.1386   1.1404   1.1414   1.1462
     1.1690   1.1747   1.1837   1.1846   1.1916   1.2042   1.2110   1.2251
     1.2272   1.2321   1.2384   1.2403   1.2432   1.2460   1.2486   1.2584
     1.2659   1.2691   1.2712   1.2719   1.2727   1.2745   1.2777   1.2890
     1.2914   1.2989   1.3083   1.3113   1.3183   1.3230   1.3318   1.3336
     1.3408   1.3417   1.3442   1.3463   1.3582   1.3609   1.3671   1.3704
     1.3771   1.3856   1.3889   1.3923   1.3928   1.4102   1.4130   1.4161
     1.4238   1.4344   1.4452   1.4461   1.4581   1.4642   1.4726   1.4883
     1.4938   1.5001   1.5037   1.5041   1.5063   1.5071   1.5115   1.5132
     1.5136   1.5196   1.5204   1.5229   1.5293   1.5307   1.5378   1.5394
     1.5445   1.5497   1.5530   1.5612   1.5649   1.5675   1.5772   1.5802
     1.5819   1.5836   1.5839   1.5910   1.5915   1.6025   1.6044   1.6057
     1.6086   1.6115   1.6118   1.6134   1.6166   1.6221   1.6246   1.6300
     1.6345   1.6358   1.6399   1.6422   1.6455   1.6515   1.6572   1.6643
     1.6659   1.6729   1.6773   1.6858   1.6887   1.6919   1.6973   1.7011
     1.7050   1.7115   1.7204   1.7251   1.7255   1.7279   1.7300   1.7342
     1.7391   1.7477   1.7501   1.7544   1.7624   1.7639   1.7650   1.7729
     1.7750   1.7847   1.7875   1.7880   1.7917   1.7937   1.8003   1.8014
     1.8023   1.8063   1.8089   1.8159   1.8194   1.8258   1.8272   1.8312
     1.8382   1.8402   1.8410   1.8456   1.8532   1.8564   1.8572   1.8576
     1.8602   1.8648   1.8689   1.8727   1.8765   1.8775   1.8799   1.8852
     1.8980   1.8981   1.9066   1.9080   1.9157   1.9206   1.9296   1.9321
     1.9428   1.9516   1.9561   1.9653   1.9744   1.9747   1.9756   1.9941
     2.0096   2.0258   2.0626   2.0675   2.0803   2.1212   2.1465   2.1571
     2.1701   2.1769   2.1788   2.1801   2.1818   2.1879   2.2320   2.2901
     2.3176   2.5343   2.5369   2.5613   2.5713   2.6862   2.6929   2.9941
     2.9965   3.1193   3.1506   3.1680   3.1717   3.1816   3.1968   3.2009
     3.2086   3.3677   3.3851   3.4250   3.4379   3.6531   3.8530   3.8892
     3.9207   3.9235   4.0061   4.0832   4.1907   4.2290   4.2428   4.2884
     4.3137   4.3558   4.4542   4.4953   4.5392   4.5651   4.6383   4.7662
     4.7978   4.8174   4.8756   4.9924   5.0360   5.0621   5.1000   5.1183
     5.1755   5.2051   5.2099   5.2679   5.4311   5.5243   5.6216   5.6447
     5.7124   5.7316   5.7877   5.8401   5.8614   5.8862   5.8993   5.9583
     6.1322   6.1615   6.1695   6.3049   6.3289   6.3420   6.3749   6.5874
     6.7739   6.8782   6.9587   6.9829   7.0224   7.0774   7.0942   7.1643
     7.1941   7.2428   7.3077   7.3395   7.4039   7.4285   7.5124   7.5232
     7.5886   7.6195   7.6442   7.6699   7.6943   7.7120   7.7257   7.7276
     7.8017   7.8126   7.9240   7.9819   7.9922   8.0541   8.0741   8.1716
     8.1906   8.3399   8.3650   8.4241   8.5591   8.5854   8.5941   8.6130
     8.6768   8.6825   8.7183   8.7700   8.8783   8.8989   8.9208   8.9597
     9.0180   9.0417   9.0604   9.0668   9.0878   9.1394   9.2301   9.2575
     9.2597   9.3339   9.3796   9.3981   9.4004   9.4248   9.5013   9.5361
     9.5647   9.5747   9.5896   9.5954   9.6847   9.7044   9.7155   9.7297
     9.7531   9.7635   9.7963   9.9977  10.0153  10.0458

          k =-0.5000 0.0000 0.0000 (256496 PWs)   bands (ev):

   -19.6397 -16.1213 -15.2631 -15.2351 -15.1787 -15.0503 -14.6414 -14.3014
   -14.2688 -14.0026 -13.5966 -13.3588 -12.5913 -12.3099 -12.2472 -12.1656
   -11.9051 -11.4330 -11.3739 -11.3245 -11.3012 -10.7934 -10.7245 -10.4782
   -10.3780 -10.1205 -10.0566  -9.8580  -9.3664  -9.1238  -8.7293  -8.5702
    -8.5061  -8.1886  -8.1144  -7.3404  -7.0955  -7.0616  -6.9356  -6.8570
    -6.6779  -6.5061  -6.0523  -5.7397  -5.5497  -5.4232  -4.8770  -4.8715
    -4.7566  -4.5989  -4.4491  -4.4079  -4.3744  -4.3721  -4.3702  -4.3510
    -4.3430  -4.2415  -4.2113  -4.1895  -4.1287  -4.1117  -4.0109  -3.9746
    -3.8514  -3.8184  -3.7665  -3.7318  -3.4611  -3.3736  -3.3574  -3.3513
    -3.3473  -3.2815  -3.1993  -3.0428  -3.0376  -2.9979  -2.9964  -2.9944
    -2.9918  -2.9731  -2.9625  -2.9503  -2.9049  -2.8506  -2.8329  -2.4734
    -2.4682  -2.3902  -2.3327  -2.2772  -2.2534  -2.2354  -2.2310  -2.2130
    -2.2117  -2.1805  -1.9734  -1.9350  -1.9251  -1.8818  -1.8351  -1.7438
    -1.6921  -1.4641  -1.4629  -1.4609  -1.4588  -1.4565  -1.4537  -1.4078
    -1.3741  -1.3696  -1.3681  -1.3588  -1.2447  -1.2373  -1.2341  -1.2304
    -1.2261  -1.2137  -1.1847  -1.1823  -1.1814  -1.1779  -1.1356  -1.1208
    -1.0726  -1.0710  -1.0312  -1.0095  -1.0078  -1.0035  -0.9988  -0.9918
    -0.9845  -0.9741  -0.9608  -0.9530  -0.9430  -0.9412  -0.9402  -0.9371
    -0.9345  -0.9313  -0.9223  -0.9197  -0.9157  -0.8810  -0.8804  -0.8748
    -0.8740  -0.8560  -0.8546  -0.8449  -0.8444  -0.8101  -0.7838  -0.7831
    -0.7787  -0.7688  -0.7650  -0.7624  -0.7595  -0.7579  -0.7568  -0.7192
    -0.7166  -0.7128  -0.7097  -0.6968  -0.6928  -0.6873  -0.6861  -0.6707
    -0.6663  -0.6630  -0.6433  -0.6346  -0.6335  -0.5917  -0.5753  -0.5638
    -0.5596  -0.5590  -0.5582  -0.5461  -0.5441  -0.5419  -0.5269  -0.5211
    -0.5175  -0.5128  -0.5098  -0.5082  -0.5068  -0.5020  -0.4999  -0.4986
    -0.4948  -0.4797  -0.4636  -0.4394  -0.4245  -0.4134  -0.3930  -0.3749
    -0.3722  -0.3031  -0.2946  -0.2919  -0.2900  -0.2756  -0.2616  -0.2603
    -0.2529  -0.2501  -0.2444  -0.2350  -0.2201  -0.2041  -0.2020  -0.1960
    -0.1941  -0.1921  -0.1893  -0.1848  -0.1602  -0.1577  -0.1521  -0.1510
    -0.1446  -0.0846  -0.0664  -0.0404  -0.0377  -0.0241  -0.0222  -0.0184
    -0.0127   0.0023   0.0059   0.0136   0.0138   0.0160   0.0204   0.0492
     0.0507   0.0522   0.0548   0.0597   0.0723   0.0784   0.0839   0.0841
     0.0879   0.0997   0.1064   0.1095   0.1186   0.1210   0.1260   0.1262
     0.1305   0.1323   0.1364   0.1558   0.1660   0.1683   0.1701   0.1755
     0.1846   0.1986   0.2066   0.2217   0.2264   0.2388   0.2447   0.2781
     0.2841   0.2872   0.2893   0.2904   0.2917   0.2930   0.3132   0.3243
     0.3305   0.3362   0.3541   0.3660   0.3686   0.3813   0.3894   0.3908
     0.3933   0.3944   0.3951   0.3970   0.4010   0.4016   0.4029   0.4054
     0.4139   0.4274   0.4667   0.4777   0.4852   0.4936   0.4961   0.4974
     0.4995   0.5029   0.5048   0.5100   0.5107   0.5125   0.5139   0.5149
     0.5189   0.5223   0.5232   0.5237   0.5327   0.5343   0.5345   0.5350
     0.5354   0.5393   0.5408   0.5451   0.5472   0.5476   0.5492   0.5614
     0.5650   0.5669   0.5729   0.5754   0.5837   0.5916   0.5968   0.6014
     0.6054   0.6520   0.6550   0.6786   0.6948   0.7128   0.7169   0.7203
     0.7332   0.7370   0.7376   0.7404   0.7558   0.7586   0.7629   0.7635
     0.7644   0.7654   0.7710   0.7723   0.7726   0.7741   0.7754   0.7770
     0.7782   0.7870   0.7887   0.7968   0.8069   0.8078   0.8090   0.8130
     0.8167   0.8191   0.8258   0.8475   0.8763   0.8891   0.8910   0.8979
     0.9108   0.9149   0.9219   0.9241   0.9291   0.9305   0.9345   0.9365
     0.9409   0.9433   0.9463   0.9476   0.9485   0.9499   0.9519   0.9551
     0.9562   0.9573   0.9612   0.9621   0.9644   0.9660   0.9708   0.9761
     0.9799   0.9820   0.9949   1.0009   1.0022   1.0247   1.0269   1.0318
     1.0381   1.0399   1.0477   1.0513   1.0528   1.0531   1.0563   1.0575
     1.0594   1.0611   1.0661   1.0705   1.0738   1.0829   1.0839   1.0875
     1.1069   1.1173   1.1204   1.1247   1.1265   1.1279   1.1284   1.1307
     1.1358   1.1433   1.1511   1.1734   1.1751   1.1784   1.1814   1.1837
     1.1849   1.1872   1.1978   1.2266   1.2298   1.2367   1.2414   1.2472
     1.2494   1.2557   1.2566   1.2574   1.2577   1.2589   1.2638   1.2724
     1.2744   1.2777   1.2799   1.2833   1.2843   1.2959   1.3036   1.3040
     1.3054   1.3090   1.3229   1.3244   1.3256   1.3281   1.3326   1.3478
     1.3491   1.3547   1.3665   1.3741   1.4043   1.4174   1.4261   1.4283
     1.4329   1.4353   1.4390   1.4438   1.4527   1.4554   1.4643   1.4667
     1.4739   1.4766   1.4898   1.4916   1.4965   1.5012   1.5064   1.5084
     1.5129   1.5226   1.5241   1.5270   1.5296   1.5352   1.5388   1.5396
     1.5462   1.5495   1.5542   1.5554   1.5568   1.5591   1.5595   1.5601
     1.5619   1.5629   1.5664   1.5804   1.5839   1.5935   1.5946   1.5951
     1.6088   1.6140   1.6159   1.6190   1.6222   1.6295   1.6394   1.6436
     1.6459   1.6522   1.6563   1.6571   1.6583   1.6604   1.6610   1.6617
     1.6621   1.6630   1.6648   1.6668   1.6789   1.6993   1.7036   1.7151
     1.7188   1.7193   1.7226   1.7272   1.7276   1.7288   1.7302   1.7307
     1.7346   1.7350   1.7354   1.7366   1.7451   1.7476   1.7482   1.7493
     1.7526   1.7567   1.7608   1.7624   1.7651   1.7664   1.7697   1.7736
     1.7785   1.7790   1.7821   1.7876   1.7961   1.8030   1.8098   1.8108
     1.8211   1.8231   1.8311   1.8317   1.8339   1.8356   1.8448   1.8478
     1.8495   1.8513   1.8544   1.8549   1.8598   1.8631   1.8641   1.8746
     1.8753   1.8811   1.8842   1.8973   1.8979   1.9025   1.9028   1.9098
     1.9123   1.9152   1.9160   1.9217   1.9309   1.9321   1.9325   1.9330
     1.9375   1.9438   1.9503   1.9855   1.9879   1.9916   2.0055   2.0238
     2.0289   2.0314   2.0323   2.3871   2.4038   2.4253   2.4278   2.5967
     2.6268   2.6449   2.6547   2.6989   2.7005   2.7018   2.7095   2.9336
     2.9444   2.9627   3.0748   3.2171   3.2274   3.2294   3.2407   3.5478
     3.5937   3.5967   3.6021   3.7323   3.8280   3.9398   3.9676   4.0300
     4.0852   4.1610   4.2294   4.2779   4.3113   4.3183   4.3913   4.4166
     4.4679   4.4810   4.4863   4.5838   4.6105   4.8765   4.9683   5.0253
     5.0630   5.0721   5.1924   5.2222   5.2319   5.2429   5.2617   5.3826
     5.3988   5.4164   5.4305   5.4330   5.4364   5.4381   5.4432   5.4747
     5.4866   5.5117   5.5281   5.7150   5.7818   5.8238   5.8437   5.8827
     5.9028   5.9226   5.9917   6.1890   6.2172   6.2929   6.3140   6.3460
     6.3543   6.3681   6.3950   6.4107   6.4289   6.5555   6.6253   6.6350
     6.6625   6.6910   6.9013   6.9102   7.0052   7.0973   7.3762   7.4044
     7.4209   7.4526   7.5208   7.6145   7.8016   7.8466   7.8820   7.9645
     7.9679   7.9698   7.9765   8.0307   8.0478   8.1128   8.1771   8.2071
     8.2093   8.2177   8.2329   8.2647   8.2757   8.3138   8.3405   8.3765
     8.3857   8.3893   8.4080   8.5204   8.5546   8.5732   8.6256   8.7421
     8.7462   9.0404   9.0543   9.1310   9.1877   9.1983   9.2420   9.2467
     9.2553   9.2694   9.2711   9.2996   9.3500   9.3945   9.4672   9.5331
     9.5831   9.6293   9.6414   9.6648   9.7532   9.7963   9.8220   9.8328
     9.8478   9.9017   9.9357   9.9987  10.0209  10.0266

          k =-0.5000-0.2165 0.0000 (256328 PWs)   bands (ev):

   -19.6397 -16.1205 -15.3452 -15.2580 -15.0532 -14.8452 -14.8274 -14.6188
   -14.1263 -13.7614 -13.5113 -13.2075 -13.0269 -12.9113 -11.9581 -11.5048
   -11.4915 -11.4334 -11.3921 -11.2783 -11.1643 -11.0649 -11.0604 -10.9216
   -10.9003 -10.0017  -9.6475  -9.4977  -9.3297  -9.1523  -8.7008  -8.5042
    -8.4019  -8.2247  -7.8648  -7.6513  -7.5845  -7.5300  -7.3522  -6.6497
    -6.1263  -5.9564  -5.7421  -5.4339  -5.4252  -5.3256  -5.1591  -4.9940
    -4.8152  -4.7684  -4.7511  -4.7501  -4.7459  -4.7325  -4.5205  -4.4803
    -4.4275  -4.2330  -4.0063  -3.7967  -3.7699  -3.7692  -3.7661  -3.7605
    -3.7324  -3.7167  -3.7091  -3.7047  -3.6941  -3.5868  -3.4302  -3.4125
    -3.3724  -3.3265  -3.3038  -3.2771  -3.2304  -3.2010  -3.1179  -3.0480
    -3.0370  -3.0116  -2.8472  -2.8460  -2.8249  -2.7932  -2.5504  -2.4878
    -2.4063  -2.2048  -2.1608  -2.1599  -2.1585  -2.1522  -2.1487  -2.1474
    -2.1393  -2.1229  -2.0392  -1.9270  -1.8769  -1.7126  -1.6717  -1.6637
    -1.6600  -1.6490  -1.6451  -1.6399  -1.6376  -1.6323  -1.5593  -1.5402
    -1.5305  -1.4933  -1.3860  -1.3821  -1.3805  -1.3796  -1.2256  -1.1777
    -1.1754  -1.1670  -1.1445  -1.1243  -1.0778  -1.0731  -1.0721  -1.0708
    -1.0511  -1.0507  -1.0191  -1.0184  -1.0152  -1.0148  -0.9968  -0.9794
    -0.9783  -0.9623  -0.9611  -0.9609  -0.9601  -0.9590  -0.9520  -0.9414
    -0.9399  -0.9387  -0.9376  -0.9009  -0.8971  -0.8840  -0.8815  -0.8767
    -0.8706  -0.8392  -0.8338  -0.8231  -0.8030  -0.7853  -0.7720  -0.7700
    -0.7692  -0.7562  -0.7491  -0.7467  -0.7457  -0.7387  -0.7279  -0.7166
    -0.7137  -0.7099  -0.7084  -0.6988  -0.6965  -0.6956  -0.6952  -0.6936
    -0.6897  -0.6875  -0.6425  -0.6383  -0.6360  -0.6353  -0.6333  -0.6244
    -0.6214  -0.6189  -0.6187  -0.6169  -0.6134  -0.6125  -0.6024  -0.5294
    -0.5211  -0.4838  -0.4809  -0.4596  -0.4524  -0.4507  -0.4346  -0.4335
    -0.4328  -0.4283  -0.3889  -0.3786  -0.3692  -0.3554  -0.3519  -0.3492
    -0.3470  -0.3456  -0.3407  -0.3379  -0.3349  -0.2966  -0.2932  -0.2907
    -0.2790  -0.2773  -0.2716  -0.2667  -0.2616  -0.2529  -0.2519  -0.2476
    -0.2422  -0.2319  -0.2161  -0.1423  -0.1374  -0.1363  -0.1311  -0.1175
    -0.1159  -0.1148  -0.0908  -0.0801  -0.0778  -0.0754  -0.0525  -0.0344
    -0.0324  -0.0243  -0.0139  -0.0112  -0.0049  -0.0010  -0.0001   0.0218
     0.0228   0.0325   0.0348   0.0450   0.0471   0.0682   0.0739   0.1014
     0.1043   0.1238   0.1348   0.1372   0.1403   0.1494   0.1524   0.1580
     0.1637   0.1639   0.1688   0.1828   0.1860   0.1862   0.1888   0.2222
     0.2377   0.2439   0.2566   0.2612   0.2632   0.2655   0.2682   0.2700
     0.2730   0.2805   0.2894   0.3045   0.3055   0.3058   0.3062   0.3079
     0.3152   0.3197   0.3201   0.3209   0.3245   0.3257   0.3330   0.3535
     0.3676   0.3948   0.4029   0.4046   0.4075   0.4225   0.4289   0.4314
     0.4632   0.4671   0.4812   0.4880   0.4906   0.4913   0.4950   0.4992
     0.5017   0.5029   0.5078   0.5104   0.5178   0.5185   0.5200   0.5236
     0.5244   0.5249   0.5261   0.5271   0.5290   0.5309   0.5314   0.5416
     0.5418   0.5464   0.5478   0.5571   0.5663   0.5693   0.5718   0.5769
     0.5804   0.5868   0.5882   0.5949   0.6216   0.6258   0.6278   0.6301
     0.6310   0.6320   0.6416   0.6548   0.6600   0.6633   0.6699   0.6707
     0.6765   0.7463   0.7483   0.7526   0.7555   0.7577   0.7598   0.7679
     0.7686   0.7752   0.7806   0.7815   0.7816   0.7863   0.7868   0.7892
     0.7903   0.7928   0.7935   0.7957   0.8190   0.8300   0.8468   0.8562
     0.8614   0.8649   0.8701   0.8764   0.8774   0.8790   0.8795   0.8821
     0.8836   0.8892   0.8922   0.8940   0.9029   0.9042   0.9186   0.9191
     0.9229   0.9251   0.9264   0.9274   0.9326   0.9334   0.9624   0.9647
     0.9683   0.9715   0.9744   0.9794   0.9810   0.9818   0.9871   0.9892
     0.9918   0.9929   0.9942   0.9971   1.0026   1.0041   1.0080   1.0093
     1.0120   1.0222   1.0295   1.0313   1.0348   1.0455   1.0532   1.0561
     1.0607   1.0737   1.0794   1.0824   1.0945   1.0979   1.1036   1.1047
     1.1062   1.1076   1.1123   1.1126   1.1278   1.1292   1.1321   1.1333
     1.1405   1.1425   1.1468   1.1488   1.1504   1.1513   1.1650   1.1708
     1.1830   1.1936   1.1942   1.1971   1.2023   1.2229   1.2318   1.2320
     1.2326   1.2389   1.2404   1.2413   1.2654   1.2667   1.2706   1.2731
     1.2779   1.2792   1.2888   1.3043   1.3220   1.3259   1.3392   1.3407
     1.3483   1.3509   1.3697   1.3729   1.3850   1.3878   1.4020   1.4031
     1.4095   1.4111   1.4218   1.4281   1.4286   1.4303   1.4315   1.4353
     1.4404   1.4462   1.4532   1.4550   1.4591   1.4601   1.4616   1.4625
     1.4626   1.4639   1.4640   1.4653   1.4681   1.4724   1.4762   1.4792
[...]
     atom    9 type  1   force =     0.00000960   -0.00001910    0.00008140
     atom   10 type  1   force =     0.00009578   -0.00009358    0.00010295
     atom   11 type  1   force =     0.00001076   -0.00001503    0.00025302
     atom   12 type  1   force =    -0.00007675   -0.00009647    0.00010093
     atom   13 type  1   force =     0.00000454    0.00003782   -0.00017095
     atom   14 type  1   force =     0.00000201    0.00005054   -0.00007898
     atom   15 type  1   force =     0.00000795   -0.00010410    0.00012363
     atom   16 type  1   force =     0.00000482    0.00007018   -0.00009719
     atom   17 type  1   force =     0.00000953   -0.00001769    0.00014523
     atom   18 type  1   force =    -0.00001682    0.00002412    0.00012654
     atom   19 type  1   force =    -0.00000610    0.00013065   -0.00002441
     atom   20 type  1   force =     0.00001967    0.00001231    0.00012757
     atom   21 type  1   force =     0.00000465   -0.00018303   -0.00005634
     atom   22 type  1   force =    -0.00006588   -0.00009985    0.00010711
     atom   23 type  1   force =     0.00002500   -0.00130515   -0.00131516
     atom   24 type  1   force =     0.00008482   -0.00006319    0.00014468
     atom   25 type  1   force =     0.00002860   -0.00060075   -0.00103950
     atom   26 type  1   force =    -0.00029435   -0.00071293   -0.00092847
     atom   27 type  1   force =     0.00002098   -0.00003703   -0.00006013
     atom   28 type  1   force =     0.00033073   -0.00073712   -0.00098083
     atom   29 type  1   force =     0.00002094    0.00054148   -0.00110793
     atom   30 type  1   force =     0.00022526   -0.00006985   -0.00027161
     atom   31 type  1   force =     0.00002512   -0.00003010   -0.00006714
     atom   32 type  1   force =    -0.00016525   -0.00006429   -0.00024837
     atom   33 type  1   force =     0.00000676    0.00021982   -0.00006501
     atom   34 type  1   force =    -0.00036839    0.00076985   -0.00110949
     atom   35 type  1   force =     0.00001768    0.00155227   -0.00162963
     atom   36 type  1   force =     0.00039904    0.00078482   -0.00113343
     atom   37 type  1   force =     0.00000016   -0.00001110    0.00021384
     atom   38 type  1   force =    -0.00008269    0.00014030    0.00006526
     atom   39 type  1   force =     0.00001146   -0.00001029    0.00007079
     atom   40 type  1   force =     0.00009660    0.00011608    0.00008392
     atom   41 type  1   force =     0.00000866   -0.00011934    0.00093196
     atom   42 type  1   force =    -0.00052962   -0.00141741   -0.00000207
     atom   43 type  1   force =     0.00004662   -0.00034438    0.00067022
     atom   44 type  1   force =     0.00058918   -0.00118117    0.00024937
     atom   45 type  1   force =    -0.00001847   -0.00162576   -0.00029353
     atom   46 type  1   force =    -0.00096366   -0.00290185   -0.00298095
     atom   47 type  1   force =     0.00008613   -0.00664831   -0.00666464
     atom   48 type  1   force =     0.00104842   -0.00299048   -0.00312223
     atom   49 type  1   force =     0.00019027   -0.00007622   -0.00458171
     atom   50 type  1   force =    -0.00139827    0.00312522   -0.00375564
     atom   51 type  1   force =     0.00004483   -0.00008651    0.00038063
     atom   52 type  1   force =     0.00143403    0.00311051   -0.00369750
     atom   53 type  1   force =     0.00001508    0.00180979   -0.00051765
     atom   54 type  1   force =    -0.00060996    0.00152095   -0.00000600
     atom   55 type  1   force =     0.00004416    0.00870446   -0.00881790
     atom   56 type  1   force =     0.00066833    0.00142077    0.00009056
     atom   57 type  1   force =     0.00000755    0.00017976    0.00100673
     atom   58 type  1   force =    -0.00001461   -0.00001186    0.00107073
     atom   59 type  1   force =     0.00003840    0.00029889    0.00066927
     atom   60 type  1   force =     0.00005413   -0.00001154    0.00106325
     atom   61 type  1   force =    -0.00006359   -0.00154090    0.00216932
     atom   62 type  1   force =    -0.00004116   -0.00015111    0.00229837
     atom   63 type  1   force =     0.00015110   -0.00155379    0.00113722
     atom   64 type  1   force =     0.00013756   -0.00015362    0.00230035
     atom   65 type  1   force =    -0.00015476   -0.00450338   -0.00207687
     atom   66 type  1   force =    -0.00216381   -0.00555167   -0.00105482
     atom   67 type  1   force =    -0.00004039   -0.00695474   -0.00632171
     atom   68 type  1   force =     0.00215170   -0.00493146   -0.00030018
     atom   69 type  1   force =    -0.00012277    0.00532846   -0.00139174
     atom   70 type  1   force =    -0.00464974    0.00110275   -0.00828591
     atom   71 type  1   force =     0.00000394    0.00847496   -0.00796698
     atom   72 type  1   force =     0.00513027    0.00077303   -0.00822730
     atom   73 type  1   force =    -0.00000950    0.00159855    0.00205684
     atom   74 type  1   force =    -0.00262571    0.00466173    0.00027665
     atom   75 type  1   force =     0.00009985    0.00157604    0.00148049
     atom   76 type  1   force =     0.00262759    0.00438271    0.00055009
     atom   77 type  1   force =     0.00004893    0.00003533    0.00221435
     atom   78 type  1   force =     0.00001358    0.00013468    0.00231618
     atom   79 type  1   force =     0.00004066   -0.00003867    0.00217254
     atom   80 type  1   force =     0.00008158    0.00013812    0.00232290
     atom   81 type  1   force =     0.00002771   -0.00029119    0.00208002
     atom   82 type  1   force =    -0.00012015   -0.00103520    0.00233742
     atom   83 type  1   force =     0.00007995   -0.00000806    0.00168988
     atom   84 type  1   force =     0.00016273   -0.00094124    0.00234317
     atom   85 type  1   force =    -0.00015085   -0.00301627    0.00187487
     atom   86 type  1   force =     0.00097636    0.00172275   -0.00896714
     atom   87 type  1   force =    -0.00019629   -0.00199458   -0.00160907
     atom   88 type  1   force =    -0.00099416    0.00131863   -0.00823969
     atom   89 type  1   force =     0.00025663    0.00130666   -0.00454265
     atom   90 type  1   force =     0.00202872   -0.00179808   -0.00523688
     atom   91 type  1   force =    -0.00013661    0.00187849   -0.01780996
     atom   92 type  1   force =    -0.00201053   -0.00174177   -0.00491950
     atom   93 type  1   force =    -0.00014721    0.00239483    0.00226522
     atom   94 type  1   force =     0.00000743    0.00088253    0.00236554
     atom   95 type  1   force =     0.00000455    0.00133364   -0.00046211
     atom   96 type  1   force =     0.00006198    0.00091470    0.00239313
     atom   97 type  1   force =     0.00003777    0.00024467    0.00181113
     atom   98 type  1   force =     0.00016921   -0.00003753    0.00179074
     atom   99 type  1   force =     0.00007289    0.00009781    0.00192417
     atom  100 type  1   force =    -0.00004712    0.00000342    0.00175287
     atom  101 type  2   force =    -0.00251606    0.00743040   -0.00509832
     atom  102 type  2   force =    -0.00022824   -0.00276559   -0.00403494
     atom  103 type  2   force =    -0.00108802    0.00873398   -0.00488080
     atom  104 type  2   force =    -0.00456568    0.00601360   -0.00223258
     atom  105 type  2   force =     0.00135144    0.00644455   -0.00504825
     atom  106 type  2   force =     0.00169928   -0.00170255    0.00020231
     atom  107 type  2   force =    -0.00070315    0.00919867   -0.00293453
     atom  108 type  2   force =    -0.00208194    0.00206942    0.00911291
     atom  109 type  2   force =    -0.00136803    0.00627832   -0.00567136
     atom  110 type  2   force =     0.00133102    0.00151951    0.00061716
     atom  111 type  2   force =     0.00526270    0.00695285   -0.00494206
     atom  112 type  2   force =     0.00608328    0.00304026   -0.00245014
     atom  113 type  2   force =    -0.00049375   -0.00235608    0.01264490
     atom  114 type  2   force =     0.00369320    0.00463276    0.01805659
     atom  115 type  2   force =    -0.00615223   -0.00351993    0.00800073
     atom  116 type  2   force =    -0.00636428   -0.00006491    0.01076543
     atom  117 type  2   force =     0.00276604    0.00162075    0.01061530
     atom  118 type  2   force =     0.00734128   -0.00115962   -0.01564425
     atom  119 type  2   force =    -0.00222584   -0.00391176    0.00137533
     atom  120 type  2   force =    -0.00015439   -0.00771408   -0.01013402
     atom  121 type  2   force =    -0.00214029    0.00490898    0.01391424
     atom  122 type  2   force =    -0.00763118   -0.00034060   -0.02055772
     atom  123 type  2   force =     0.00646233   -0.00580636    0.00513578
     atom  124 type  2   force =     0.00237422   -0.00240564    0.01358899
     atom  125 type  2   force =     0.00159634   -0.00114613    0.00906614
     atom  126 type  2   force =     0.00408168   -0.00199194   -0.00284232
     atom  127 type  2   force =    -0.00334881    0.00120936    0.01199979
     atom  128 type  2   force =    -0.00533134   -0.00496122   -0.00615984
     atom  129 type  2   force =    -0.00368675    0.00102283    0.00907570
     atom  130 type  2   force =    -0.00122637   -0.00181553    0.00520160
     atom  131 type  2   force =     0.00033280    0.00228536   -0.00771238
     atom  132 type  2   force =     0.00012279   -0.00379812   -0.00341050
     atom  133 type  2   force =     0.00177774    0.00001086    0.01217268
     atom  134 type  2   force =     0.00142285   -0.00235238    0.00721129
     atom  135 type  2   force =     0.00140907    0.00508454    0.00692160
     atom  136 type  2   force =     0.00110871   -0.00225415   -0.00532418
     atom  137 type  2   force =    -0.00208251   -0.00511728   -0.00269700
     atom  138 type  2   force =     0.00038966    0.00726649   -0.00167351
     atom  139 type  2   force =     0.00195017   -0.00804214   -0.00574842
     atom  140 type  2   force =     0.00016560   -0.00607002   -0.00168192
     atom  141 type  2   force =    -0.00353897   -0.00216188   -0.00249635
     atom  142 type  2   force =    -0.00149629    0.00471837   -0.00073456
     atom  143 type  2   force =    -0.00037116   -0.00494597   -0.00560070
     atom  144 type  2   force =    -0.00164948   -0.00332221   -0.00167788
     atom  145 type  2   force =     0.00226844   -0.00504366   -0.00273294
     atom  146 type  2   force =     0.00365863    0.00521066   -0.00109536
     atom  147 type  2   force =     0.00245677   -0.00471846   -0.00535637
     atom  148 type  2   force =    -0.00080110   -0.00449555   -0.00183395
     atom  149 type  3   force =    -0.00481019    0.00946010    0.01071841
     atom  150 type  3   force =    -0.00988922   -0.02148041    0.01870594
     atom  151 type  2   force =    -0.00718498    0.00716660   -0.00006760
     atom  152 type  2   force =     0.00528946    0.00287976   -0.00332896
     atom  153 type  3   force =     0.00625147    0.01253717    0.01096870
     atom  154 type  3   force =     0.00860813   -0.01913121    0.01815829

     Total force =     0.092950     Total SCF correction =     0.000308

     number of scf cycles    =   8
     number of bfgs steps    =   7

     energy   old            =  -12726.1442220803 Ry
     energy   new            =  -12726.1561472559 Ry

     CASE: energy  _new < energy  _old

     new trust radius        =       0.0681305512 bohr
     new conv_thr            =       0.0000000100 Ry


ATOMIC_POSITIONS (angstrom)
Cu      -0.000042229   0.001201844   7.361237629
Cu       1.844478246   1.704089241   7.360385107
Cu       3.688864285   0.000485461   7.360462236
Cu       5.533433732   1.704196515   7.360698382
Cu      -0.000085749   3.407355550   7.360110568
Cu       1.844821684   5.111668811   7.359799202
Cu       3.689040033   3.408131898   7.361138748
Cu       5.533234284   5.111639723   7.360022136
Cu      -0.000045208   6.815552252   7.359292813
Cu       1.845041010   8.519214165   7.359853882
Cu       3.689090818   6.815283471   7.360021062
Cu       5.532981915   8.519132217   7.360136295
Cu      -0.000063729  10.223210793   7.359988970
Cu       1.844457443  11.926484845   7.361234353
Cu       3.688970384  10.222825730   7.361891016
Cu       5.533422559  11.926805779   7.361037474
Cu       0.000019797  13.630009112   7.361448750
Cu       1.844211703  15.335447430   7.360857199
Cu       3.688789265  13.630597937   7.360734454
Cu       5.533626777  15.335125636   7.360090383
Cu       0.000164118   1.705235327   9.195422205
Cu       1.844128458   0.001750061   9.194372160
Cu       3.688887245   1.702119863   9.190899239
Cu       5.533773735   0.000746915   9.193227931
Cu       0.000362692   5.110875727   9.188508634
Cu       1.843602583   3.406664892   9.190584506
Cu       3.689180746   5.111736656   9.194085002
Cu       5.534744895   3.406738477   9.190851953
Cu       0.000382519   8.519614748   9.188524561
Cu       1.844689700   6.815144462   9.192595472
Cu       3.689068699   8.518060860   9.194330424
Cu       5.534031382   6.815048880   9.192937734
Cu       0.000088387  11.925159342   9.195079357
Cu       1.843397521  10.223212944   9.191284785
Cu       3.688863991  11.929333572   9.191001102
Cu       5.534814611  10.223831997   9.190549995
Cu       0.000098273  15.335347257   9.192658992
Cu       1.844039944  13.630525385   9.193336846
Cu       3.688700182  15.335240688   9.191551500
Cu       5.533820923  13.630922750   9.192974444
Cu       0.000544210  -0.000441404  11.037009490
Cu       1.843426360   1.705365268  11.038526453
Cu       3.688587034  -0.001491944  11.034000240
Cu       5.535327239   1.703265918  11.035793825
Cu       0.001203475   3.408910692  11.036800754
Cu       1.838336125   5.102316702  11.020143601
Cu       3.689358051   3.384485445  11.007647312
Cu       5.542036653   5.101937545  11.019329874
Cu       0.002482392   6.814500825  11.017642724
Cu       1.836520445   8.526111075  11.019350352
Cu       3.689755730   6.813402769  11.029124528
Cu       5.543377413   8.528038900  11.016829322
Cu       0.001060911  10.221417054  11.037313759
Cu       1.842606114  11.928289986  11.034758391
Cu       3.689119469  10.251099493  11.000528171
Cu       5.535838472  11.928618958  11.033851769
Cu       0.000018240  13.631432447  11.036394201
Cu       1.844275341  15.335306078  11.036445814
Cu       3.688960717  13.633368619  11.034196018
Cu       5.533652197  15.335540600  11.036262308
Cu       0.002302514   1.703353362  12.883303687
Cu       1.844725807  -0.000613640  12.887431714
Cu       3.689101714   1.695478463  12.877389876
Cu       5.534240809   0.000151068  12.886411741
Cu       0.003874599   5.102680800  12.875567600
Cu       1.841372085   3.392332279  12.877640657
Cu       3.691412713   5.007385301  12.774739359
Cu       5.541061655   3.389198616  12.872324587
Cu       0.004135313   8.526874550  12.876086895
Cu       1.787735234   6.814940039  12.798076805
Cu       3.689945680   8.643489238  12.746291214
Cu       5.599527037   6.817759403  12.788679612
Cu       0.001032287  11.929120734  12.885818292
Cu       1.836026078  10.243147056  12.871600622
Cu       3.689582459  11.933688589  12.874724453
Cu       5.545282351  10.242998254  12.869417878
Cu      -0.000092234  15.334234542  12.888218662
Cu       1.844185497  13.631450827  12.885665562
Cu       3.689394487  15.335815697  12.887623613
Cu       5.534378158  13.631066987  12.885449273
Cu       0.001621644   0.002965077  14.731344293
Cu       1.843525295   1.703567620  14.734113129
Cu       3.689521562   0.002303139  14.736305253
Cu       5.539272155   1.702170908  14.732136849
Cu       0.002378119   3.394811771  14.739390502
Cu       1.813129479   5.070792818  14.635971685
Cu       3.694099252   3.371590865  14.724399861
Cu       5.573283822   5.071472820  14.622614978
Cu       0.007205266   6.816152553  14.699495398
Cu       1.809373471   8.566133967  14.652050751
Cu       3.699708567   6.863500133  14.170709808
Cu       5.576620685   8.566271842  14.647136019
Cu       0.003268513  10.240979566  14.749872233
Cu       1.843868042  11.927965424  14.732060472
Cu       3.691273127  10.243981626  14.714556198
Cu       5.537266317  11.926335025  14.730966523
Cu       0.000079492  13.628639466  14.736531283
Cu       1.844937363  15.333498199  14.735795536
Cu       3.690278855  13.626064776  14.728987171
Cu       5.534114083  15.334629130  14.735253078
C       -0.002200518   0.720003707  18.072849622
C       -0.004079989   2.142443520  18.043332141
C        1.228245058   0.002446144  18.086827101
C        1.229277879   2.846286361  18.049495654
C        2.458557267   0.715270599  18.063109082
C        2.460867708   2.138642688  18.046990850
C        3.688285271   0.000481014  18.078034163
C        3.687163305   2.847533026  18.085388488
C        4.917209330   0.713825428  18.065777930
C        4.916401514   2.140075864  18.049713161
C        6.145982418   0.003093332  18.089732593
C        6.151086373   2.846152060  18.055791082
C        0.001756965   4.975201093  18.132999971
C        0.001449094   6.393823476  18.197731849
C        1.227538725   4.271111891  18.128396140
C        1.224989700   7.104450026  18.319683169
C        2.452060241   4.969222451  18.365418784
C        2.446586894   6.389663336  18.529518450
C        3.687090612   4.263334697  18.273318665
C        3.689238157   7.104450525  18.614097380
C        4.927457149   4.971615766  18.372055096
C        4.931082658   6.389694077  18.542152758
C        6.149662906   4.269048698  18.133155236
C        6.154629658   7.101641685  18.328463668
C        0.006095579   9.221155985  18.060145212
C       -0.001807343  10.638545691  18.011705345
C        1.224873801   8.515207116  18.184448688
C        1.230857179  11.351381078  18.034207628
C        2.460651314   9.229577776  18.222862552
C        2.460277158  10.643783735  18.081320705
C        3.689919858   8.525530896  18.406503930
C        3.688371300  11.358723163  18.073728234
C        4.920293049   9.228619161  18.227495381
C        4.917917066  10.643259964  18.073982750
C        6.151205871   8.519013607  18.194269630
C        6.149462139  11.354526592  18.028826286
C       -0.001768839  13.481503637  18.076521127
C       -0.000634090  14.907723860  18.097840881
C        1.230534596  12.772901280  18.068256031
C        1.227844201  15.620943839  18.097762647
C        2.457432500  13.484974246  18.093180555
C        2.456632499  14.908099396  18.096933988
C        3.688049536  12.778365547  18.084778058
C        3.688212037  15.617942826  18.097222835
C        4.919028707  13.486236497  18.091114904
C        4.918634077  14.908542158  18.098140281
C        6.146350081  12.772919836  18.064596713
C        6.146024146  15.620312590  18.099363473
H        2.478570767   7.598899198  16.328719994
H        2.485772114   5.792677688  16.237894856
C        3.019369915   6.713622073  15.989587631
C        4.417130797   6.716896756  15.979082730
H        4.953558135   7.603241740  16.329752035
H        4.958450665   5.801052228  16.235157474



     Writing output data file gc.save
     Check: negative starting charge=   -0.001767
     NEW-OLD atomic charge density approx. for the potential
     Check: negative starting charge=   -0.001771

     negative rho (up, down):  1.834E-03 0.000E+00

     total cpu time spent up to now is    41690.4 secs

     Self-consistent Calculation

     iteration #  1     ecut=    80.00 Ry     beta=0.70
     Davidson diagonalization with overlap
     c_bands:  1 eigenvalues not converged
     ethr =  1.00E-06,  avg # of iterations = 10.2

     negative rho (up, down):  2.021E-03 0.000E+00

     total cpu time spent up to now is    42309.2 secs

     total energy              =  -12726.17036659 Ry
     Harris-Foulkes estimate   =  -12726.17721938 Ry
     estimated scf accuracy    <       0.03604701 Ry

     iteration #  2     ecut=    80.00 Ry     beta=0.70
     Davidson diagonalization with overlap
