
     Program PWSCF v.5.4.0 starts on  1May2017 at  8:48:21 

     This program is part of the open-source Quantum ESPRESSO suite
     for quantum simulation of materials; please cite
         "P. Giannozzi et al., J. Phys.:Condens. Matter 21 395502 (2009);
          URL http://www.quantum-espresso.org", 
     in publications or presentations arising from this work. More details at
     http://www.quantum-espresso.org/quote

     Parallel version (MPI & OpenMP), running on      56 processor cores
     Number of MPI processes:                56
     Threads/MPI process:                     1
     R & G space division:  proc/nbgrp/npool/nimage =      56
     Waiting for input...
     Reading input from standard input
Warning: card &IONS ignored
Warning: card / ignored

     Current dimensions of program PWSCF are:
     Max number of different atomic species (ntypx) = 10
     Max number of k-points (npk) =  40000
     Max angular momentum in pseudopotentials (lmaxx) =  3

     -------------------------------------
     Parameters for Dispersion Correction:
     -------------------------------------
       atom      VdW radius       C_6     

        Cu         2.952        374.666
        C_h        2.744         60.710
        C          2.744         60.710
        H          1.892          4.857

     Subspace diagonalization in iterative solution of the eigenvalue problem:
     one sub-group per band group will be used
     scalapack distributed-memory algorithm (size of sub-group:  5*  5 procs)

 
     Parallelization info
     --------------------
     sticks:   dense  smooth     PW     G-vecs:    dense   smooth      PW
     Min         204     204     54                36612    36612    4962
     Max         205     205     55                36617    36617    4968
     Sum       11433   11433   3039              2050409  2050409  278033
 


     bravais-lattice index     =            0
     lattice parameter (alat)  =      13.9425  a.u.
     unit-cell volume          =   21209.0878 (a.u.)^3
     number of atoms/cell      =          150
     number of atomic types    =            4
     number of electrons       =      1294.00
     number of Kohn-Sham states=          776
     kinetic-energy cutoff     =      80.0000  Ry
     charge density cutoff     =     320.0000  Ry
     convergence threshold     =      1.0E-08
     mixing beta               =       0.7000
     number of iterations used =            8  local-TF  mixing
     Exchange-correlation      =  SLA  PW   PBE  PBE ( 1  4  3  4 0 0)

     celldm(1)=  13.942539  celldm(2)=   0.000000  celldm(3)=   0.000000
     celldm(4)=   0.000000  celldm(5)=   0.000000  celldm(6)=   0.000000

     crystal axes: (cart. coord. in units of alat)
               a(1) = (   1.000000   0.000000   0.000000 )  
               a(2) = (   0.000000   2.309401   0.000000 )  
               a(3) = (   0.000000   0.000000   3.388418 )  

     reciprocal axes: (cart. coord. in units 2 pi/alat)
               b(1) = (  1.000000  0.000000  0.000000 )  
               b(2) = (  0.000000  0.433013  0.000000 )  
               b(3) = (  0.000000  0.000000  0.295123 )  


     PseudoPot. # 1 for Cu read from file:
     /home/549/hxw549/Short/pseudopotentials/Cu.pbe-n-van_ak.UPF
     MD5 check sum: 601f7c30f7467666bec936e0661ce3e1
     Pseudo is Ultrasoft + core correction, Zval = 11.0
     Generated by new atomic code, or converted to UPF format
     Using radial grid of  867 points,  6 beta functions with: 
                l(1) =   0
                l(2) =   0
                l(3) =   1
                l(4) =   1
                l(5) =   2
                l(6) =   2
     Q(r) pseudized with  8 coefficients,  rinner =    1.400   1.400   1.400
                                                       1.400   1.400

     PseudoPot. # 2 for C  read from file:
     /home/549/hxw549/Short/pseudopotentials/C.star1s-pbe-mt_gipaw.UPF
     MD5 check sum: ef0cb3dee31bd9e4ba2a832a2c716264
     Pseudo is Norm-conserving, Zval =  5.0
     Generated by new atomic code, or converted to UPF format
     Using radial grid of 1073 points,  1 beta functions with: 
                l(1) =   0

     PseudoPot. # 3 for C  read from file:
     /home/549/hxw549/Short/pseudopotentials/C.pbe-mt_gipaw.UPF
     MD5 check sum: 5ac2f21f2c440b14befe521540822c15
     Pseudo is Norm-conserving, Zval =  4.0
     Generated by new atomic code, or converted to UPF format
     Using radial grid of 1073 points,  1 beta functions with: 
                l(1) =   0

     PseudoPot. # 4 for H  read from file:
     /home/549/hxw549/Short/pseudopotentials/H.pbe-van_ak.UPF
     MD5 check sum: 077eb6d537518a38cb46c6de387227b7
     Pseudo is Ultrasoft, Zval =  1.0
     Generated by new atomic code, or converted to UPF format
     Using radial grid of  615 points,  1 beta functions with: 
                l(1) =   0
     Q(r) pseudized with  8 coefficients,  rinner =    0.800

     atomic species   valence    mass     pseudopotential
        Cu            11.00    63.54600     Cu( 1.00)
        C_h            5.00    12.01070     C ( 1.00)
        C              4.00    12.01070     C ( 1.00)
        H              1.00     1.00783     H ( 1.00)

     No symmetry found



   Cartesian axes

     site n.     atom                  positions (alat units)
         1           Cu  tau(   1) = (   0.0000919   0.0002316   0.9987459  )
         2           Cu  tau(   2) = (   0.2500608   0.2313422   0.9986560  )
         3           Cu  tau(   3) = (   0.5000559   0.0002569   0.9986982  )
         4           Cu  tau(   4) = (   0.7500949   0.2314102   0.9988092  )
         5           Cu  tau(   5) = (   0.0000733   0.4621721   0.9985440  )
         6           Cu  tau(   6) = (   0.2500962   0.6929017   0.9981624  )
         7           Cu  tau(   7) = (   0.5000988   0.4621718   0.9985475  )
         8           Cu  tau(   8) = (   0.7500930   0.6928823   0.9982088  )
         9           Cu  tau(   9) = (   0.0000822   0.9236183   0.9979416  )
        10           Cu  tau(  10) = (   0.2501215   1.1543049   0.9981078  )
        11           Cu  tau(  11) = (   0.5001082   0.9236142   0.9979840  )
        12           Cu  tau(  12) = (   0.7500653   1.1542869   0.9981949  )
        13           Cu  tau(  13) = (   0.0000921   1.3848839   0.9985403  )
        14           Cu  tau(  14) = (   0.2500884   1.6154746   0.9989221  )
        15           Cu  tau(  15) = (   0.5000855   1.3848573   0.9987145  )
        16           Cu  tau(  16) = (   0.7500809   1.6155229   0.9989338  )
        17           Cu  tau(  17) = (   0.0001056   1.8465206   0.9988634  )
        18           Cu  tau(  18) = (   0.2500826   2.0781047   0.9988097  )
        19           Cu  tau(  19) = (   0.5000543   1.8465227   0.9988342  )
        20           Cu  tau(  20) = (   0.7500690   2.0780250   0.9985623  )
        21           Cu  tau(  21) = (   0.0001558   0.2316251   1.2472335  )
        22           Cu  tau(  22) = (   0.2500763   0.0004221   1.2468628  )
        23           Cu  tau(  23) = (   0.5000595   0.2316031   1.2471440  )
        24           Cu  tau(  24) = (   0.7501210   0.0000719   1.2464898  )
        25           Cu  tau(  25) = (   0.0001786   0.6932610   1.2468641  )
        26           Cu  tau(  26) = (   0.2501143   0.4625386   1.2470684  )
        27           Cu  tau(  27) = (   0.5001345   0.6932158   1.2468571  )
        28           Cu  tau(  28) = (   0.7501458   0.4626033   1.2472386  )
        29           Cu  tau(  29) = (   0.0002022   1.1538536   1.2469961  )
        30           Cu  tau(  30) = (   0.2501511   0.9236315   1.2467472  )
        31           Cu  tau(  31) = (   0.5000991   1.1537473   1.2471984  )
        32           Cu  tau(  32) = (   0.7501581   0.9235895   1.2467964  )
        33           Cu  tau(  33) = (   0.0001614   1.6150823   1.2474850  )
        34           Cu  tau(  34) = (   0.2501328   1.3841450   1.2476041  )
        35           Cu  tau(  35) = (   0.5000748   1.6152235   1.2474914  )
        36           Cu  tau(  36) = (   0.7501317   1.3842908   1.2474566  )
        37           Cu  tau(  37) = (   0.0001775   2.0780482   1.2464335  )
        38           Cu  tau(  38) = (   0.2500819   1.8464294   1.2469514  )
        39           Cu  tau(  39) = (   0.5000260   2.0780571   1.2463402  )
        40           Cu  tau(  40) = (   0.7501350   1.8466074   1.2468146  )
        41           Cu  tau(  41) = (   0.0002946  -0.0001701   1.4956456  )
        42           Cu  tau(  42) = (   0.2501863   0.2321383   1.4969122  )
        43           Cu  tau(  43) = (   0.4999891  -0.0002208   1.4954507  )
        44           Cu  tau(  44) = (   0.7501747   0.2312501   1.4958839  )
        45           Cu  tau(  45) = (   0.0004356   0.4632209   1.4970349  )
        46           Cu  tau(  46) = (   0.2503312   0.6936162   1.4971319  )
        47           Cu  tau(  47) = (   0.5000865   0.4631679   1.4969599  )
        48           Cu  tau(  48) = (   0.7504028   0.6936701   1.4970478  )
        49           Cu  tau(  49) = (   0.0005039   0.9234888   1.4974851  )
        50           Cu  tau(  50) = (   0.2502472   1.1526190   1.4982066  )
        51           Cu  tau(  51) = (   0.5002313   0.9231018   1.4975484  )
        52           Cu  tau(  52) = (   0.7504336   1.1530786   1.4974338  )
        53           Cu  tau(  53) = (   0.0004108   1.3833185   1.4976842  )
        54           Cu  tau(  54) = (   0.2500898   1.6148558   1.4969539  )
        55           Cu  tau(  55) = (   0.5000969   1.3834757   1.4974071  )
        56           Cu  tau(  56) = (   0.7502866   1.6151345   1.4965213  )
        57           Cu  tau(  57) = (   0.0001917   1.8466826   1.4959292  )
        58           Cu  tau(  58) = (   0.2500956   2.0780177   1.4954864  )
        59           Cu  tau(  59) = (   0.5001167   1.8469305   1.4958586  )
        60           Cu  tau(  60) = (   0.7501829   2.0780930   1.4954862  )
        61           Cu  tau(  61) = (   0.0007775   0.2309508   1.7440249  )
        62           Cu  tau(  62) = (   0.2503161  -0.0008350   1.7446016  )
        63           Cu  tau(  63) = (   0.4999464   0.2304797   1.7441712  )
        64           Cu  tau(  64) = (   0.7501365  -0.0005288   1.7443952  )
        65           Cu  tau(  65) = (   0.0013623   0.6939929   1.7480172  )
        66           Cu  tau(  66) = (   0.2510771   0.4648501   1.7478613  )
        67           Cu  tau(  67) = (   0.5005687   0.6939015   1.7487506  )
        68           Cu  tau(  68) = (   0.7502018   0.4624007   1.7446871  )
        69           Cu  tau(  69) = (   0.0013105   1.1518301   1.7496610  )
        70           Cu  tau(  70) = (   0.2512460   0.9214887   1.7506302  )
        71           Cu  tau(  71) = (   0.5004369   1.1517942   1.7481557  )
        72           Cu  tau(  72) = (   0.7509203   0.9230797   1.7484028  )
        73           Cu  tau(  73) = (   0.0004936   1.6154487   1.7454767  )
        74           Cu  tau(  74) = (   0.2501476   1.3827323   1.7473588  )
        75           Cu  tau(  75) = (   0.5001925   1.6156317   1.7443592  )
        76           Cu  tau(  76) = (   0.7509625   1.3833964   1.7459575  )
        77           Cu  tau(  77) = (   0.0001031   2.0779212   1.7449489  )
        78           Cu  tau(  78) = (   0.2500076   1.8473287   1.7446935  )
        79           Cu  tau(  79) = (   0.5002818   2.0781908   1.7449505  )
        80           Cu  tau(  80) = (   0.7504487   1.8471757   1.7446367  )
        81           Cu  tau(  81) = (   0.0004240  -0.0001522   1.9900766  )
        82           Cu  tau(  82) = (   0.2505362   0.2304765   1.9891646  )
        83           Cu  tau(  83) = (   0.5003170  -0.0004802   1.9916035  )
        84           Cu  tau(  84) = (   0.7508297   0.2300475   1.9890208  )
        85           Cu  tau(  85) = (   0.0007134   0.4615681   1.9886491  )
        86           Cu  tau(  86) = (   0.2555377   0.6923694   2.0041176  )
        87           Cu  tau(  87) = (   0.5018602   0.4586886   1.9914437  )
        88           Cu  tau(  88) = (   0.7496439   0.6912560   1.9926309  )
        89           Cu  tau(  89) = (   0.0027475   0.9204858   1.9979469  )
        90           Cu  tau(  90) = (   0.2526709   1.1520246   1.9975839  )
        91           Cu  tau(  91) = (   0.5025490   0.9235215   2.0015700  )
        92           Cu  tau(  92) = (   0.7508204   1.1539531   1.9940355  )
        93           Cu  tau(  93) = (   0.0014989   1.3847037   1.9932512  )
        94           Cu  tau(  94) = (   0.2499708   1.6164600   1.9898000  )
        95           Cu  tau(  95) = (   0.5004943   1.3857039   1.9900093  )
        96           Cu  tau(  96) = (   0.7511816   1.6158142   1.9892455  )
        97           Cu  tau(  97) = (   0.0001801   1.8474409   1.9918528  )
        98           Cu  tau(  98) = (   0.2503839   2.0779032   1.9912589  )
        99           Cu  tau(  99) = (   0.5004988   1.8464844   1.9899715  )
       100           Cu  tau( 100) = (   0.7501677   2.0781460   1.9911230  )
       101           C   tau( 101) = (  -0.0003040   0.0972297   2.3847638  )
       102           C   tau( 102) = (  -0.0003765   0.2895199   2.3803426  )
       103           C   tau( 103) = (   0.1663539   0.0011273   2.3863152  )
       104           C   tau( 104) = (   0.1662550   0.3851894   2.3755594  )
       105           C   tau( 105) = (   0.3329376   0.0969758   2.3818213  )
       106           C   tau( 106) = (   0.3329334   0.2892900   2.3754856  )
       107           C   tau( 107) = (   0.4997646   0.0009528   2.3837108  )
       108           C   tau( 108) = (   0.4996309   0.3858570   2.3733910  )
       109           C   tau( 109) = (   0.6666229   0.0973194   2.3827700  )
       110           C   tau( 110) = (   0.6667266   0.2896695   2.3769746  )
       111           C   tau( 111) = (   0.8330509   0.0011811   2.3869992  )
       112           C   tau( 112) = (   0.8333458   0.3859084   2.3781081  )
       113           C   tau( 113) = (  -0.0003680   0.6746180   2.3800255  )
       114           C   tau( 114) = (  -0.0004064   0.8679568   2.3724861  )
       115           C   tau( 115) = (   0.1668760   0.5778132   2.3777557  )
       116           C   tau( 116) = (   0.1634612   0.9654252   2.3879310  )
       117           C   tau( 117) = (   0.3328709   0.6722646   2.3863051  )
       118           C   tau( 118) = (   0.3249077   0.8629165   2.4553160  )
       119           H   tau( 119) = (   0.2898117   0.8427006   2.6008827  )
       120           C   tau( 120) = (   0.4987120   0.5783926   2.3806943  )
       121           C_h tau( 121) = (   0.5061247   0.9664464   2.4580165  )
       122           H   tau( 122) = (   0.5407479   0.9796419   2.6045574  )
       123           C   tau( 123) = (   0.6665974   0.6755722   2.3805660  )
       124           C   tau( 124) = (   0.6673444   0.8659745   2.3861427  )
       125           C   tau( 125) = (   0.8336502   0.5787306   2.3768762  )
       126           C   tau( 126) = (   0.8312723   0.9631555   2.3738225  )
       127           C   tau( 127) = (  -0.0019716   1.2521495   2.3750160  )
       128           C   tau( 128) = (  -0.0013290   1.4449106   2.3729733  )
       129           C   tau( 129) = (   0.1648442   1.1554723   2.3838475  )
       130           C   tau( 130) = (   0.1656843   1.5411912   2.3777721  )
       131           C   tau( 131) = (   0.3330998   1.2527319   2.3892415  )
       132           C   tau( 132) = (   0.3324059   1.4451862   2.3817547  )
       133           C   tau( 133) = (   0.4984958   1.1595819   2.3974132  )
       134           C   tau( 134) = (   0.4987093   1.5415794   2.3828062  )
       135           C   tau( 135) = (   0.6639257   1.2531325   2.3818526  )
       136           C   tau( 136) = (   0.6649916   1.4456716   2.3776727  )
       137           C   tau( 137) = (   0.8315532   1.1563045   2.3783396  )
       138           C   tau( 138) = (   0.8319314   1.5413832   2.3751799  )
       139           C   tau( 139) = (  -0.0008312   1.8298647   2.3821881  )
       140           C   tau( 140) = (  -0.0005462   2.0221493   2.3876639  )
       141           C   tau( 141) = (   0.1659842   1.7335119   2.3822565  )
       142           C   tau( 142) = (   0.1661351   2.1182255   2.3880502  )
       143           C   tau( 143) = (   0.3325355   1.8297460   2.3874497  )
       144           C   tau( 144) = (   0.3328591   2.0220360   2.3885517  )
       145           C   tau( 145) = (   0.4990294   1.7338454   2.3860481  )
       146           C   tau( 146) = (   0.4995744   2.1180647   2.3887952  )
       147           C   tau( 147) = (   0.6657974   1.8297375   2.3866810  )
       148           C   tau( 148) = (   0.6660566   2.0220263   2.3886619  )
       149           C   tau( 149) = (   0.8322308   1.7336756   2.3810465  )
       150           C   tau( 150) = (   0.8329133   2.1182503   2.3883294  )

     number of k points=     6  gaussian smearing, width (Ry)=  0.1000
                       cart. coord. in units 2pi/alat
        k(    1) = (   0.0000000   0.0000000   0.0000000), wk =   0.2500000
        k(    2) = (   0.0000000  -0.2165064   0.0000000), wk =   0.2500000
        k(    3) = (   0.2500000   0.0000000   0.0000000), wk =   0.5000000
        k(    4) = (   0.2500000  -0.2165064   0.0000000), wk =   0.5000000
        k(    5) = (  -0.5000000   0.0000000   0.0000000), wk =   0.2500000
        k(    6) = (  -0.5000000  -0.2165064   0.0000000), wk =   0.2500000

     Dense  grid:  2050409 G-vectors     FFT dimensions: (  80, 192, 270)

     Largest allocated arrays     est. size (Mb)     dimensions
        Kohn-Sham Wavefunctions        54.52 Mb     (    4604,  776)
        NL pseudopotentials           129.97 Mb     (    4604, 1850)
        Each V/rho on FFT grid          1.17 Mb     (   76800)
        Each G-vector array             0.28 Mb     (   36616)
        G-vector shells                 0.14 Mb     (   17932)
     Largest temporary arrays     est. size (Mb)     dimensions
        Auxiliary wavefunctions       218.06 Mb     (    4604, 3104)
        Each subspace H/S matrix        5.87 Mb     (     620,  620)
        Each <psi_i|beta_j> matrix     21.91 Mb     (    1850,  776)
        Arrays for rho mixing           9.38 Mb     (   76800,    8)

     Initial potential from superposition of free atoms
     Check: negative starting charge=   -0.001837

     starting charge 1268.81749, renormalised to 1294.00000

     negative rho (up, down):  1.874E-03 0.000E+00
     Starting wfc are 1286 randomized atomic wfcs

     total cpu time spent up to now is      107.0 secs

     Self-consistent Calculation

     iteration #  1     ecut=    80.00 Ry     beta=0.70
     Davidson diagonalization with overlap
     c_bands:  1 eigenvalues not converged
     c_bands:  1 eigenvalues not converged
     ethr =  1.00E-04,  avg # of iterations = 37.8

     negative rho (up, down):  2.445E+01 0.000E+00

     total cpu time spent up to now is     2105.4 secs

     total energy              =   -9727.90570951 Ry
     Harris-Foulkes estimate   =  -17301.00376173 Ry
     estimated scf accuracy    <  179761.99580393 Ry

     iteration #  2     ecut=    80.00 Ry     beta=0.70
     Davidson diagonalization with overlap
     ethr =  1.00E-02,  avg # of iterations = 11.3

     negative rho (up, down):  2.828E+01 0.000E+00

     total cpu time spent up to now is     3012.5 secs

     total energy              =  -12185.66430899 Ry
     Harris-Foulkes estimate   =  -13634.58292797 Ry
     estimated scf accuracy    <   23809.93748214 Ry

     iteration #  3     ecut=    80.00 Ry     beta=0.70
     Davidson diagonalization with overlap
     ethr =  1.00E-02,  avg # of iterations =  7.0

     negative rho (up, down):  2.906E+01 0.000E+00

     total cpu time spent up to now is     3543.7 secs

     total energy              =  -12413.27616185 Ry
     Harris-Foulkes estimate   =  -13371.61248712 Ry
     estimated scf accuracy    <    6010.09108781 Ry

     iteration #  4     ecut=    80.00 Ry     beta=0.70
     Davidson diagonalization with overlap
     ethr =  1.00E-02,  avg # of iterations =  5.3

     negative rho (up, down):  2.156E+01 0.000E+00

     total cpu time spent up to now is     4102.9 secs

     total energy              =  -12819.64400396 Ry
     Harris-Foulkes estimate   =  -13051.62108763 Ry
     estimated scf accuracy    <    1751.24128914 Ry

     iteration #  5     ecut=    80.00 Ry     beta=0.70
     Davidson diagonalization with overlap
     ethr =  1.00E-02,  avg # of iterations =  3.2

     negative rho (up, down):  1.598E+01 0.000E+00

     total cpu time spent up to now is     4373.3 secs

     total energy              =  -12822.05268761 Ry
     Harris-Foulkes estimate   =  -12928.18089613 Ry
     estimated scf accuracy    <     987.26878123 Ry

     iteration #  6     ecut=    80.00 Ry     beta=0.70
     Davidson diagonalization with overlap
     ethr =  1.00E-02,  avg # of iterations =  2.2

     negative rho (up, down):  1.100E+01 0.000E+00

     total cpu time spent up to now is     4564.1 secs

     total energy              =  -12808.23019891 Ry
     Harris-Foulkes estimate   =  -12871.00119680 Ry
     estimated scf accuracy    <     498.34559436 Ry

     iteration #  7     ecut=    80.00 Ry     beta=0.70
     Davidson diagonalization with overlap
     ethr =  1.00E-02,  avg # of iterations =  2.0

     negative rho (up, down):  7.693E+00 0.000E+00

     total cpu time spent up to now is     4751.8 secs

     total energy              =  -12786.40689194 Ry
     Harris-Foulkes estimate   =  -12826.67788105 Ry
     estimated scf accuracy    <     395.06534535 Ry

     iteration #  8     ecut=    80.00 Ry     beta=0.70
     Davidson diagonalization with overlap
     ethr =  1.00E-02,  avg # of iterations =  2.0

     negative rho (up, down):  6.589E+00 0.000E+00

     total cpu time spent up to now is     4933.8 secs

     total energy              =  -12777.68605351 Ry
     Harris-Foulkes estimate   =  -12801.19167202 Ry
     estimated scf accuracy    <     386.04322096 Ry

     iteration #  9     ecut=    80.00 Ry     beta=0.70
     Davidson diagonalization with overlap
     ethr =  1.00E-02,  avg # of iterations =  2.0

     negative rho (up, down):  5.622E+00 0.000E+00

     total cpu time spent up to now is     5114.1 secs

     total energy              =  -12776.40310510 Ry
     Harris-Foulkes estimate   =  -12788.44374135 Ry
     estimated scf accuracy    <     179.81959721 Ry

     iteration # 10     ecut=    80.00 Ry     beta=0.70
     Davidson diagonalization with overlap
     ethr =  1.00E-02,  avg # of iterations =  1.0

     negative rho (up, down):  1.385E+00 0.000E+00

     total cpu time spent up to now is     5283.1 secs

     total energy              =  -12741.06771391 Ry
     Harris-Foulkes estimate   =  -12778.82344871 Ry
     estimated scf accuracy    <     144.99700810 Ry

     iteration # 11     ecut=    80.00 Ry     beta=0.70
     Davidson diagonalization with overlap
     ethr =  1.00E-02,  avg # of iterations =  2.3

     negative rho (up, down):  9.813E-01 0.000E+00

     total cpu time spent up to now is     5467.7 secs

     total energy              =  -12732.75005803 Ry
     Harris-Foulkes estimate   =  -12749.48529725 Ry
     estimated scf accuracy    <     364.23963825 Ry

     iteration # 12     ecut=    80.00 Ry     beta=0.70
     Davidson diagonalization with overlap
     ethr =  1.00E-02,  avg # of iterations =  2.0

     negative rho (up, down):  3.368E-01 0.000E+00

     total cpu time spent up to now is     5647.8 secs

     total energy              =  -12729.61845696 Ry
     Harris-Foulkes estimate   =  -12741.94975660 Ry
     estimated scf accuracy    <      69.91928919 Ry

     iteration # 13     ecut=    80.00 Ry     beta=0.70
     Davidson diagonalization with overlap
     ethr =  5.40E-03,  avg # of iterations =  3.2

     negative rho (up, down):  2.970E+00 0.000E+00

     total cpu time spent up to now is     5842.1 secs

     total energy              =  -12720.70742119 Ry
     Harris-Foulkes estimate   =  -12734.32454959 Ry
     estimated scf accuracy    <      65.38775195 Ry

     iteration # 14     ecut=    80.00 Ry     beta=0.70
     Davidson diagonalization with overlap
     ethr =  5.05E-03,  avg # of iterations =  2.5

     negative rho (up, down):  4.963E+00 0.000E+00

     total cpu time spent up to now is     6028.6 secs

     total energy              =  -12719.34285266 Ry
     Harris-Foulkes estimate   =  -12725.65496360 Ry
     estimated scf accuracy    <      60.69191319 Ry

     iteration # 15     ecut=    80.00 Ry     beta=0.70
     Davidson diagonalization with overlap
     ethr =  4.69E-03,  avg # of iterations =  1.3

     negative rho (up, down):  4.615E+00 0.000E+00

     total cpu time spent up to now is     6201.2 secs

     total energy              =  -12718.10809093 Ry
     Harris-Foulkes estimate   =  -12721.46527990 Ry
     estimated scf accuracy    <      27.19264574 Ry

     iteration # 16     ecut=    80.00 Ry     beta=0.70
     Davidson diagonalization with overlap
     ethr =  2.10E-03,  avg # of iterations =  3.2

     negative rho (up, down):  5.479E+00 0.000E+00

     total cpu time spent up to now is     6395.9 secs

     total energy              =  -12716.70819915 Ry
     Harris-Foulkes estimate   =  -12719.24447041 Ry
     estimated scf accuracy    <      17.87050808 Ry

     iteration # 17     ecut=    80.00 Ry     beta=0.70
     Davidson diagonalization with overlap
     ethr =  1.38E-03,  avg # of iterations =  7.7

     negative rho (up, down):  5.030E+00 0.000E+00

     total cpu time spent up to now is     6641.1 secs

     total energy              =  -12715.62317450 Ry
     Harris-Foulkes estimate   =  -12717.31395294 Ry
     estimated scf accuracy    <      12.78664965 Ry

     iteration # 18     ecut=    80.00 Ry     beta=0.70
     Davidson diagonalization with overlap
     ethr =  9.88E-04,  avg # of iterations =  5.8

     negative rho (up, down):  4.636E+00 0.000E+00

     total cpu time spent up to now is     6865.9 secs

     total energy              =  -12714.69994426 Ry
     Harris-Foulkes estimate   =  -12716.18962835 Ry
     estimated scf accuracy    <      10.37220164 Ry

     iteration # 19     ecut=    80.00 Ry     beta=0.70
     Davidson diagonalization with overlap
     ethr =  8.02E-04,  avg # of iterations =  7.5

     negative rho (up, down):  3.530E+00 0.000E+00

     total cpu time spent up to now is     7111.9 secs

     total energy              =  -12713.87495707 Ry
     Harris-Foulkes estimate   =  -12715.03913358 Ry
     estimated scf accuracy    <       7.74393565 Ry

     iteration # 20     ecut=    80.00 Ry     beta=0.70
     Davidson diagonalization with overlap
     ethr =  5.98E-04,  avg # of iterations =  4.8

     negative rho (up, down):  2.491E+00 0.000E+00

     total cpu time spent up to now is     7324.7 secs

     total energy              =  -12713.38920742 Ry
     Harris-Foulkes estimate   =  -12714.28027465 Ry
     estimated scf accuracy    <       7.72814179 Ry

     iteration # 21     ecut=    80.00 Ry     beta=0.70
     Davidson diagonalization with overlap
     ethr =  5.97E-04,  avg # of iterations =  1.0

     negative rho (up, down):  1.657E+00 0.000E+00

     total cpu time spent up to now is     7493.5 secs

     total energy              =  -12712.26633223 Ry
     Harris-Foulkes estimate   =  -12713.48907886 Ry
     estimated scf accuracy    <       6.94103319 Ry

     iteration # 22     ecut=    80.00 Ry     beta=0.70
     Davidson diagonalization with overlap
     ethr =  5.36E-04,  avg # of iterations =  4.0

     negative rho (up, down):  8.205E-01 0.000E+00

     total cpu time spent up to now is     7697.0 secs

     total energy              =  -12710.96549324 Ry
     Harris-Foulkes estimate   =  -12712.53389789 Ry
     estimated scf accuracy    <      14.09353076 Ry

     iteration # 23     ecut=    80.00 Ry     beta=0.70
     Davidson diagonalization with overlap
     ethr =  5.36E-04,  avg # of iterations =  3.7

     negative rho (up, down):  1.191E+00 0.000E+00

     total cpu time spent up to now is     7897.1 secs

     total energy              =  -12711.30408988 Ry
     Harris-Foulkes estimate   =  -12711.42976752 Ry
     estimated scf accuracy    <      28.85091381 Ry

     iteration # 24     ecut=    80.00 Ry     beta=0.70
     Davidson diagonalization with overlap
     ethr =  5.36E-04,  avg # of iterations =  8.3

     negative rho (up, down):  8.038E-02 0.000E+00

     total cpu time spent up to now is     8160.0 secs

     total energy              =  -12711.17984593 Ry
     Harris-Foulkes estimate   =  -12713.00604192 Ry
     estimated scf accuracy    <       5.89663077 Ry

     iteration # 25     ecut=    80.00 Ry     beta=0.70
     Davidson diagonalization with overlap
     ethr =  4.56E-04,  avg # of iterations =  8.0

     negative rho (up, down):  2.035E-02 0.000E+00

     total cpu time spent up to now is     8406.5 secs

     total energy              =  -12711.30306533 Ry
     Harris-Foulkes estimate   =  -12711.30027017 Ry
     estimated scf accuracy    <       6.40206180 Ry

     iteration # 26     ecut=    80.00 Ry     beta=0.70
     Davidson diagonalization with overlap
     ethr =  4.56E-04,  avg # of iterations =  2.0

     negative rho (up, down):  9.569E-03 0.000E+00

     total cpu time spent up to now is     8585.4 secs

     total energy              =  -12710.84541823 Ry
     Harris-Foulkes estimate   =  -12711.39407620 Ry
     estimated scf accuracy    <       5.73682076 Ry

     iteration # 27     ecut=    80.00 Ry     beta=0.70
     Davidson diagonalization with overlap
     ethr =  4.43E-04,  avg # of iterations =  1.3

     total cpu time spent up to now is     8757.2 secs

     total energy              =  -12710.51453432 Ry
     Harris-Foulkes estimate   =  -12710.91088201 Ry
     estimated scf accuracy    <       3.88539992 Ry

     iteration # 28     ecut=    80.00 Ry     beta=0.70
     Davidson diagonalization with overlap
     ethr =  3.00E-04,  avg # of iterations =  2.3

     total cpu time spent up to now is     8940.6 secs

     total energy              =  -12710.11283482 Ry
     Harris-Foulkes estimate   =  -12710.56973970 Ry
     estimated scf accuracy    <       3.15159660 Ry

     iteration # 29     ecut=    80.00 Ry     beta=0.70
     Davidson diagonalization with overlap
     ethr =  2.44E-04,  avg # of iterations =  3.7

     negative rho (up, down):  2.720E-01 0.000E+00

     total cpu time spent up to now is     9139.5 secs

     total energy              =  -12709.32151881 Ry
     Harris-Foulkes estimate   =  -12710.16107798 Ry
     estimated scf accuracy    <       2.24972383 Ry

     iteration # 30     ecut=    80.00 Ry     beta=0.70
     Davidson diagonalization with overlap
     ethr =  1.74E-04,  avg # of iterations =  6.3

     negative rho (up, down):  1.348E-01 0.000E+00

     total cpu time spent up to now is     9399.6 secs

     total energy              =  -12709.29460053 Ry
     Harris-Foulkes estimate   =  -12709.47861640 Ry
     estimated scf accuracy    <       1.03300658 Ry

     iteration # 31     ecut=    80.00 Ry     beta=0.70
     Davidson diagonalization with overlap
     ethr =  7.98E-05,  avg # of iterations =  6.5

     negative rho (up, down):  1.788E-01 0.000E+00

     total cpu time spent up to now is     9644.9 secs

     total energy              =  -12709.30139732 Ry
     Harris-Foulkes estimate   =  -12709.34739437 Ry
     estimated scf accuracy    <       0.45747247 Ry

     iteration # 32     ecut=    80.00 Ry     beta=0.70
     Davidson diagonalization with overlap
     ethr =  3.54E-05,  avg # of iterations =  8.0

     negative rho (up, down):  3.778E-02 0.000E+00

     total cpu time spent up to now is     9910.2 secs

     total energy              =  -12709.29972286 Ry
     Harris-Foulkes estimate   =  -12709.33483894 Ry
     estimated scf accuracy    <       0.20083888 Ry

     iteration # 33     ecut=    80.00 Ry     beta=0.70
     Davidson diagonalization with overlap
     c_bands:  2 eigenvalues not converged
     ethr =  1.55E-05,  avg # of iterations = 12.5

     negative rho (up, down):  5.472E-02 0.000E+00

     total cpu time spent up to now is    10233.4 secs

     total energy              =  -12709.31396320 Ry
     Harris-Foulkes estimate   =  -12709.32054581 Ry
     estimated scf accuracy    <       0.04277538 Ry

     iteration # 34     ecut=    80.00 Ry     beta=0.70
     Davidson diagonalization with overlap
     ethr =  3.31E-06,  avg # of iterations =  8.5

     negative rho (up, down):  4.380E-02 0.000E+00

     total cpu time spent up to now is    10516.5 secs

     total energy              =  -12709.31701792 Ry
     Harris-Foulkes estimate   =  -12709.31853204 Ry
     estimated scf accuracy    <       0.01467126 Ry

     iteration # 35     ecut=    80.00 Ry     beta=0.70
     Davidson diagonalization with overlap
     ethr =  1.13E-06,  avg # of iterations =  9.5

     negative rho (up, down):  2.938E-02 0.000E+00

     total cpu time spent up to now is    10814.4 secs

     total energy              =  -12709.31688362 Ry
     Harris-Foulkes estimate   =  -12709.31821225 Ry
     estimated scf accuracy    <       0.00491639 Ry

     iteration # 36     ecut=    80.00 Ry     beta=0.70
     Davidson diagonalization with overlap
     ethr =  3.80E-07,  avg # of iterations = 11.5

     negative rho (up, down):  2.127E-02 0.000E+00

     total cpu time spent up to now is    11144.4 secs

     total energy              =  -12709.31712172 Ry
     Harris-Foulkes estimate   =  -12709.31784479 Ry
     estimated scf accuracy    <       0.00374890 Ry

     iteration # 37     ecut=    80.00 Ry     beta=0.70
     Davidson diagonalization with overlap
     ethr =  2.90E-07,  avg # of iterations =  9.5

     negative rho (up, down):  2.193E-02 0.000E+00

     total cpu time spent up to now is    11423.4 secs

     total energy              =  -12709.31748716 Ry
     Harris-Foulkes estimate   =  -12709.31746810 Ry
     estimated scf accuracy    <       0.00095171 Ry

     iteration # 38     ecut=    80.00 Ry     beta=0.70
     Davidson diagonalization with overlap
     ethr =  7.35E-08,  avg # of iterations =  6.5

     negative rho (up, down):  1.625E-02 0.000E+00

     total cpu time spent up to now is    11670.5 secs

     total energy              =  -12709.31749377 Ry
     Harris-Foulkes estimate   =  -12709.31755662 Ry
     estimated scf accuracy    <       0.00022488 Ry

     iteration # 39     ecut=    80.00 Ry     beta=0.70
     Davidson diagonalization with overlap
     ethr =  1.74E-08,  avg # of iterations =  8.7

     negative rho (up, down):  4.437E-03 0.000E+00

     total cpu time spent up to now is    11936.6 secs

     total energy              =  -12709.31731820 Ry
     Harris-Foulkes estimate   =  -12709.31750913 Ry
     estimated scf accuracy    <       0.00006857 Ry

     iteration # 40     ecut=    80.00 Ry     beta=0.70
     Davidson diagonalization with overlap
     c_bands:  1 eigenvalues not converged
     ethr =  5.30E-09,  avg # of iterations = 11.8

     negative rho (up, down):  4.269E-03 0.000E+00

     total cpu time spent up to now is    12266.8 secs

     total energy              =  -12709.31732152 Ry
     Harris-Foulkes estimate   =  -12709.31732636 Ry
     estimated scf accuracy    <       0.00002943 Ry

     iteration # 41     ecut=    80.00 Ry     beta=0.70
     Davidson diagonalization with overlap
     ethr =  2.27E-09,  avg # of iterations =  2.7

     negative rho (up, down):  2.715E-03 0.000E+00

     total cpu time spent up to now is    12460.3 secs

     total energy              =  -12709.31730345 Ry
     Harris-Foulkes estimate   =  -12709.31732407 Ry
     estimated scf accuracy    <       0.00001035 Ry

     iteration # 42     ecut=    80.00 Ry     beta=0.70
     Davidson diagonalization with overlap
     ethr =  8.00E-10,  avg # of iterations =  4.2

     negative rho (up, down):  1.876E-03 0.000E+00

     total cpu time spent up to now is    12675.9 secs

     total energy              =  -12709.31730027 Ry
     Harris-Foulkes estimate   =  -12709.31730428 Ry
     estimated scf accuracy    <       0.00000368 Ry

     iteration # 43     ecut=    80.00 Ry     beta=0.70
     Davidson diagonalization with overlap
     ethr =  2.84E-10,  avg # of iterations =  4.2

     negative rho (up, down):  1.781E-03 0.000E+00

     total cpu time spent up to now is    12887.5 secs

     total energy              =  -12709.31730086 Ry
     Harris-Foulkes estimate   =  -12709.31730050 Ry
     estimated scf accuracy    <       0.00000190 Ry

     iteration # 44     ecut=    80.00 Ry     beta=0.70
     Davidson diagonalization with overlap
     ethr =  1.47E-10,  avg # of iterations =  2.8

     negative rho (up, down):  1.905E-03 0.000E+00

     total cpu time spent up to now is    13083.6 secs

     total energy              =  -12709.31730095 Ry
     Harris-Foulkes estimate   =  -12709.31730098 Ry
     estimated scf accuracy    <       0.00000075 Ry

     iteration # 45     ecut=    80.00 Ry     beta=0.70
     Davidson diagonalization with overlap
     ethr =  5.79E-11,  avg # of iterations =  3.5

     negative rho (up, down):  1.974E-03 0.000E+00

     total cpu time spent up to now is    13290.9 secs

     total energy              =  -12709.31730090 Ry
     Harris-Foulkes estimate   =  -12709.31730102 Ry
     estimated scf accuracy    <       0.00000010 Ry

     iteration # 46     ecut=    80.00 Ry     beta=0.70
     Davidson diagonalization with overlap
     ethr =  7.58E-12,  avg # of iterations =  3.0

     negative rho (up, down):  1.997E-03 0.000E+00

     total cpu time spent up to now is    13503.3 secs

     total energy              =  -12709.31730086 Ry
     Harris-Foulkes estimate   =  -12709.31730091 Ry
     estimated scf accuracy    <       0.00000003 Ry

     iteration # 47     ecut=    80.00 Ry     beta=0.70
     Davidson diagonalization with overlap
     ethr =  2.56E-12,  avg # of iterations =  2.5

     negative rho (up, down):  1.989E-03 0.000E+00

     total cpu time spent up to now is    13688.4 secs

     End of self-consistent calculation

          k = 0.0000 0.0000 0.0000 (256287 PWs)   bands (ev):

   -17.5572 -16.1569 -16.0006 -15.4703 -14.9553 -14.7460 -14.6422 -14.1700
   -14.1129 -14.0439 -14.0310 -13.4593 -13.2237 -13.0847 -13.0366 -12.9890
   -12.9802 -11.7145 -11.4694 -11.4092 -11.2928 -11.1240 -10.3554  -9.8341
    -9.7699  -9.5473  -9.4309  -8.8875  -8.8128  -8.5796  -8.5047  -8.0386
    -7.9369  -7.7963  -7.6366  -7.5182  -7.4703  -7.4401  -7.4300  -7.3167
    -6.3438  -6.2603  -6.1192  -5.9191  -5.8865  -5.8643  -5.8046  -5.7830
    -5.7211  -5.3574  -5.3505  -4.9962  -4.8348  -4.7834  -4.7508  -4.5481
    -4.4669  -4.4339  -4.3137  -4.1401  -4.0326  -3.9400  -3.8623  -3.8588
    -3.7916  -3.7163  -3.5481  -3.4641  -3.4285  -3.3302  -3.3084  -3.2760
    -3.2709  -3.1148  -3.0935  -3.0412  -2.9993  -2.9267  -2.8787  -2.8768
    -2.8729  -2.8718  -2.7676  -2.7423  -2.7006  -2.6719  -2.6218  -2.6126
    -2.6033  -2.5738  -2.5205  -2.4682  -2.2826  -2.2755  -2.2171  -2.2156
    -2.1472  -2.1262  -2.1058  -2.0616  -2.0604  -2.0219  -2.0215  -2.0210
    -2.0201  -1.9922  -1.9826  -1.9246  -1.8939  -1.8929  -1.8881  -1.8876
    -1.8288  -1.7840  -1.7160  -1.7046  -1.6464  -1.6127  -1.6084  -1.6083
    -1.6055  -1.5560  -1.5467  -1.5421  -1.5288  -1.5233  -1.4952  -1.4676
    -1.4602  -1.4415  -1.4346  -1.4331  -1.4276  -1.4058  -1.4027  -1.3859
    -1.3845  -1.3830  -1.3585  -1.3082  -1.3035  -1.2920  -1.2856  -1.2629
    -1.2391  -1.2226  -1.2164  -1.1905  -1.1687  -1.1340  -1.1328  -1.1201
    -1.0824  -1.0798  -1.0620  -1.0587  -1.0467  -1.0415  -1.0355  -1.0331
    -0.9993  -0.9875  -0.9320  -0.9211  -0.9157  -0.9143  -0.9072  -0.8948
    -0.8934  -0.8924  -0.8917  -0.8889  -0.8874  -0.8849  -0.8798  -0.8713
    -0.8686  -0.8444  -0.8223  -0.8113  -0.8031  -0.7989  -0.7904  -0.7892
    -0.7865  -0.7717  -0.7309  -0.7299  -0.7271  -0.7263  -0.7256  -0.7252
    -0.7246  -0.7223  -0.7210  -0.7192  -0.7183  -0.7170  -0.7150  -0.7138
    -0.7115  -0.7107  -0.6986  -0.6979  -0.6751  -0.6548  -0.5920  -0.5608
    -0.5596  -0.5530  -0.5527  -0.5332  -0.5314  -0.5123  -0.5116  -0.4945
    -0.4901  -0.4856  -0.4803  -0.4696  -0.4684  -0.4591  -0.4371  -0.4354
    -0.4303  -0.4297  -0.4248  -0.4243  -0.4139  -0.4129  -0.4028  -0.3636
    -0.3621  -0.3093  -0.3091  -0.3007  -0.2989  -0.2950  -0.2936  -0.2834
    -0.2805  -0.2767  -0.2753  -0.2741  -0.2731  -0.2708  -0.2696  -0.2635
    -0.2553  -0.2550  -0.2492  -0.2468  -0.2263  -0.2210  -0.2207  -0.1733
    -0.1699  -0.1673  -0.1616  -0.1615  -0.1371  -0.1370  -0.1354  -0.1326
    -0.1295  -0.1197  -0.1157  -0.1122  -0.1120  -0.1041  -0.0926  -0.0915
    -0.0877  -0.0872  -0.0850  -0.0839  -0.0822  -0.0815  -0.0800  -0.0783
    -0.0619  -0.0609  -0.0579  -0.0567  -0.0360  -0.0171   0.0041   0.0092
     0.0104   0.0117   0.0124   0.0368   0.0499   0.0546   0.0604   0.0610
     0.0622   0.0666   0.0673   0.0682   0.0701   0.0730   0.0846   0.1087
     0.1164   0.1206   0.1243   0.1264   0.1300   0.1477   0.1480   0.1523
     0.1530   0.1602   0.1635   0.1724   0.1750   0.1758   0.1768   0.1821
     0.1835   0.1922   0.1923   0.1938   0.1941   0.2027   0.2042   0.2131
     0.2204   0.2331   0.2357   0.2649   0.2655   0.2913   0.2927   0.3017
     0.3157   0.3279   0.3340   0.3609   0.3618   0.3624   0.3742   0.3751
     0.3772   0.3975   0.3992   0.4013   0.4022   0.4047   0.4081   0.4107
     0.4132   0.4587   0.4693   0.4706   0.4744   0.4769   0.4790   0.4815
     0.5049   0.5064   0.5118   0.5130   0.5144   0.5206   0.5431   0.5454
     0.5478   0.5565   0.5619   0.5689   0.5702   0.5725   0.5919   0.6086
     0.6146   0.6220   0.6238   0.6269   0.6305   0.6309   0.6377   0.6498
     0.6564   0.6575   0.6616   0.6636   0.6638   0.6663   0.6679   0.6718
     0.6743   0.6787   0.6836   0.6851   0.6882   0.6908   0.6950   0.6963
     0.7268   0.7325   0.7346   0.7348   0.7532   0.7723   0.7752   0.7768
     0.7793   0.7827   0.7838   0.7844   0.7849   0.7878   0.7932   0.7992
     0.8044   0.8066   0.8092   0.8114   0.8164   0.8167   0.8200   0.8271
     0.8302   0.8478   0.8493   0.8524   0.8554   0.8590   0.8616   0.8661
     0.8708   0.8774   0.8775   0.8776   0.8825   0.8840   0.8847   0.8881
     0.8921   0.8964   0.9345   0.9353   0.9460   0.9489   0.9502   0.9510
     0.9540   0.9550   0.9808   0.9846   0.9912   0.9988   1.0055   1.0060
     1.0072   1.0189   1.0193   1.0283   1.0286   1.0303   1.0320   1.0385
     1.0485   1.0659   1.0679   1.0691   1.0695   1.0722   1.0738   1.0881
     1.0948   1.0997   1.1070   1.1146   1.1153   1.1274   1.1311   1.1344
     1.1395   1.1406   1.1421   1.1425   1.1442   1.1501   1.1523   1.1553
     1.1566   1.1581   1.1587   1.1730   1.1733   1.1823   1.1896   1.1909
     1.1942   1.1966   1.2034   1.2084   1.2288   1.2320   1.2339   1.2375
     1.2395   1.2428   1.2438   1.2463   1.2476   1.2483   1.2486   1.2498
     1.2519   1.2632   1.2650   1.2663   1.2834   1.3030   1.3134   1.3152
     1.3272   1.3289   1.3315   1.3325   1.3347   1.3373   1.3383   1.3472
     1.3515   1.3607   1.3646   1.3680   1.3689   1.3698   1.3718   1.3724
     1.3752   1.3843   1.3983   1.4004   1.4011   1.4017   1.4033   1.4065
     1.4073   1.4091   1.4108   1.4219   1.4232   1.4237   1.4288   1.4353
     1.4390   1.4394   1.4403   1.4413   1.4480   1.4502   1.4549   1.4617
     1.4728   1.4814   1.4820   1.4823   1.4853   1.4879   1.4909   1.5021
     1.5111   1.5160   1.5189   1.5200   1.5253   1.5331   1.5411   1.5428
     1.5463   1.5525   1.5533   1.5585   1.5603   1.5629   1.5632   1.5637
     1.5650   1.5660   1.5684   1.5776   1.5789   1.5795   1.5920   1.5938
     1.5953   1.5962   1.5981   1.6000   1.6087   1.6119   1.6223   1.6401
     1.6415   1.6499   1.6825   1.6851   1.6900   1.6934   1.7049   1.7076
     1.7101   1.7121   1.7201   1.7347   1.7362   1.7569   1.7626   1.7632
     1.7636   1.7723   1.7726   1.7731   1.7742   2.0240   2.0850   2.2144
     2.2412   2.2637   2.2989   2.3193   2.3362   2.3372   2.3383   2.3465
     2.3540   2.3568   2.3685   2.4765   2.5375   2.5557   2.5983   2.6040
     2.6058   2.6071   2.6149   2.6700   2.8531   2.8554   2.8609   2.8760
     3.0680   3.1012   3.3177   3.5451   3.6561   3.6624   3.9209   3.9526
     3.9737   3.9837   3.9881   3.9941   4.0448   4.0614   4.0941   4.1338
     4.1373   4.1398   4.1413   4.1451   4.1524   4.1535   4.2873   4.3812
     4.3970   4.3998   4.4575   4.6323   4.6644   4.8979   4.9141   4.9607
     5.4095   5.4359   5.4593   5.5769   5.6266   5.7286   5.8438   5.8572
     5.8775   5.8960   6.0628   6.0668   6.3381   6.4232   6.4984   6.5244
     6.5425   6.5964   6.6026   6.6277   6.6460   6.6677   6.6802   6.7365
     6.8118   6.8651   6.8865   6.9013   6.9217   7.1193   7.1478   7.1793
     7.1975   7.2237   7.2350   7.4684   7.4890   7.5207   7.6376   7.6649
     7.7651   7.8017   7.8175   7.8375   7.8384   7.8446   8.0158   8.2139
     8.2516   8.2984   8.3153   8.3507   8.4086   8.4555   8.4646   8.4684
     8.4771   8.5154   8.5334   8.5518   8.5608   8.6234   8.6597   8.7079
     8.7941   8.7961   8.8003   8.8122   8.8382   8.8451   8.9270   8.9673
     8.9699   8.9774   8.9881   9.0465   9.0923   9.1793   9.2154   9.2451
     9.2524   9.2557   9.3026   9.3330   9.3701   9.3993   9.4290   9.4808
     9.4839   9.5252   9.5536   9.5751   9.7075   9.7125   9.9606  10.0470

          k = 0.0000-0.2165 0.0000 (256176 PWs)   bands (ev):

   -17.5571 -16.2057 -15.8779 -15.5662 -15.1122 -14.6370 -14.2704 -14.2430
   -14.1976 -14.1265 -13.7657 -13.7023 -13.6149 -13.5929 -12.6315 -12.3520
   -12.3016 -12.2164 -12.0739 -11.9799 -10.7448 -10.5303 -10.4401 -10.2996
    -9.5736  -9.3926  -9.2419  -9.0048  -8.9006  -8.8511  -8.3199  -8.3029
    -8.1213  -8.0766  -7.7587  -7.3595  -7.2322  -7.0093  -6.8354  -6.8144
    -6.7818  -6.7640  -6.7181  -6.1614  -5.9592  -5.7567  -5.7492  -5.5102
    -5.4247  -5.1423  -5.0486  -4.9251  -4.8342  -4.8199  -4.7203  -4.7060
    -4.6789  -4.5992  -4.5117  -4.3585  -4.3194  -4.1083  -3.9299  -3.7637
    -3.7195  -3.6512  -3.4571  -3.3123  -3.1867  -3.1754  -3.1729  -3.1623
    -3.1581  -3.1322  -3.0306  -2.9679  -2.9284  -2.9150  -2.8995  -2.8971
    -2.7959  -2.7706  -2.7576  -2.7296  -2.6929  -2.6537  -2.6417  -2.5129
    -2.4852  -2.4765  -2.4531  -2.4490  -2.4477  -2.4454  -2.4220  -2.3968
    -2.2394  -2.2138  -2.1397  -2.1338  -2.1147  -2.1110  -2.0555  -2.0367
    -2.0191  -2.0164  -1.9980  -1.9885  -1.8763  -1.8562  -1.8560  -1.8331
    -1.8302  -1.8249  -1.7329  -1.7319  -1.6972  -1.6752  -1.6382  -1.6362
    -1.6209  -1.6189  -1.6106  -1.6104  -1.5949  -1.5888  -1.5631  -1.5349
    -1.5180  -1.5111  -1.4943  -1.4502  -1.4343  -1.3454  -1.3415  -1.3312
    -1.3306  -1.2795  -1.2638  -1.2533  -1.2420  -1.2403  -1.2113  -1.1877
    -1.1849  -1.1613  -1.1488  -1.1460  -1.1457  -1.1430  -1.1381  -1.1380
    -1.1129  -1.1049  -1.0973  -1.0940  -1.0910  -1.0883  -1.0794  -1.0568
    -1.0224  -1.0178  -1.0051  -1.0043  -0.9603  -0.9578  -0.9565  -0.9207
    -0.9200  -0.9173  -0.9165  -0.8811  -0.8764  -0.8578  -0.8562  -0.8528
    -0.8503  -0.8482  -0.8470  -0.8296  -0.7993  -0.7958  -0.7894  -0.7892
    -0.7816  -0.7801  -0.7672  -0.7644  -0.7640  -0.7620  -0.7025  -0.6964
    -0.6932  -0.6899  -0.6878  -0.6827  -0.6751  -0.6697  -0.6668  -0.6646
    -0.6508  -0.6479  -0.6256  -0.6245  -0.6195  -0.6144  -0.5381  -0.5294
    -0.5288  -0.5187  -0.5183  -0.5027  -0.5025  -0.4776  -0.4761  -0.4746
    -0.4735  -0.4707  -0.4706  -0.4494  -0.4452  -0.4144  -0.4137  -0.4116
    -0.4109  -0.4089  -0.4078  -0.4058  -0.4051  -0.4029  -0.3756  -0.3739
    -0.3583  -0.3540  -0.3540  -0.3493  -0.3233  -0.3196  -0.3178  -0.3167
    -0.3129  -0.3103  -0.3082  -0.3001  -0.2988  -0.2805  -0.2338  -0.2337
    -0.2208  -0.2206  -0.1998  -0.1952  -0.1931  -0.1749  -0.1739  -0.1699
    -0.1686  -0.1661  -0.1628  -0.1476  -0.1438  -0.1414  -0.1392  -0.1370
    -0.1345  -0.1319  -0.1235  -0.1207  -0.1150  -0.1146  -0.1140  -0.1127
    -0.1085  -0.1024  -0.0978  -0.0779  -0.0777  -0.0738  -0.0736  -0.0352
    -0.0237  -0.0132  -0.0117  -0.0106  -0.0085  -0.0055  -0.0027  -0.0011
     0.0026   0.0040   0.0179   0.0325   0.0332   0.0394   0.0405   0.0463
     0.0494   0.0508   0.0533   0.0541   0.0560   0.0580   0.0697   0.0937
     0.1099   0.1115   0.1135   0.1138   0.1316   0.1339   0.1349   0.1362
     0.1371   0.1470   0.1547   0.1555   0.1567   0.1632   0.1652   0.1741
     0.1882   0.1892   0.2047   0.2047   0.2060   0.2067   0.2225   0.2251
     0.2401   0.2407   0.2476   0.2501   0.2548   0.2605   0.2636   0.2641
     0.2705   0.3035   0.3043   0.3173   0.3175   0.3214   0.3303   0.3318
     0.3327   0.3553   0.3579   0.3896   0.3943   0.3957   0.3986   0.4206
     0.4414   0.4425   0.4908   0.5088   0.5095   0.5123   0.5208   0.5234
     0.5365   0.5387   0.5403   0.5405   0.5618   0.5716   0.5737   0.5781
     0.5790   0.5809   0.5834   0.5844   0.5879   0.5911   0.5994   0.6020
     0.6063   0.6070   0.6074   0.6111   0.6148   0.6194   0.6217   0.6430
     0.6458   0.6544   0.6552   0.6568   0.6575   0.6650   0.6651   0.6692
     0.6837   0.6851   0.6866   0.6872   0.6876   0.6885   0.6893   0.6907
     0.7048   0.7067   0.7070   0.7102   0.7138   0.7178   0.7202   0.7230
     0.7252   0.7341   0.7393   0.7738   0.7753   0.7857   0.7859   0.7937
     0.7950   0.7961   0.7976   0.7993   0.8027   0.8050   0.8099   0.8111
     0.8113   0.8125   0.8175   0.8481   0.8524   0.8545   0.8549   0.8585
     0.8705   0.8706   0.8718   0.8720   0.8773   0.8868   0.8925   0.9026
     0.9034   0.9067   0.9105   0.9121   0.9150   0.9630   0.9636   1.0084
     1.0160   1.0171   1.0183   1.0223   1.0226   1.0289   1.0332   1.0375
     1.0389   1.0431   1.0443   1.0458   1.0514   1.0524   1.0546   1.0591
     1.0636   1.0692   1.0695   1.0712   1.0721   1.0778   1.0855   1.0902
     1.0943   1.0953   1.0957   1.0963   1.0989   1.0995   1.1014   1.1057
     1.1165   1.1183   1.1190   1.1200   1.1225   1.1228   1.1253   1.1390
     1.1404   1.1426   1.1520   1.1538   1.1570   1.1591   1.1611   1.1668
     1.1671   1.1677   1.1680   1.1691   1.1728   1.2087   1.2188   1.2340
     1.2562   1.2574   1.2588   1.2686   1.2743   1.2761   1.2776   1.2778
     1.2949   1.2990   1.3001   1.3077   1.3145   1.3174   1.3191   1.3207
     1.3226   1.3269   1.3289   1.3296   1.3302   1.3305   1.3313   1.3316
     1.3339   1.3385   1.3402   1.3460   1.3528   1.3578   1.3613   1.3614
     1.3646   1.3672   1.3695   1.3915   1.3963   1.3974   1.3999   1.4039
     1.4045   1.4062   1.4077   1.4186   1.4264   1.4273   1.4290   1.4390
     1.4395   1.4398   1.4418   1.4430   1.4459   1.4570   1.4587   1.4615
     1.4622   1.4768   1.4780   1.4800   1.4840   1.4990   1.5025   1.5072
     1.5080   1.5087   1.5107   1.5195   1.5224   1.5247   1.5251   1.5392
     1.5401   1.5509   1.5544   1.5548   1.5558   1.5706   1.5739   1.5751
     1.5773   1.5796   1.5796   1.5807   1.5814   1.5916   1.6064   1.6089
     1.6167   1.6169   1.6214   1.6316   1.6392   1.6467   1.6473   1.6484
     1.6507   1.6531   1.6642   1.6658   1.6757   1.6855   1.7186   1.7188
     1.7199   1.7355   1.8222   1.8266   1.8508   1.8524   1.8543   1.8557
     1.8774   1.9019   1.9164   1.9188   1.9197   1.9291   1.9419   1.9436
     1.9465   1.9789   1.9808   1.9838   2.1715   2.2100   2.5313   2.5392
     2.5551   2.5558   2.5995   2.6252   2.6294   2.6912   2.6977   2.7015
     2.7048   2.7126   2.7367   2.8368   2.8399   2.8895   2.8984   2.9115
     2.9156   3.0522   3.0533   3.2791   3.2985   3.2985   3.3387   3.4161
     3.5584   3.6207   3.8003   3.8101   3.9732   4.0380   4.2044   4.2200
     4.2323   4.2551   4.4361   4.4588   4.4654   4.4688   4.4959   4.6250
     4.6386   4.7592   4.8452   4.9021   4.9174   5.1186   5.1823   5.2249
     5.2321   5.3370   5.4826   5.4874   5.4900   5.4938   5.5089   5.5456
     5.7510   5.7873   5.8060   5.8414   5.9848   6.4881   6.5114   6.5383
     6.5668   6.5864   6.5898   6.6235   6.6714   6.6947   6.7940   6.8004
     6.9089   6.9430   7.0228   7.1555   7.1694   7.1914   7.2004   7.2197
     7.2301   7.2540   7.2712   7.2760   7.3408   7.4481   7.4760   7.4848
     7.5420   7.5751   7.6392   7.6496   7.7317   7.8186   7.8888   8.0273
     8.2693   8.2726   8.3432   8.3562   8.3929   8.4347   8.4534   8.4780
     8.4888   8.4961   8.5679   8.5905   8.5952   8.7442   8.7863   8.8080
     8.8353   8.8440   8.8544   8.8716   8.8891   8.9005   9.0211   9.0660
     9.1067   9.1195   9.1489   9.1623   9.2269   9.2747   9.2851   9.3102
     9.3574   9.4621   9.4795   9.4881   9.5059   9.5217   9.5351   9.5440
     9.6018   9.6056   9.6483   9.6671   9.6899   9.8075   9.8146   9.9182

          k = 0.2500 0.0000 0.0000 (256240 PWs)   bands (ev):

   -17.5253 -16.0548 -15.8788 -15.6336 -15.0811 -14.9166 -14.8728 -14.7938
   -14.1176 -13.8844 -13.7154 -13.1925 -13.0787 -12.9996 -12.9575 -12.3392
   -12.1539 -12.0569 -11.9960 -11.2877 -11.0983 -10.7279 -10.5676 -10.2920
   -10.1545  -9.8510  -9.8215  -9.4470  -9.1986  -9.0647  -8.6991  -8.1341
    -7.9630  -7.7217  -7.5315  -7.4296  -7.3545  -7.2804  -6.9997  -6.8535
    -6.2469  -6.1489  -5.9844  -5.9070  -5.8098  -5.7077  -5.4393  -5.2180
    -5.1828  -5.1778  -5.0268  -4.8068  -4.7292  -4.5847  -4.4675  -4.3963
    -4.3371  -4.3106  -4.2966  -4.2407  -4.1399  -3.9621  -3.9000  -3.8729
    -3.8635  -3.8045  -3.7307  -3.7138  -3.7044  -3.6259  -3.5291  -3.5075
    -3.4877  -3.4704  -3.4247  -3.2995  -3.2816  -3.1826  -3.1350  -3.1131
    -3.0608  -2.9502  -2.9098  -2.8593  -2.7713  -2.6711  -2.6684  -2.6615
    -2.6109  -2.5735  -2.4967  -2.4862  -2.4151  -2.3535  -2.3038  -2.2666
    -2.2074  -2.1688  -1.9801  -1.9692  -1.9673  -1.9515  -1.9504  -1.8838
    -1.8711  -1.8576  -1.7740  -1.7619  -1.7332  -1.7057  -1.6802  -1.6714
    -1.6708  -1.6635  -1.6627  -1.6433  -1.6283  -1.6153  -1.6008  -1.5871
    -1.5813  -1.5656  -1.5201  -1.5117  -1.4741  -1.4625  -1.4535  -1.4512
    -1.4490  -1.4483  -1.4463  -1.4052  -1.3926  -1.3736  -1.3716  -1.3640
    -1.3604  -1.3393  -1.2427  -1.2114  -1.2028  -1.1894  -1.1824  -1.1643
    -1.1436  -1.1331  -1.1150  -1.1128  -1.1079  -1.1011  -1.0926  -1.0838
    -1.0783  -1.0602  -1.0550  -1.0517  -1.0473  -1.0412  -1.0271  -1.0074
    -1.0058  -1.0031  -0.9972  -0.9933  -0.9827  -0.9809  -0.9708  -0.9480
    -0.9441  -0.9334  -0.9227  -0.9208  -0.9146  -0.9040  -0.8898  -0.8860
    -0.8823  -0.8789  -0.8727  -0.8650  -0.8609  -0.8530  -0.8522  -0.8498
    -0.8485  -0.8461  -0.8448  -0.8354  -0.8334  -0.8189  -0.8158  -0.8120
    -0.7939  -0.7752  -0.7712  -0.7666  -0.7251  -0.7215  -0.7052  -0.6857
    -0.6845  -0.6658  -0.6642  -0.6577  -0.6412  -0.6408  -0.6263  -0.6253
    -0.6239  -0.6183  -0.6145  -0.6084  -0.5935  -0.4949  -0.4744  -0.4723
    -0.4716  -0.4504  -0.4393  -0.4382  -0.4354  -0.4222  -0.4202  -0.4201
    -0.4187  -0.4109  -0.3999  -0.3982  -0.3968  -0.3927  -0.3887  -0.3663
    -0.3571  -0.3565  -0.3545  -0.3528  -0.3505  -0.3311  -0.3307  -0.3283
    -0.3133  -0.2734  -0.2701  -0.2695  -0.2679  -0.2628  -0.2582  -0.2565
    -0.2509  -0.2419  -0.2296  -0.2276  -0.2264  -0.2054  -0.2041  -0.2033
    -0.1979  -0.1656  -0.1653  -0.1619  -0.1609  -0.1526  -0.1517  -0.1439
    -0.1409  -0.1337  -0.1258  -0.1210  -0.1091  -0.1019  -0.0964  -0.0723
    -0.0697  -0.0696  -0.0681  -0.0641  -0.0531  -0.0524  -0.0502  -0.0480
    -0.0347  -0.0233  -0.0232  -0.0192  -0.0106  -0.0070   0.0157   0.0171
     0.0183   0.0294   0.0584   0.0635   0.0676   0.0684   0.0714   0.0854
     0.0888   0.1070   0.1083   0.1137   0.1160   0.1205   0.1223   0.1269
     0.1299   0.1312   0.1360   0.1368   0.1385   0.1410   0.1428   0.1590
     0.1623   0.1629   0.1661   0.1700   0.1724   0.1869   0.1879   0.2025
     0.2089   0.2202   0.2316   0.2407   0.2431   0.2450   0.2460   0.2495
     0.2625   0.2676   0.2697   0.2711   0.2723   0.2737   0.3005   0.3086
     0.3108   0.3684   0.3794   0.3814   0.3845   0.3869   0.3972   0.3991
     0.4011   0.4020   0.4050   0.4089   0.4133   0.4160   0.4182   0.4195
     0.4272   0.4289   0.4358   0.4367   0.4373   0.4449   0.4480   0.4521
     0.4588   0.4608   0.4648   0.4673   0.4724   0.4819   0.4954   0.4989
     0.5214   0.5316   0.5347   0.5497   0.5511   0.5620   0.5701   0.5714
     0.5729   0.5761   0.5839   0.5935   0.6037   0.6069   0.6111   0.6146
     0.6156   0.6194   0.6217   0.6245   0.6269   0.6439   0.6472   0.6553
     0.6621   0.6693   0.6718   0.6736   0.6754   0.6800   0.6807   0.6848
     0.6918   0.7050   0.7085   0.7091   0.7119   0.7205   0.7241   0.7268
     0.7279   0.7346   0.7382   0.7412   0.7452   0.7488   0.7528   0.7658
     0.7689   0.7869   0.7875   0.7924   0.7954   0.7983   0.8003   0.8050
     0.8142   0.8320   0.8346   0.8519   0.8560   0.8692   0.8699   0.8722
     0.8763   0.8781   0.8814   0.8942   0.8990   0.9041   0.9070   0.9080
     0.9163   0.9212   0.9299   0.9316   0.9425   0.9481   0.9523   0.9533
     0.9633   0.9765   0.9830   0.9852   0.9865   0.9879   1.0077   1.0099
     1.0175   1.0211   1.0228   1.0234   1.0243   1.0300   1.0326   1.0375
     1.0388   1.0570   1.0727   1.0768   1.0781   1.0836   1.0841   1.0973
     1.0981   1.1122   1.1175   1.1188   1.1201   1.1218   1.1269   1.1301
     1.1305   1.1398   1.1461   1.1467   1.1477   1.1480   1.1500   1.1508
     1.1529   1.1547   1.1599   1.1616   1.1630   1.1684   1.1737   1.1789
     1.1846   1.1892   1.1914   1.1977   1.1981   1.2034   1.2050   1.2103
     1.2191   1.2201   1.2306   1.2332   1.2352   1.2379   1.2401   1.2461
     1.2523   1.2639   1.2662   1.2669   1.2748   1.2786   1.2825   1.2835
     1.2885   1.2907   1.3012   1.3123   1.3176   1.3205   1.3218   1.3302
     1.3560   1.3629   1.3646   1.3699   1.3729   1.3763   1.3790   1.3808
     1.3828   1.3835   1.3900   1.3911   1.4008   1.4053   1.4074   1.4084
     1.4170   1.4260   1.4272   1.4288   1.4295   1.4331   1.4380   1.4396
     1.4423   1.4439   1.4463   1.4478   1.4496   1.4515   1.4585   1.4618
     1.4695   1.4760   1.4783   1.4813   1.4861   1.4866   1.4871   1.4889
     1.4936   1.5080   1.5090   1.5097   1.5282   1.5290   1.5366   1.5386
     1.5464   1.5502   1.5507   1.5516   1.5533   1.5561   1.5567   1.5609
     1.5623   1.5644   1.5682   1.5713   1.5746   1.5900   1.5918   1.5942
     1.5951   1.5967   1.5977   1.5997   1.6115   1.6118   1.6177   1.6234
     1.6274   1.6353   1.6365   1.6416   1.6439   1.6462   1.6622   1.6740
     1.6817   1.6860   1.7096   1.7342   1.7514   1.7529   1.7556   1.7713
     1.7948   1.8461   1.8848   1.8891   1.8914   1.8958   1.9067   1.9295
     1.9657   2.0227   2.1187   2.1601   2.1781   2.2092   2.2182   2.2195
     2.2388   2.3326   2.3883   2.3998   2.6872   2.6931   2.6965   2.7012
     3.1042   3.1050   3.1324   3.3136   3.3211   3.3358   3.3475   3.3485
     3.4258   3.4871   3.6020   3.6525   3.7141   3.7431   3.7616   3.7809
     3.8308   3.8431   3.8531   3.8633   3.8885   4.0045   4.0111   4.0737
     4.1158   4.1267   4.2964   4.3407   4.3456   4.4054   4.5056   4.5518
     4.7945   4.8817   4.9513   4.9785   5.1282   5.3157   5.3382   5.3537
     5.3611   5.3736   5.4922   5.5845   5.5997   5.6193   5.6376   5.7120
     5.7422   5.7463   5.8165   5.8489   5.8712   5.8816   5.9498   5.9699
     5.9957   6.1177   6.1362   6.1467   6.1737   6.2208   6.5359   6.7072
     6.7895   6.8270   6.8359   6.8774   6.9012   6.9782   7.0130   7.1243
     7.1599   7.1694   7.1809   7.1962   7.2254   7.3854   7.4075   7.4364
     7.4707   7.5843   7.6432   7.6651   7.6941   7.7149   7.7880   7.8603
     7.9151   7.9461   7.9811   8.0890   8.1220   8.1452   8.1604   8.2003
     8.2238   8.3716   8.4036   8.4389   8.4421   8.4595   8.4869   8.5428
     8.5558   8.6648   8.7493   8.7742   8.7789   8.9394   9.0026   9.0492
     9.0615   9.0778   9.1074   9.2289   9.2442   9.2750   9.2916   9.3159
     9.3335   9.3366   9.3496   9.3907   9.3998   9.4113   9.4438   9.5259
     9.5508   9.5816   9.6162   9.6396   9.6873   9.7360   9.8415   9.8600

          k = 0.2500-0.2165 0.0000 (256316 PWs)   bands (ev):

   -17.5253 -16.0821 -15.8582 -15.4558 -15.3830 -15.0936 -14.6839 -14.4720
   -14.2285 -14.0198 -13.7025 -13.2109 -13.1690 -13.0522 -12.7077 -12.5707
   -12.1307 -11.9473 -11.5167 -11.3822 -11.2168 -11.0283 -10.8945 -10.5275
    -9.8188  -9.7204  -9.4074  -9.2851  -9.0067  -8.9773  -8.6383  -8.6237
    -8.3795  -8.3382  -7.8041  -7.2131  -6.9307  -6.7902  -6.5739  -6.4936
    -6.4245  -6.3495  -6.2062  -6.0508  -5.9109  -5.5787  -5.5718  -5.4143
    -5.2128  -5.0914  -4.8887  -4.7490  -4.7015  -4.5703  -4.5467  -4.5218
    -4.4592  -4.3210  -4.2197  -4.2096  -4.1895  -4.1032  -4.0839  -4.0474
    -3.9574  -3.8080  -3.7085  -3.6469  -3.5521  -3.5042  -3.4607  -3.3995
    -3.3339  -3.3287  -3.3051  -3.2757  -3.1778  -3.1394  -3.0937  -3.0298
    -3.0093  -2.9652  -2.8894  -2.8014  -2.7868  -2.7795  -2.7790  -2.7501
    -2.6868  -2.6203  -2.5734  -2.5534  -2.3705  -2.2270  -2.1869  -2.1809
    -2.1273  -2.0643  -2.0462  -2.0383  -2.0378  -2.0343  -1.9909  -1.9391
    -1.8798  -1.8795  -1.8511  -1.8360  -1.8249  -1.7530  -1.7118  -1.6930
    -1.6829  -1.6816  -1.6748  -1.6272  -1.6207  -1.6035  -1.5943  -1.5821
    -1.5781  -1.5715  -1.5647  -1.5507  -1.5475  -1.5462  -1.5456  -1.5378
    -1.5361  -1.4953  -1.4553  -1.4474  -1.3396  -1.3389  -1.2487  -1.2436
    -1.2359  -1.2039  -1.2006  -1.1987  -1.1559  -1.1481  -1.1463  -1.1328
    -1.1325  -1.1210  -1.1196  -1.1167  -1.1080  -1.0986  -1.0942  -1.0896
    -1.0870  -1.0805  -1.0753  -1.0687  -1.0640  -1.0622  -1.0546  -1.0512
    -1.0068  -1.0041  -0.9983  -0.9963  -0.9913  -0.9874  -0.9835  -0.9806
    -0.9667  -0.9507  -0.9489  -0.9184  -0.9112  -0.9099  -0.9019  -0.8966
    -0.8937  -0.8909  -0.8674  -0.8660  -0.8645  -0.8495  -0.8423  -0.8327
    -0.8307  -0.8274  -0.8264  -0.8240  -0.8161  -0.8041  -0.7967  -0.7930
    -0.7728  -0.7645  -0.7430  -0.7328  -0.7320  -0.7316  -0.6668  -0.6531
    -0.6493  -0.6478  -0.6415  -0.6401  -0.6375  -0.5989  -0.5921  -0.5842
    -0.5831  -0.5809  -0.5753  -0.5737  -0.5668  -0.5632  -0.5264  -0.5244
    -0.4931  -0.4860  -0.4820  -0.4626  -0.4397  -0.4355  -0.4341  -0.4334
    -0.4211  -0.4065  -0.4053  -0.4036  -0.3968  -0.3859  -0.3727  -0.3725
    -0.3683  -0.3586  -0.3561  -0.3493  -0.3293  -0.3231  -0.3183  -0.3151
    -0.3080  -0.2933  -0.2798  -0.2791  -0.2654  -0.2649  -0.2543  -0.2518
    -0.2398  -0.2390  -0.2345  -0.2339  -0.2322  -0.2284  -0.2250  -0.2225
    -0.2163  -0.2080  -0.2014  -0.1882  -0.1875  -0.1716  -0.1627  -0.1491
    -0.1432  -0.1387  -0.1276  -0.1159  -0.1107  -0.1101  -0.0984  -0.0909
    -0.0884  -0.0870  -0.0805  -0.0787  -0.0517  -0.0365  -0.0256  -0.0254
     0.0112   0.0127   0.0204   0.0209   0.0239   0.0242   0.0392   0.0408
     0.0420   0.0596   0.0601   0.0646   0.0724   0.0762   0.0789   0.0856
     0.0864   0.0899   0.0910   0.0995   0.1121   0.1181   0.1231   0.1246
     0.1258   0.1276   0.1300   0.1313   0.1321   0.1351   0.1394   0.1457
     0.1586   0.1594   0.1605   0.1610   0.1923   0.1942   0.2007   0.2034
     0.2071   0.2092   0.2231   0.2286   0.2312   0.2458   0.2589   0.2604
     0.2669   0.2724   0.2746   0.2796   0.2810   0.2826   0.2884   0.2954
     0.3011   0.3064   0.3098   0.3310   0.3364   0.3877   0.3952   0.4030
     0.4057   0.4070   0.4100   0.4118   0.4133   0.4155   0.4226   0.4242
     0.4270   0.4320   0.4392   0.4464   0.4497   0.4547   0.4559   0.4586
     0.4626   0.4674   0.4723   0.4864   0.4951   0.4997   0.5075   0.5101
     0.5218   0.5233   0.5329   0.5356   0.5647   0.5726   0.5770   0.5816
     0.5843   0.5856   0.5866   0.5936   0.5987   0.6013   0.6047   0.6077
     0.6083   0.6141   0.6162   0.6221   0.6389   0.6404   0.6491   0.6504
     0.6611   0.6646   0.6949   0.6956   0.6964   0.6979   0.7232   0.7269
     0.7306   0.7326   0.7332   0.7368   0.7385   0.7413   0.7465   0.7514
     0.7536   0.7568   0.7619   0.7625   0.7720   0.7762   0.7814   0.7848
     0.7895   0.7958   0.7983   0.7993   0.8001   0.8065   0.8101   0.8123
     0.8167   0.8176   0.8220   0.8299   0.8375   0.8388   0.8399   0.8445
     0.8452   0.8458   0.8476   0.8495   0.8525   0.8822   0.8861   0.8946
     0.8969   0.9052   0.9177   0.9281   0.9359   0.9509   0.9517   0.9537
     0.9539   0.9578   0.9583   0.9611   0.9816   0.9822   0.9830   0.9831
     0.9842   0.9850   0.9929   0.9989   1.0097   1.0113   1.0129   1.0218
     1.0238   1.0293   1.0329   1.0509   1.0566   1.0573   1.0784   1.0831
     1.0840   1.0884   1.0914   1.0937   1.0946   1.0963   1.1017   1.1065
     1.1201   1.1284   1.1308   1.1373   1.1450   1.1473   1.1530   1.1641
     1.1678   1.1807   1.1857   1.1899   1.2077   1.2080   1.2134   1.2151
     1.2176   1.2182   1.2197   1.2206   1.2210   1.2228   1.2246   1.2322
     1.2338   1.2368   1.2430   1.2477   1.2498   1.2623   1.2670   1.2818
     1.2911   1.2937   1.2997   1.3003   1.3036   1.3045   1.3061   1.3087
     1.3149   1.3165   1.3185   1.3205   1.3234   1.3273   1.3293   1.3311
     1.3331   1.3359   1.3435   1.3495   1.3515   1.3520   1.3527   1.3532
     1.3551   1.3672   1.3686   1.3728   1.3741   1.3950   1.3985   1.4051
     1.4064   1.4117   1.4196   1.4237   1.4261   1.4318   1.4384   1.4386
     1.4506   1.4514   1.4560   1.4590   1.4597   1.4614   1.4629   1.4699
     1.4743   1.4760   1.4777   1.4851   1.4879   1.4899   1.5020   1.5072
     1.5092   1.5104   1.5112   1.5123   1.5129   1.5201   1.5209   1.5261
     1.5302   1.5311   1.5370   1.5403   1.5475   1.5492   1.5512   1.5617
     1.5637   1.5655   1.5664   1.5693   1.5712   1.5713   1.5735   1.5765
     1.5816   1.5819   1.5934   1.6063   1.6064   1.6124   1.6189   1.6247
     1.6301   1.6364   1.6483   1.6519   1.6561   1.6651   1.6766   1.6787
     1.6852   1.6865   1.7104   1.7138   1.7330   1.7659   1.7946   1.7965
     1.8139   1.8679   1.8834   1.8898   1.9048   1.9061   1.9174   1.9188
     1.9200   1.9283   1.9750   1.9819   2.1743   2.2528   2.2614   2.2856
     2.3034   2.4194   2.4268   2.7099   2.7129   2.8749   2.9156   2.9177
     2.9206   2.9294   2.9374   2.9658   2.9710   3.1083   3.1126   3.1822
     3.2206   3.4548   3.6704   3.6737   3.7435   3.7629   3.8180   3.8618
     3.9652   3.9706   3.9780   3.9880   4.1217   4.1335   4.1805   4.2022
     4.2893   4.2941   4.4246   4.4969   4.5028   4.5521   4.6797   4.6820
     4.7467   4.7707   4.8072   4.8156   4.9157   5.0570   5.0740   5.1282
     5.1789   5.2064   5.3502   5.4254   5.4332   5.5396   5.5680   5.5753
     5.5844   5.5917   5.6152   5.8085   5.8863   5.8947   5.9916   6.0329
     6.0590   6.0762   6.1069   6.3345   6.6888   6.7223   6.7444   6.7612
     6.8168   6.8815   6.9006   6.9907   7.0223   7.0855   7.1782   7.1956
     7.2199   7.2275   7.2423   7.2729   7.3320   7.3515   7.4342   7.4486
     7.4692   7.4754   7.5067   7.5659   7.5689   7.6067   7.7695   7.7902
     7.8070   7.8947   7.9233   7.9736   8.1040   8.1252   8.2575   8.3132
     8.3258   8.3627   8.3850   8.4021   8.4434   8.5135   8.6117   8.6493
     8.7093   8.7200   8.7549   8.7696   8.8059   8.8319   8.8473   8.9799
     9.0200   9.0409   9.0812   9.0965   9.1358   9.1915   9.2516   9.2649
     9.2965   9.3176   9.3344   9.3524   9.3603   9.3922   9.4047   9.4357
     9.4696   9.4979   9.5239   9.5518   9.5986   9.6383   9.6560   9.7473

          k =-0.5000 0.0000 0.0000 (256496 PWs)   bands (ev):

   -17.4903 -15.9438 -15.6578 -15.5448 -15.5208 -15.4656 -14.8023 -14.5206
   -14.4361 -14.3851 -13.3207 -12.8409 -12.6989 -12.6104 -12.4082 -12.3911
   -11.8281 -11.8117 -11.7200 -11.7058 -11.1824 -11.1391 -10.9398 -10.6680
   -10.2561 -10.1971  -9.9866  -9.6704  -9.1542  -9.0885  -8.9003  -8.8606
    -8.0939  -7.8079  -7.5615  -7.3472  -7.2712  -7.2438  -7.1793  -6.2565
    -6.1620  -5.7999  -5.5041  -5.1816  -5.1746  -5.1625  -4.9683  -4.8843
    -4.7413  -4.6815  -4.6773  -4.6751  -4.6665  -4.6637  -4.6425  -4.6174
    -4.5738  -4.5010  -4.4739  -4.3923  -4.3013  -4.2839  -4.2618  -4.0769
    -3.9295  -3.9227  -3.8481  -3.8455  -3.7457  -3.6440  -3.6152  -3.5498
    -3.4582  -3.4390  -3.3526  -3.3467  -3.3036  -3.2922  -3.2904  -3.2898
    -3.2732  -3.2716  -3.2394  -3.0800  -2.8819  -2.8182  -2.7478  -2.6979
    -2.6649  -2.6341  -2.5588  -2.5209  -2.4686  -2.4578  -2.3454  -2.3278
    -2.2129  -2.1845  -2.1703  -2.1654  -2.1429  -1.8592  -1.8074  -1.7516
    -1.7486  -1.7484  -1.7475  -1.7473  -1.7434  -1.7264  -1.6458  -1.6239
    -1.6170  -1.5681  -1.5259  -1.5217  -1.5210  -1.5193  -1.4946  -1.4737
    -1.4721  -1.4697  -1.4676  -1.4083  -1.3751  -1.3685  -1.3612  -1.3589
    -1.3548  -1.3479  -1.2989  -1.2966  -1.2936  -1.2906  -1.2779  -1.2750
    -1.2299  -1.2274  -1.2232  -1.2204  -1.2144  -1.2123  -1.2097  -1.2057
    -1.2037  -1.1894  -1.1630  -1.1610  -1.1607  -1.1552  -1.1389  -1.1385
    -1.1375  -1.1358  -1.0750  -1.0740  -1.0564  -1.0542  -1.0517  -1.0497
    -1.0314  -1.0302  -1.0271  -1.0234  -1.0197  -1.0179  -1.0155  -0.9940
    -0.9793  -0.9780  -0.9770  -0.9753  -0.9738  -0.9568  -0.9535  -0.9266
    -0.9250  -0.9156  -0.8816  -0.8789  -0.8525  -0.8519  -0.8488  -0.8475
    -0.8271  -0.8237  -0.8231  -0.8218  -0.8189  -0.8179  -0.8116  -0.8035
    -0.8020  -0.7995  -0.7979  -0.7883  -0.7763  -0.7713  -0.7135  -0.7109
    -0.7103  -0.7085  -0.6664  -0.6646  -0.5877  -0.5832  -0.5816  -0.5805
    -0.5793  -0.5774  -0.5553  -0.5453  -0.5439  -0.5421  -0.5405  -0.5365
    -0.5293  -0.5083  -0.5049  -0.5021  -0.4987  -0.4977  -0.4934  -0.4819
    -0.4739  -0.4717  -0.4681  -0.4503  -0.3985  -0.3933  -0.3835  -0.3530
    -0.3498  -0.3439  -0.3284  -0.3275  -0.3259  -0.3087  -0.2886  -0.2853
    -0.2811  -0.2794  -0.2774  -0.2748  -0.2725  -0.2587  -0.2435  -0.2400
    -0.2390  -0.2383  -0.2368  -0.2070  -0.2020  -0.2006  -0.1993  -0.1980
    -0.1670  -0.1666  -0.1661  -0.1648  -0.1553  -0.1538  -0.1220  -0.1215
    -0.1200  -0.1184  -0.1173  -0.1131  -0.1102  -0.0940  -0.0821  -0.0746
    -0.0703  -0.0206  -0.0087  -0.0072  -0.0060  -0.0044  -0.0016  -0.0002
     0.0022   0.0048   0.0371   0.0390   0.0432   0.0465   0.0742   0.0768
     0.1015   0.1033   0.1040   0.1045   0.1053   0.1064   0.1079   0.1084
     0.1089   0.1094   0.1106   0.1120   0.1497   0.1532   0.1767   0.1834
     0.1840   0.1917   0.1951   0.1973   0.1991   0.2017   0.2036   0.2062
     0.2076   0.2105   0.2113   0.2136   0.2143   0.2167   0.2211   0.2233
     0.2300   0.2304   0.2446   0.2451   0.2466   0.2468   0.2469   0.2488
     0.2563   0.2566   0.2576   0.2581   0.2687   0.2710   0.2811   0.2820
     0.2825   0.2831   0.2900   0.2973   0.3122   0.3130   0.3411   0.3486
     0.4109   0.4129   0.4143   0.4167   0.4447   0.4470   0.4481   0.4490
     0.4580   0.4589   0.4622   0.4643   0.4692   0.4700   0.4704   0.4735
     0.4762   0.4780   0.4797   0.4815   0.4826   0.4880   0.4898   0.4933
     0.4976   0.5016   0.5032   0.5038   0.5159   0.5165   0.5272   0.5273
     0.5303   0.5329   0.5421   0.5517   0.6080   0.6142   0.6212   0.6223
     0.6279   0.6364   0.6426   0.6467   0.6476   0.6522   0.6532   0.6545
     0.6564   0.6573   0.6604   0.6623   0.6639   0.6671   0.6689   0.6695
     0.6711   0.6724   0.6738   0.6766   0.6843   0.6914   0.7006   0.7125
     0.7131   0.7156   0.7240   0.7326   0.7426   0.7454   0.7475   0.7489
     0.7571   0.7586   0.7603   0.7621   0.7632   0.7664   0.7724   0.7740
     0.7798   0.7812   0.7941   0.7943   0.7959   0.7982   0.8264   0.8327
     0.8333   0.8360   0.8390   0.8429   0.8471   0.8534   0.8562   0.8679
     0.8866   0.8888   0.8906   0.8927   0.8954   0.8960   0.8997   0.9270
     0.9318   0.9631   0.9656   0.9683   0.9688   0.9694   0.9706   0.9732
     0.9776   0.9790   0.9792   0.9825   0.9856   0.9927   0.9948   1.0113
     1.0132   1.0161   1.0177   1.0221   1.0314   1.0329   1.0342   1.0358
     1.0360   1.0370   1.0601   1.0705   1.0749   1.0763   1.0781   1.0851
     1.1219   1.1402   1.1409   1.1426   1.1435   1.1626   1.1726   1.1736
     1.1752   1.1759   1.1893   1.1902   1.1958   1.2029   1.2052   1.2077
     1.2190   1.2195   1.2343   1.2365   1.2426   1.2434   1.2451   1.2464
     1.2487   1.2519   1.2528   1.2533   1.2606   1.2624   1.2632   1.2638
     1.2644   1.2648   1.2651   1.2701   1.2904   1.2961   1.3043   1.3051
     1.3053   1.3092   1.3298   1.3335   1.3367   1.3405   1.3415   1.3434
     1.3502   1.3568   1.3602   1.3669   1.3686   1.3694   1.3701   1.3712
     1.3789   1.3805   1.3812   1.3838   1.3880   1.3912   1.3977   1.4083
     1.4262   1.4274   1.4325   1.4394   1.4422   1.4426   1.4438   1.4444
     1.4449   1.4456   1.4504   1.4533   1.4567   1.4577   1.4589   1.4592
     1.4597   1.4609   1.4657   1.4675   1.4685   1.4694   1.4697   1.4706
     1.4760   1.4770   1.4910   1.4939   1.5037   1.5132   1.5162   1.5167
     1.5183   1.5193   1.5209   1.5214   1.5247   1.5365   1.5416   1.5432
     1.5449   1.5561   1.5572   1.5615   1.5654   1.5744   1.5763   1.5774
     1.5789   1.5857   1.5956   1.5971   1.5996   1.6012   1.6044   1.6052
     1.6063   1.6069   1.6092   1.6190   1.6252   1.6287   1.6380   1.6404
     1.6415   1.6418   1.6429   1.6491   1.6528   1.6571   1.6950   1.7052
     1.7093   1.7324   1.7351   1.7374   1.7404   1.7551   1.9103   2.1557
     2.1608   2.1657   2.1715   2.3587   2.3733   2.3842   2.3934   2.4123
     2.4133   2.4199   2.4225   2.7138   2.7526   2.7601   2.7671   2.9457
     2.9594   2.9626   2.9658   3.3040   3.3140   3.3146   3.3162   3.4710
     3.6026   3.6240   3.8775   3.8936   3.9023   3.9398   4.0511   4.0540
     4.0569   4.0759   4.1930   4.1968   4.2046   4.2093   4.3246   4.3441
     4.4272   4.4614   4.7684   4.8082   4.8825   4.8970   4.9078   4.9214
     4.9537   4.9562   5.0066   5.0095   5.1446   5.1456   5.1615   5.1746
     5.1767   5.1846   5.1975   5.2031   5.2047   5.2119   5.2437   5.2471
     5.4862   5.5289   5.6514   5.6624   5.6800   5.7279   5.8292   5.8556
     5.9522   6.0665   6.1091   6.1141   6.1364   6.1517   6.1694   6.1791
     6.1916   6.2014   6.3998   6.4090   6.5231   6.5853   6.5975   6.6029
     6.6122   7.1864   7.2137   7.2298   7.2414   7.2606   7.2654   7.3816
     7.6665   7.6974   7.7273   7.7290   7.7314   7.7329   7.7398   7.7693
     7.8601   7.9398   7.9694   7.9932   8.0207   8.0267   8.0445   8.1276
     8.1827   8.1987   8.2192   8.2319   8.2372   8.2655   8.2945   8.3695
     8.4012   8.5108   8.5318   8.8483   8.9204   8.9346   8.9509   8.9582
     8.9687   8.9994   9.0051   9.0522   9.0981   9.1981   9.2066   9.2197
     9.2456   9.3908   9.3933   9.4077   9.4290   9.4958   9.5060   9.5218
     9.5687   9.6296   9.6426   9.6604   9.6665   9.6731   9.6817   9.6980

          k =-0.5000-0.2165 0.0000 (256328 PWs)   bands (ev):

   -17.4903 -15.9190 -15.7251 -15.6958 -15.3470 -15.1240 -15.0742 -15.0143
   -14.0919 -13.7460 -13.6300 -13.5803 -12.7854 -12.4480 -11.9224 -11.9055
   -11.8750 -11.6687 -11.6030 -11.4985 -11.4610 -11.4496 -11.3226 -11.3009
   -10.0118  -9.9438  -9.6925  -9.6439  -9.1834  -8.9556  -8.7236  -8.6618
    -8.2857  -8.2231  -7.9435  -7.9008  -7.5887  -6.5602  -6.2989  -6.1162
    -5.8439  -5.7969  -5.6229  -5.3552  -5.2353  -5.1968  -5.1458  -5.0550
    -5.0532  -5.0509  -5.0411  -4.9273  -4.9104  -4.6264  -4.4646  -4.2894
    -4.2543  -4.2236  -4.1838  -4.1660  -4.1176  -4.0774  -4.0708  -4.0700
    -4.0576  -4.0446  -3.9824  -3.8486  -3.7431  -3.7392  -3.7228  -3.6524
    -3.6484  -3.6064  -3.5945  -3.4949  -3.4825  -3.4217  -3.3746  -3.3356
    -3.2021  -3.1029  -2.9587  -2.9486  -2.8259  -2.6371  -2.5692  -2.4885
    -2.4504  -2.4493  -2.4481  -2.4424  -2.3939  -2.3883  -2.3830  -2.3265
    -2.2732  -2.2532  -2.0668  -2.0047  -1.9801  -1.9737  -1.9571  -1.9545
    -1.9451  -1.9248  -1.8843  -1.8773  -1.8731  -1.8542  -1.6768  -1.6738
    -1.6718  -1.6663  -1.6463  -1.6316  -1.5423  -1.4730  -1.3943  -1.3865
    -1.3641  -1.3635  -1.3625  -1.3623  -1.3389  -1.3330  -1.3255  -1.3236
    -1.3129  -1.3050  -1.3032  -1.3026  -1.3009  -1.2584  -1.2569  -1.2566
    -1.2554  -1.2546  -1.2539  -1.2519  -1.2474  -1.2396  -1.2291  -1.2287
    -1.2272  -1.2265  -1.1807  -1.1779  -1.1770  -1.1754  -1.1272  -1.1043
    -1.0994  -1.0984  -1.0624  -1.0612  -1.0602  -1.0596  -1.0557  -1.0444
    -1.0419  -1.0400  -1.0287  -1.0071  -0.9921  -0.9913  -0.9906  -0.9897
    -0.9865  -0.9861  -0.9850  -0.9845  -0.9653  -0.9561  -0.9492  -0.9378
    -0.9320  -0.9313  -0.9238  -0.9194  -0.9147  -0.9141  -0.9101  -0.9078
    -0.9066  -0.9060  -0.9052  -0.9019  -0.8958  -0.7771  -0.7574  -0.7548
    -0.7540  -0.7489  -0.7234  -0.7224  -0.7220  -0.7213  -0.6449  -0.6436
    -0.6415  -0.6403  -0.6354  -0.6338  -0.6332  -0.6331  -0.6317  -0.6298
    -0.6266  -0.5970  -0.5712  -0.5707  -0.5682  -0.5662  -0.5637  -0.5609
    -0.5598  -0.5522  -0.5416  -0.5380  -0.5355  -0.5282  -0.4526  -0.4489
    -0.4458  -0.4454  -0.4415  -0.4390  -0.4352  -0.4187  -0.3715  -0.3702
    -0.3680  -0.3660  -0.3213  -0.3202  -0.3187  -0.3182  -0.3006  -0.3005
    -0.2984  -0.2971  -0.2764  -0.2753  -0.2711  -0.2649  -0.2614  -0.2610
    -0.2587  -0.2582  -0.2292  -0.2249  -0.2227  -0.2075  -0.1475  -0.1467
    -0.1422  -0.1408  -0.1282  -0.1278  -0.1266  -0.1262  -0.1122  -0.1117
    -0.1112  -0.1095  -0.0306  -0.0296  -0.0286  -0.0271  -0.0264  -0.0251
    -0.0232  -0.0227  -0.0218  -0.0202  -0.0189  -0.0176   0.0163   0.0164
     0.0167   0.0177   0.0274   0.0278   0.0283   0.0292   0.0324   0.0337
     0.0362   0.0370   0.1003   0.1007   0.1027   0.1036   0.1186   0.1251
     0.1276   0.1308   0.1463   0.1575   0.1665   0.1795   0.1829   0.1847
     0.1951   0.1955   0.2063   0.2091   0.2092   0.2100   0.2139   0.2146
     0.2173   0.2188   0.2202   0.2220   0.2234   0.2281   0.2298   0.2309
     0.2326   0.2349   0.2352   0.2365   0.2369   0.2462   0.2511   0.2523
     0.2533   0.2539   0.2792   0.2796   0.2799   0.2803   0.2873   0.2895
     0.2920   0.2929   0.3387   0.3397   0.3403   0.3412   0.3621   0.3697
     0.3725   0.3739   0.3776   0.4173   0.4281   0.4344   0.4427   0.4449
     0.4511   0.4543   0.4545   0.4566   0.4601   0.4705   0.4717   0.4727
     0.4761   0.4778   0.4842   0.4869   0.4900   0.4917   0.4940   0.4960
     0.4991   0.5017   0.5035   0.5041   0.5070   0.5103   0.5173   0.5201
     0.5710   0.5718   0.5775   0.5800   0.5824   0.5846   0.5866   0.5880
     0.5970   0.5973   0.5974   0.5993   0.6216   0.6288   0.6356   0.6359
     0.6370   0.6405   0.6476   0.6487   0.6587   0.6735   0.6783   0.6814
     0.6827   0.6866   0.6903   0.6931   0.6945   0.6958   0.6969   0.6975
     0.7028   0.7035   0.7042   0.7081   0.7150   0.7165   0.7196   0.7208
     0.7224   0.7287   0.7373   0.7391   0.7739   0.7878   0.7949   0.8056
     0.8075   0.8091   0.8112   0.8117   0.8140   0.8154   0.8183   0.8192
     0.8213   0.8255   0.8321   0.8361   0.8554   0.8559   0.8576   0.8577
     0.8585   0.8593   0.8600   0.8651   0.8750   0.9017   0.9107   0.9117
     0.9158   0.9346   0.9389   0.9406   0.9424   0.9435   0.9524   0.9554
     0.9754   0.9755   0.9760   0.9797   1.0003   1.0011   1.0036   1.0043
     1.0519   1.0526   1.0544   1.0560   1.0610   1.0847   1.0857   1.0870
     1.0885   1.1057   1.1360   1.1372   1.1398   1.1412   1.1522   1.1538
     1.1581   1.1624   1.1657   1.1678   1.1685   1.1720   1.1722   1.1724
     1.1729   1.1741   1.1758   1.1762   1.1784   1.1805   1.1838   1.2000
     1.2008   1.2032   1.2063   1.2076   1.2086   1.2097   1.2102   1.2110
     1.2151   1.2235   1.2249   1.2268   1.2412   1.2467   1.2519   1.2529
     1.2531   1.2546   1.2595   1.2609   1.2692   1.2707   1.2729   1.2736
     1.3013   1.3163   1.3169   1.3180   1.3223   1.3227   1.3253   1.3278
     1.3432   1.3477   1.3496   1.3499   1.3514   1.3606   1.3669   1.3673
     1.3726   1.3750   1.3847   1.3868   1.3949   1.3971   1.3986   1.3993
     1.4066   1.4072   1.4079   1.4094   1.4128   1.4147   1.4149   1.4166
     1.4501   1.4734   1.4758   1.4793   1.4801   1.4814   1.4820   1.4823
     1.4831   1.4833   1.4890   1.4912   1.4939   1.4993   1.5011   1.5022
     1.5041   1.5076   1.5116   1.5119   1.5126   1.5152   1.5163   1.5203
     1.5217   1.5224   1.5230   1.5239   1.5252   1.5321   1.5332   1.5354
     1.5421   1.5435   1.5447   1.5454   1.5765   1.5771   1.5773   1.5778
     1.5882   1.5896   1.5917   1.5928   1.5952   1.6028   1.6057   1.6114
     1.6211   1.6273   1.6292   1.6298   1.6524   1.6727   1.6820   1.6837
     1.6991   1.6997   1.7019   1.7023   1.7242   1.7271   1.7310   1.7338
     1.7363   1.7404   1.7415   1.7418   1.7435   1.7454   1.7471   1.7473
     1.9190   1.9603   1.9634   1.9649   1.9957   2.4474   2.4810   2.4821
     2.4845   2.6852   2.6877   2.6888   2.6950   2.8875   2.9235   2.9300
     2.9324   3.1628   3.2211   3.2322   3.2352   3.5165   3.5807   3.5814
     3.5832   3.6189   3.7681   3.7730   3.7755   3.7999   4.0543   4.0571
     4.0585   4.0628   4.3500   4.3539   4.3554   4.3581   4.4641   4.4665
     4.4835   4.5058   4.5887   4.6785   4.6916   4.6986   4.7031   4.7104
     4.7147   4.8030   4.9109   4.9645   4.9804   5.0178   5.1030   5.1712
     5.2321   5.2814   5.2957   5.3011   5.3232   5.3446   5.3560   5.3994
     5.4572   5.4656   5.4863   5.4965   5.5021   5.6105   5.8276   5.8319
     5.8742   5.8790   5.8810   5.8834   5.8944   6.0293   6.0358   6.0426
     6.2122   6.5561   6.8827   6.8917   6.9318   6.9445   7.1825   7.2435
     7.2583   7.2622   7.2699   7.2863   7.2881   7.3065   7.3666   7.3963
     7.4051   7.4173   7.4848   7.4922   7.4969   7.4974   7.5773   7.6626
     7.7348   7.7478   7.7722   7.8458   7.9060   8.0112   8.1168   8.1261
     8.1334   8.1618   8.2091   8.3048   8.3464   8.3540   8.3632   8.3830
     8.6274   8.6567   8.8388   8.9017   8.9632   8.9962   9.0118   9.0168
     9.0238   9.0450   9.0660   9.0863   9.0933   9.0962   9.1002   9.1061
     9.1184   9.1407   9.1552   9.1654   9.1685   9.2343   9.3620   9.4680
     9.6430   9.6558   9.6666   9.6879   9.6953   9.7103   9.7178   9.7189

     the Fermi energy is     3.4500 ev

!    total energy              =  -12709.31730085 Ry
     Harris-Foulkes estimate   =  -12709.31730086 Ry
     estimated scf accuracy    <          8.5E-09 Ry

     The total energy is the sum of the following terms:

     one-electron contribution = -109343.15645020 Ry
     hartree contribution      =   56039.18686784 Ry
     xc contribution           =   -4449.23311947 Ry
     ewald contribution        =   45050.25354286 Ry
     Dispersion Correction     =      -3.00346385 Ry
     smearing contrib. (-TS)   =      -3.36467802 Ry

     convergence has been achieved in  47 iterations

     Writing output data file gc.save
 
     init_run     :     99.51s CPU    106.80s WALL (       1 calls)
     electrons    :  12716.66s CPU  13581.64s WALL (       1 calls)

     Called by init_run:
     wfcinit      :     97.14s CPU    104.09s WALL (       1 calls)
     potinit      :      0.38s CPU      0.42s WALL (       1 calls)

     Called by electrons:
     c_bands      :  11676.13s CPU  12438.35s WALL (      47 calls)
     sum_band     :    873.89s CPU    949.81s WALL (      47 calls)
     v_of_rho     :      2.99s CPU      3.83s WALL (      48 calls)
     newd         :      8.82s CPU     14.78s WALL (      48 calls)
     mix_rho      :    154.65s CPU    174.73s WALL (      47 calls)

     Called by c_bands:
     init_us_2    :     39.34s CPU     39.91s WALL (     570 calls)
     cegterg      :  11501.62s CPU  12257.50s WALL (     288 calls)

     Called by sum_band:
     sum_band:bec :      4.89s CPU      5.51s WALL (     282 calls)
     addusdens    :      8.56s CPU     14.46s WALL (      47 calls)

     Called by *egterg:
     h_psi        :   4274.49s CPU   4613.68s WALL (    1918 calls)
     s_psi        :   1044.88s CPU   1056.63s WALL (    1918 calls)
     g_psi        :     10.63s CPU     10.63s WALL (    1624 calls)
     cdiaghg      :   3240.38s CPU   3363.03s WALL (    1906 calls)

     Called by h_psi:
     add_vuspsi   :   1050.45s CPU   1064.07s WALL (    1918 calls)

     General routines
     calbec       :   1480.42s CPU   1491.11s WALL (    2200 calls)
     fft          :      3.70s CPU      4.29s WALL (     623 calls)
     ffts         :     89.98s CPU    101.64s WALL (   23732 calls)
     fftw         :   2450.34s CPU   2723.90s WALL ( 1349144 calls)
     davcio       :      0.22s CPU      2.82s WALL (       6 calls)
 
     Parallel routines
     fft_scatter  :   1589.56s CPU   1739.65s WALL ( 1373499 calls)
 
     PWSCF        :     3h33m CPU        3h48m WALL

 
   This run was terminated on:  12:36:38   1May2017            

=------------------------------------------------------------------------------=
   JOB DONE.
=------------------------------------------------------------------------------=
