
     Program PWSCF v.5.4.0 starts on  1May2017 at 12:20:20 

     This program is part of the open-source Quantum ESPRESSO suite
     for quantum simulation of materials; please cite
         "P. Giannozzi et al., J. Phys.:Condens. Matter 21 395502 (2009);
          URL http://www.quantum-espresso.org", 
     in publications or presentations arising from this work. More details at
     http://www.quantum-espresso.org/quote

     Parallel version (MPI & OpenMP), running on      56 processor cores
     Number of MPI processes:                56
     Threads/MPI process:                     1
     R & G space division:  proc/nbgrp/npool/nimage =      56
     Waiting for input...
     Reading input from standard input
Warning: card &IONS ignored
Warning: card / ignored

     Current dimensions of program PWSCF are:
     Max number of different atomic species (ntypx) = 10
     Max number of k-points (npk) =  40000
     Max angular momentum in pseudopotentials (lmaxx) =  3

     -------------------------------------
     Parameters for Dispersion Correction:
     -------------------------------------
       atom      VdW radius       C_6     

        Cu         2.952        374.666
        C_h        2.744         60.710
        C          2.744         60.710

     Subspace diagonalization in iterative solution of the eigenvalue problem:
     one sub-group per band group will be used
     scalapack distributed-memory algorithm (size of sub-group:  5*  5 procs)

 
     Parallelization info
     --------------------
     sticks:   dense  smooth     PW     G-vecs:    dense   smooth      PW
     Min         204     204     54                36612    36612    4962
     Max         205     205     55                36617    36617    4968
     Sum       11433   11433   3039              2050409  2050409  278033
 


     bravais-lattice index     =            0
     lattice parameter (alat)  =      13.9425  a.u.
     unit-cell volume          =   21209.0878 (a.u.)^3
     number of atoms/cell      =          149
     number of atomic types    =            3
     number of electrons       =      1296.00
     number of Kohn-Sham states=          778
     kinetic-energy cutoff     =      80.0000  Ry
     charge density cutoff     =     320.0000  Ry
     convergence threshold     =      1.0E-08
     mixing beta               =       0.7000
     number of iterations used =            8  local-TF  mixing
     Exchange-correlation      =  SLA  PW   PBX  PBC ( 1  4  3  4 0 0)

     celldm(1)=  13.942539  celldm(2)=   0.000000  celldm(3)=   0.000000
     celldm(4)=   0.000000  celldm(5)=   0.000000  celldm(6)=   0.000000

     crystal axes: (cart. coord. in units of alat)
               a(1) = (   1.000000   0.000000   0.000000 )  
               a(2) = (   0.000000   2.309401   0.000000 )  
               a(3) = (   0.000000   0.000000   3.388418 )  

     reciprocal axes: (cart. coord. in units 2 pi/alat)
               b(1) = (  1.000000  0.000000  0.000000 )  
               b(2) = (  0.000000  0.433013  0.000000 )  
               b(3) = (  0.000000  0.000000  0.295123 )  


     PseudoPot. # 1 for Cu read from file:
     /home/549/hxw549/Short/pseudopotentials/Cu.pbe-n-van_ak.UPF
     MD5 check sum: 601f7c30f7467666bec936e0661ce3e1
     Pseudo is Ultrasoft + core correction, Zval = 11.0
     Generated by new atomic code, or converted to UPF format
     Using radial grid of  867 points,  6 beta functions with: 
                l(1) =   0
                l(2) =   0
                l(3) =   1
                l(4) =   1
                l(5) =   2
                l(6) =   2
     Q(r) pseudized with  8 coefficients,  rinner =    1.400   1.400   1.400
                                                       1.400   1.400

     PseudoPot. # 2 for C  read from file:
     /home/549/hxw549/Short/pseudopotentials/C.star1s-pbe-mt_gipaw.UPF
     MD5 check sum: ef0cb3dee31bd9e4ba2a832a2c716264
     Pseudo is Norm-conserving, Zval =  5.0
     Generated by new atomic code, or converted to UPF format
     Using radial grid of 1073 points,  1 beta functions with: 
                l(1) =   0

     PseudoPot. # 3 for C  read from file:
     /home/549/hxw549/Short/pseudopotentials/C.pbe-mt_gipaw.UPF
     MD5 check sum: 5ac2f21f2c440b14befe521540822c15
     Pseudo is Norm-conserving, Zval =  4.0
     Generated by new atomic code, or converted to UPF format
     Using radial grid of 1073 points,  1 beta functions with: 
                l(1) =   0

     atomic species   valence    mass     pseudopotential
        Cu            11.00    63.54600     Cu( 1.00)
        C_h            5.00    12.01070     C ( 1.00)
        C              4.00    12.01070     C ( 1.00)

     No symmetry found



   Cartesian axes

     site n.     atom                  positions (alat units)
         1           Cu  tau(   1) = (   0.0110438  -0.0114414   0.9956708  )
         2           Cu  tau(   2) = (   0.2614250   0.2200117   0.9954928  )
         3           Cu  tau(   3) = (   0.5115391  -0.0113269   0.9958217  )
         4           Cu  tau(   4) = (   0.7613891   0.2207663   0.9964136  )
         5           Cu  tau(   5) = (   0.0113943   0.4524409   0.9959458  )
         6           Cu  tau(   6) = (   0.2616259   0.6849598   0.9956623  )
         7           Cu  tau(   7) = (   0.5116233   0.4522664   0.9960070  )
         8           Cu  tau(   8) = (   0.7615468   0.6852408   0.9952534  )
         9           Cu  tau(   9) = (   0.0117907   0.9178219   0.9948203  )
        10           Cu  tau(  10) = (   0.2614792   1.1492807   0.9953844  )
        11           Cu  tau(  11) = (   0.5111147   0.9177905   0.9949121  )
        12           Cu  tau(  12) = (   0.7612765   1.1496612   0.9950202  )
        13           Cu  tau(  13) = (   0.0114254   1.3794539   0.9962709  )
        14           Cu  tau(  14) = (   0.2611847   1.6090776   0.9959988  )
        15           Cu  tau(  15) = (   0.5111112   1.3796813   0.9962249  )
        16           Cu  tau(  16) = (   0.7613800   1.6080727   0.9975318  )
        17           Cu  tau(  17) = (   0.0110525   1.8373497   0.9965526  )
        18           Cu  tau(  18) = (   0.2611022   2.0668146   0.9957100  )
        19           Cu  tau(  19) = (   0.5115353   1.8374206   0.9969094  )
        20           Cu  tau(  20) = (   0.7612623   2.0673174   0.9965234  )
        21           Cu  tau(  21) = (   0.0115865   0.2202931   1.2432999  )
        22           Cu  tau(  22) = (   0.2615067  -0.0113668   1.2436810  )
        23           Cu  tau(  23) = (   0.5121153   0.2200524   1.2432997  )
        24           Cu  tau(  24) = (   0.7615741  -0.0112684   1.2444258  )
        25           Cu  tau(  25) = (   0.0120879   0.6858149   1.2420612  )
        26           Cu  tau(  26) = (   0.2622035   0.4521150   1.2414827  )
        27           Cu  tau(  27) = (   0.5126220   0.6861224   1.2423676  )
        28           Cu  tau(  28) = (   0.7623117   0.4531408   1.2429278  )
        29           Cu  tau(  29) = (   0.0120951   1.1485183   1.2441321  )
        30           Cu  tau(  30) = (   0.2624932   0.9175385   1.2431955  )
        31           Cu  tau(  31) = (   0.5125517   1.1484323   1.2441895  )
        32           Cu  tau(  32) = (   0.7623301   0.9177824   1.2425979  )
        33           Cu  tau(  33) = (   0.0115999   1.6080459   1.2472319  )
        34           Cu  tau(  34) = (   0.2621348   1.3794321   1.2445920  )
        35           Cu  tau(  35) = (   0.5121119   1.6081595   1.2471170  )
        36           Cu  tau(  36) = (   0.7623837   1.3782062   1.2467795  )
        37           Cu  tau(  37) = (   0.0116806   2.0671470   1.2450539  )
        38           Cu  tau(  38) = (   0.2614328   1.8372499   1.2469863  )
        39           Cu  tau(  39) = (   0.5111922   2.0673891   1.2450768  )
        40           Cu  tau(  40) = (   0.7614783   1.8374249   1.2466590  )
        41           Cu  tau(  41) = (   0.0128307  -0.0113442   1.4927939  )
        42           Cu  tau(  42) = (   0.2627512   0.2210169   1.4909223  )
        43           Cu  tau(  43) = (   0.5122958  -0.0110577   1.4931574  )
        44           Cu  tau(  44) = (   0.7631788   0.2207633   1.4920526  )
        45           Cu  tau(  45) = (   0.0124689   0.4535341   1.4903636  )
        46           Cu  tau(  46) = (   0.2635812   0.6826929   1.4881866  )
        47           Cu  tau(  47) = (   0.5140215   0.4526925   1.4895506  )
        48           Cu  tau(  48) = (   0.7640315   0.6855347   1.4916045  )
        49           Cu  tau(  49) = (   0.0126120   0.9168690   1.4920031  )
        50           Cu  tau(  50) = (   0.2638222   1.1502126   1.4921598  )
        51           Cu  tau(  51) = (   0.5157245   0.9171270   1.4923349  )
        52           Cu  tau(  52) = (   0.7644218   1.1466844   1.4959148  )
        53           Cu  tau(  53) = (   0.0130865   1.3767647   1.4974788  )
        54           Cu  tau(  54) = (   0.2628014   1.6062265   1.4983366  )
        55           Cu  tau(  55) = (   0.5142526   1.3775647   1.4966766  )
        56           Cu  tau(  56) = (   0.7633736   1.6077250   1.4987595  )
        57           Cu  tau(  57) = (   0.0129415   1.8379035   1.4973478  )
        58           Cu  tau(  58) = (   0.2624971   2.0681420   1.4960341  )
        59           Cu  tau(  59) = (   0.5119507   1.8377261   1.4973559  )
        60           Cu  tau(  60) = (   0.7624206   2.0676490   1.4954378  )
        61           Cu  tau(  61) = (   0.0134450   0.2209352   1.7379697  )
        62           Cu  tau(  62) = (   0.2640583  -0.0083505   1.7427661  )
        63           Cu  tau(  63) = (   0.5142676   0.2217331   1.7387418  )
        64           Cu  tau(  64) = (   0.7635517  -0.0104522   1.7421749  )
        65           Cu  tau(  65) = (   0.0159796   0.6853904   1.7410080  )
        66           Cu  tau(  66) = (   0.2642682   0.4535023   1.7381376  )
        67           Cu  tau(  67) = (   0.5152794   0.6836224   1.7373122  )
        68           Cu  tau(  68) = (   0.7646843   0.4535537   1.7400127  )
        69           Cu  tau(  69) = (   0.0167247   1.1436236   1.7482164  )
        70           Cu  tau(  70) = (   0.2651031   0.9155579   1.7275724  )
        71           Cu  tau(  71) = (   0.5159326   1.1455380   1.7441761  )
        72           Cu  tau(  72) = (   0.7683541   0.9148126   1.7485706  )
        73           Cu  tau(  73) = (   0.0142639   1.6068766   1.7476196  )
        74           Cu  tau(  74) = (   0.2648584   1.3737826   1.7494837  )
        75           Cu  tau(  75) = (   0.5145170   1.6062944   1.7471497  )
        76           Cu  tau(  76) = (   0.7657115   1.3751659   1.7486079  )
        77           Cu  tau(  77) = (   0.0143418   2.0693287   1.7461899  )
        78           Cu  tau(  78) = (   0.2638754   1.8370321   1.7475232  )
        79           Cu  tau(  79) = (   0.5132425   2.0692373   1.7461080  )
        80           Cu  tau(  80) = (   0.7638619   1.8389410   1.7479219  )
        81           Cu  tau(  81) = (   0.0168958  -0.0053088   1.9879892  )
        82           Cu  tau(  82) = (   0.2657347   0.2263952   1.9859210  )
        83           Cu  tau(  83) = (   0.5118431  -0.0064075   1.9891185  )
        84           Cu  tau(  84) = (   0.7635667   0.2199764   1.9856613  )
        85           Cu  tau(  85) = (   0.0130974   0.4491110   1.9840499  )
        86           Cu  tau(  86) = (   0.2677388   0.6743016   1.9863443  )
        87           Cu  tau(  87) = (   0.5186636   0.4516565   1.9846776  )
        88           Cu  tau(  88) = (   0.7693270   0.6831601   1.9896207  )
        89           Cu  tau(  89) = (   0.0274231   0.9115854   2.0043395  )
        90           Cu  tau(  90) = (   0.2704243   1.1488631   2.0007915  )
        91           Cu  tau(  91) = (   0.5182627   0.9110942   1.9887177  )
        92           Cu  tau(  92) = (   0.7690708   1.1416007   1.9955897  )
        93           Cu  tau(  93) = (   0.0140537   1.3757942   1.9956399  )
        94           Cu  tau(  94) = (   0.2647042   1.6046237   1.9941680  )
        95           Cu  tau(  95) = (   0.5196994   1.3767956   1.9946082  )
        96           Cu  tau(  96) = (   0.7660924   1.6081435   1.9948951  )
        97           Cu  tau(  97) = (   0.0148999   1.8387651   1.9938407  )
        98           Cu  tau(  98) = (   0.2645305   2.0700384   1.9912808  )
        99           Cu  tau(  99) = (   0.5145875   1.8375178   1.9926260  )
       100           Cu  tau( 100) = (   0.7647940   2.0725016   1.9924674  )
       101           C   tau( 101) = (  -0.0251872   0.1151002   2.3847464  )
       102           C   tau( 102) = (  -0.0253734   0.3076615   2.3848541  )
       103           C   tau( 103) = (   0.1415161   0.0187037   2.3836317  )
       104           C   tau( 104) = (   0.1412840   0.4036702   2.3835015  )
       105           C   tau( 105) = (   0.3080420   0.1147424   2.3796059  )
       106           C   tau( 106) = (   0.3078839   0.3074059   2.3787516  )
       107           C   tau( 107) = (   0.4750024   0.0187577   2.3785528  )
       108           C   tau( 108) = (   0.4745346   0.4037861   2.3786007  )
       109           C   tau( 109) = (   0.6418476   0.1151567   2.3815264  )
       110           C   tau( 110) = (   0.6415739   0.3077287   2.3816382  )
       111           C   tau( 111) = (   0.8083298   0.0189081   2.3846765  )
       112           C   tau( 112) = (   0.8080686   0.4038635   2.3834607  )
       113           C   tau( 113) = (  -0.0258838   0.6927930   2.3877506  )
       114           C   tau( 114) = (  -0.0265292   0.8858155   2.4001940  )
       115           C   tau( 115) = (   0.1415205   0.5964469   2.3839271  )
       116           C   tau( 116) = (   0.1374721   0.9830981   2.3980172  )
       117           C   tau( 117) = (   0.3071235   0.6906498   2.3737503  )
       118           C   tau( 118) = (   0.3040917   0.8889408   2.3365195  )
       119           C   tau( 119) = (   0.4733060   0.5967538   2.3774762  )
       120           C_h tau( 120) = (   0.4758280   0.9832966   2.3838909  )
       121           C   tau( 121) = (   0.2828792   0.9073881   2.1186454  )
       122           C   tau( 122) = (   0.6408219   0.6930252   2.3798236  )
       123           C   tau( 123) = (   0.6397531   0.8863128   2.3897899  )
       124           C   tau( 124) = (   0.8076329   0.5970442   2.3829098  )
       125           C   tau( 125) = (   0.8065552   0.9816504   2.4042410  )
       126           C   tau( 126) = (  -0.0259380   1.2702329   2.4086560  )
       127           C   tau( 127) = (  -0.0253727   1.4625193   2.4030912  )
       128           C   tau( 128) = (   0.1399779   1.1734188   2.4072885  )
       129           C   tau( 129) = (   0.1414867   1.5585632   2.3987663  )
       130           C   tau( 130) = (   0.3074922   1.2698072   2.4008826  )
       131           C   tau( 131) = (   0.3079543   1.4616740   2.4001619  )
       132           C   tau( 132) = (   0.4746346   1.1732204   2.3987652  )
       133           C   tau( 133) = (   0.4746263   1.5583819   2.3985875  )
       134           C   tau( 134) = (   0.6408832   1.2700059   2.4047221  )
       135           C   tau( 135) = (   0.6410698   1.4623589   2.4027948  )
       136           C   tau( 136) = (   0.8073121   1.1738588   2.4065839  )
       137           C   tau( 137) = (   0.8078605   1.5585484   2.3993779  )
       138           C   tau( 138) = (  -0.0250717   1.8470642   2.3892338  )
       139           C   tau( 139) = (  -0.0250497   2.0395138   2.3882491  )
       140           C   tau( 140) = (   0.1418006   1.7508188   2.3921320  )
       141           C   tau( 141) = (   0.1414553   2.1356069   2.3853820  )
       142           C   tau( 142) = (   0.3083032   1.8470723   2.3891948  )
       143           C   tau( 143) = (   0.3083495   2.0394329   2.3832890  )
       144           C   tau( 144) = (   0.4747878   1.7506911   2.3925533  )
       145           C   tau( 145) = (   0.4750346   2.1356518   2.3814166  )
       146           C   tau( 146) = (   0.6415100   1.8470504   2.3898298  )
       147           C   tau( 147) = (   0.6415905   2.0395151   2.3848099  )
       148           C   tau( 148) = (   0.8080191   1.7508884   2.3921879  )
       149           C   tau( 149) = (   0.8083768   2.1358230   2.3856020  )

     number of k points=     6  gaussian smearing, width (Ry)=  0.1000
                       cart. coord. in units 2pi/alat
        k(    1) = (   0.0000000   0.0000000   0.0000000), wk =   0.2500000
        k(    2) = (   0.0000000  -0.2165064   0.0000000), wk =   0.2500000
        k(    3) = (   0.2500000   0.0000000   0.0000000), wk =   0.5000000
        k(    4) = (   0.2500000  -0.2165064   0.0000000), wk =   0.5000000
        k(    5) = (  -0.5000000   0.0000000   0.0000000), wk =   0.2500000
        k(    6) = (  -0.5000000  -0.2165064   0.0000000), wk =   0.2500000

     Dense  grid:  2050409 G-vectors     FFT dimensions: (  80, 192, 270)

     Largest allocated arrays     est. size (Mb)     dimensions
        Kohn-Sham Wavefunctions        54.66 Mb     (    4604,  778)
        NL pseudopotentials           129.89 Mb     (    4604, 1849)
        Each V/rho on FFT grid          1.17 Mb     (   76800)
        Each G-vector array             0.28 Mb     (   36616)
        G-vector shells                 0.14 Mb     (   17932)
     Largest temporary arrays     est. size (Mb)     dimensions
        Auxiliary wavefunctions       218.62 Mb     (    4604, 3112)
        Each subspace H/S matrix        5.90 Mb     (     622,  622)
        Each <psi_i|beta_j> matrix     21.95 Mb     (    1849,  778)
        Arrays for rho mixing           9.38 Mb     (   76800,    8)

     Initial potential from superposition of free atoms
     Check: negative starting charge=   -0.001822

     starting charge 1270.31751, renormalised to 1296.00000

     negative rho (up, down):  1.859E-03 0.000E+00
     Starting wfc are 1292 randomized atomic wfcs

     total cpu time spent up to now is      107.8 secs

     Self-consistent Calculation

     iteration #  1     ecut=    80.00 Ry     beta=0.70
     Davidson diagonalization with overlap
     c_bands:  5 eigenvalues not converged
     c_bands:  1 eigenvalues not converged
     ethr =  1.00E-04,  avg # of iterations = 40.7

     negative rho (up, down):  2.610E+01 0.000E+00

     total cpu time spent up to now is     2186.4 secs

     total energy              =   -9719.23053472 Ry
     Harris-Foulkes estimate   =  -17416.59044909 Ry
     estimated scf accuracy    <  179478.49764230 Ry

     iteration #  2     ecut=    80.00 Ry     beta=0.70
     Davidson diagonalization with overlap
     ethr =  1.00E-02,  avg # of iterations = 11.5

     negative rho (up, down):  3.161E+01 0.000E+00

     total cpu time spent up to now is     3098.1 secs

     total energy              =  -12072.40637628 Ry
     Harris-Foulkes estimate   =  -13695.10385218 Ry
     estimated scf accuracy    <   28584.04696874 Ry

     iteration #  3     ecut=    80.00 Ry     beta=0.70
     Davidson diagonalization with overlap
     ethr =  1.00E-02,  avg # of iterations =  7.2

     negative rho (up, down):  3.186E+01 0.000E+00

     total cpu time spent up to now is     3646.7 secs

     total energy              =  -12450.77105819 Ry
     Harris-Foulkes estimate   =  -13472.33368605 Ry
     estimated scf accuracy    <    5783.14979068 Ry

     iteration #  4     ecut=    80.00 Ry     beta=0.70
     Davidson diagonalization with overlap
     ethr =  1.00E-02,  avg # of iterations =  6.0

     negative rho (up, down):  2.182E+01 0.000E+00

     total cpu time spent up to now is     4217.4 secs

     total energy              =  -12859.23343672 Ry
     Harris-Foulkes estimate   =  -13086.00277700 Ry
     estimated scf accuracy    <     918.92362632 Ry

     iteration #  5     ecut=    80.00 Ry     beta=0.70
     Davidson diagonalization with overlap
     ethr =  1.00E-02,  avg # of iterations =  2.2

     negative rho (up, down):  1.852E+01 0.000E+00

     total cpu time spent up to now is     4468.1 secs

     total energy              =  -12858.63926693 Ry
     Harris-Foulkes estimate   =  -12926.83857723 Ry
     estimated scf accuracy    <    1407.27136111 Ry

     iteration #  6     ecut=    80.00 Ry     beta=0.70
     Davidson diagonalization with overlap
     ethr =  1.00E-02,  avg # of iterations =  2.0

     negative rho (up, down):  1.259E+01 0.000E+00

     total cpu time spent up to now is     4644.5 secs

     total energy              =  -12830.63537005 Ry
     Harris-Foulkes estimate   =  -12895.18967394 Ry
     estimated scf accuracy    <     618.91708290 Ry

     iteration #  7     ecut=    80.00 Ry     beta=0.70
     Davidson diagonalization with overlap
     ethr =  1.00E-02,  avg # of iterations =  2.0

     negative rho (up, down):  9.345E+00 0.000E+00

     total cpu time spent up to now is     4823.8 secs

     total energy              =  -12815.68989275 Ry
     Harris-Foulkes estimate   =  -12853.95349848 Ry
     estimated scf accuracy    <     441.61858179 Ry

     iteration #  8     ecut=    80.00 Ry     beta=0.70
     Davidson diagonalization with overlap
     ethr =  1.00E-02,  avg # of iterations =  2.0

     negative rho (up, down):  7.126E+00 0.000E+00

     total cpu time spent up to now is     5000.9 secs

     total energy              =  -12801.01474344 Ry
     Harris-Foulkes estimate   =  -12829.86461485 Ry
     estimated scf accuracy    <     303.23949426 Ry

     iteration #  9     ecut=    80.00 Ry     beta=0.70
     Davidson diagonalization with overlap
     ethr =  1.00E-02,  avg # of iterations =  1.2

     negative rho (up, down):  6.021E+00 0.000E+00

     total cpu time spent up to now is     5168.4 secs

     total energy              =  -12790.84115522 Ry
     Harris-Foulkes estimate   =  -12805.54038868 Ry
     estimated scf accuracy    <     236.57678677 Ry

     iteration # 10     ecut=    80.00 Ry     beta=0.70
     Davidson diagonalization with overlap
     ethr =  1.00E-02,  avg # of iterations =  1.5

     negative rho (up, down):  1.791E+00 0.000E+00

     total cpu time spent up to now is     5339.2 secs

     total energy              =  -12753.86852370 Ry
     Harris-Foulkes estimate   =  -12794.46580276 Ry
     estimated scf accuracy    <     174.21054322 Ry

     iteration # 11     ecut=    80.00 Ry     beta=0.70
     Davidson diagonalization with overlap
     ethr =  1.00E-02,  avg # of iterations =  3.0

     negative rho (up, down):  7.932E-01 0.000E+00

     total cpu time spent up to now is     5529.3 secs

     total energy              =  -12733.80569939 Ry
     Harris-Foulkes estimate   =  -12765.79328353 Ry
     estimated scf accuracy    <     434.12342551 Ry

     iteration # 12     ecut=    80.00 Ry     beta=0.70
     Davidson diagonalization with overlap
     ethr =  1.00E-02,  avg # of iterations =  2.0

     negative rho (up, down):  5.405E-01 0.000E+00

     total cpu time spent up to now is     5707.4 secs

     total energy              =  -12738.38806237 Ry
     Harris-Foulkes estimate   =  -12750.05842793 Ry
     estimated scf accuracy    <      59.72727943 Ry

     iteration # 13     ecut=    80.00 Ry     beta=0.70
     Davidson diagonalization with overlap
     ethr =  4.61E-03,  avg # of iterations =  1.0

     negative rho (up, down):  5.040E+00 0.000E+00

     total cpu time spent up to now is     5872.4 secs

     total energy              =  -12727.32687439 Ry
     Harris-Foulkes estimate   =  -12742.79116199 Ry
     estimated scf accuracy    <      64.53206143 Ry

     iteration # 14     ecut=    80.00 Ry     beta=0.70
     Davidson diagonalization with overlap
     ethr =  4.61E-03,  avg # of iterations =  2.7

     negative rho (up, down):  4.029E+00 0.000E+00

     total cpu time spent up to now is     6057.9 secs

     total energy              =  -12729.45499203 Ry
     Harris-Foulkes estimate   =  -12731.90934160 Ry
     estimated scf accuracy    <      35.49661202 Ry

     iteration # 15     ecut=    80.00 Ry     beta=0.70
     Davidson diagonalization with overlap
     ethr =  2.74E-03,  avg # of iterations =  2.7

     negative rho (up, down):  5.623E+00 0.000E+00

     total cpu time spent up to now is     6243.2 secs

     total energy              =  -12726.99785867 Ry
     Harris-Foulkes estimate   =  -12730.32594429 Ry
     estimated scf accuracy    <      27.34968972 Ry

     iteration # 16     ecut=    80.00 Ry     beta=0.70
     Davidson diagonalization with overlap
     ethr =  2.11E-03,  avg # of iterations =  2.2

     negative rho (up, down):  5.050E+00 0.000E+00

     total cpu time spent up to now is     6420.4 secs

     total energy              =  -12725.74768172 Ry
     Harris-Foulkes estimate   =  -12728.14722948 Ry
     estimated scf accuracy    <      19.96121651 Ry

     iteration # 17     ecut=    80.00 Ry     beta=0.70
     Davidson diagonalization with overlap
     ethr =  1.54E-03,  avg # of iterations =  4.0

     negative rho (up, down):  3.483E+00 0.000E+00

     total cpu time spent up to now is     6619.7 secs

     total energy              =  -12724.24063403 Ry
     Harris-Foulkes estimate   =  -12726.08856016 Ry
     estimated scf accuracy    <      12.14329048 Ry

     iteration # 18     ecut=    80.00 Ry     beta=0.70
     Davidson diagonalization with overlap
     ethr =  9.37E-04,  avg # of iterations =  6.7

     negative rho (up, down):  3.119E+00 0.000E+00

     total cpu time spent up to now is     6853.6 secs

     total energy              =  -12723.76924072 Ry
     Harris-Foulkes estimate   =  -12724.56501875 Ry
     estimated scf accuracy    <      10.44461586 Ry

     iteration # 19     ecut=    80.00 Ry     beta=0.70
     Davidson diagonalization with overlap
     ethr =  8.06E-04,  avg # of iterations =  2.8

     negative rho (up, down):  1.533E+00 0.000E+00

     total cpu time spent up to now is     7039.6 secs

     total energy              =  -12721.75829396 Ry
     Harris-Foulkes estimate   =  -12723.96152470 Ry
     estimated scf accuracy    <       7.62633351 Ry

     iteration # 20     ecut=    80.00 Ry     beta=0.70
     Davidson diagonalization with overlap
     ethr =  5.88E-04,  avg # of iterations =  7.3

     negative rho (up, down):  1.848E+00 0.000E+00

     total cpu time spent up to now is     7281.5 secs

     total energy              =  -12721.92181068 Ry
     Harris-Foulkes estimate   =  -12722.12019230 Ry
     estimated scf accuracy    <       8.97947050 Ry

     iteration # 21     ecut=    80.00 Ry     beta=0.70
     Davidson diagonalization with overlap
     ethr =  5.88E-04,  avg # of iterations =  1.3

     negative rho (up, down):  1.455E+00 0.000E+00

     total cpu time spent up to now is     7449.9 secs

     total energy              =  -12720.66297304 Ry
     Harris-Foulkes estimate   =  -12722.04427410 Ry
     estimated scf accuracy    <       5.84985421 Ry

     iteration # 22     ecut=    80.00 Ry     beta=0.70
     Davidson diagonalization with overlap
     ethr =  4.51E-04,  avg # of iterations =  1.5

     negative rho (up, down):  8.490E-01 0.000E+00

     total cpu time spent up to now is     7620.7 secs

     total energy              =  -12720.42948783 Ry
     Harris-Foulkes estimate   =  -12720.79041699 Ry
     estimated scf accuracy    <       7.38267583 Ry

     iteration # 23     ecut=    80.00 Ry     beta=0.70
     Davidson diagonalization with overlap
     ethr =  4.51E-04,  avg # of iterations =  3.3

     negative rho (up, down):  1.041E+00 0.000E+00

     total cpu time spent up to now is     7812.1 secs

     total energy              =  -12719.00464757 Ry
     Harris-Foulkes estimate   =  -12720.53359488 Ry
     estimated scf accuracy    <       6.37751029 Ry

     iteration # 24     ecut=    80.00 Ry     beta=0.70
     Davidson diagonalization with overlap
     ethr =  4.51E-04,  avg # of iterations =  5.8

     negative rho (up, down):  8.236E-01 0.000E+00

     total cpu time spent up to now is     8041.3 secs

     total energy              =  -12718.50369271 Ry
     Harris-Foulkes estimate   =  -12719.23938988 Ry
     estimated scf accuracy    <       2.91587620 Ry

     iteration # 25     ecut=    80.00 Ry     beta=0.70
     Davidson diagonalization with overlap
     ethr =  2.25E-04,  avg # of iterations =  4.3

     negative rho (up, down):  8.842E-01 0.000E+00

     total cpu time spent up to now is     8246.9 secs

     total energy              =  -12718.48941926 Ry
     Harris-Foulkes estimate   =  -12718.74375447 Ry
     estimated scf accuracy    <       1.04312283 Ry

     iteration # 26     ecut=    80.00 Ry     beta=0.70
     Davidson diagonalization with overlap
     ethr =  8.05E-05,  avg # of iterations =  7.2

     negative rho (up, down):  8.035E-01 0.000E+00

     total cpu time spent up to now is     8508.4 secs

     total energy              =  -12718.46879657 Ry
     Harris-Foulkes estimate   =  -12718.53942034 Ry
     estimated scf accuracy    <       0.37311863 Ry

     iteration # 27     ecut=    80.00 Ry     beta=0.70
     Davidson diagonalization with overlap
     ethr =  2.88E-05,  avg # of iterations =  9.7

     negative rho (up, down):  5.231E-01 0.000E+00

     total cpu time spent up to now is     8785.4 secs

     total energy              =  -12718.45526652 Ry
     Harris-Foulkes estimate   =  -12718.49522813 Ry
     estimated scf accuracy    <       0.19231349 Ry

     iteration # 28     ecut=    80.00 Ry     beta=0.70
     Davidson diagonalization with overlap
     ethr =  1.48E-05,  avg # of iterations = 10.0

     negative rho (up, down):  3.178E-01 0.000E+00

     total cpu time spent up to now is     9082.2 secs

     total energy              =  -12718.44807538 Ry
     Harris-Foulkes estimate   =  -12718.46786363 Ry
     estimated scf accuracy    <       0.07297091 Ry

     iteration # 29     ecut=    80.00 Ry     beta=0.70
     Davidson diagonalization with overlap
     c_bands:  1 eigenvalues not converged
     c_bands:  3 eigenvalues not converged
     ethr =  5.63E-06,  avg # of iterations = 14.5

     negative rho (up, down):  1.438E-01 0.000E+00

     total cpu time spent up to now is     9433.1 secs

     total energy              =  -12718.44311501 Ry
     Harris-Foulkes estimate   =  -12718.45344645 Ry
     estimated scf accuracy    <       0.04927816 Ry

     iteration # 30     ecut=    80.00 Ry     beta=0.70
     Davidson diagonalization with overlap
     c_bands:  2 eigenvalues not converged
     c_bands:  1 eigenvalues not converged
     ethr =  3.80E-06,  avg # of iterations = 17.2

     negative rho (up, down):  1.587E-01 0.000E+00

     total cpu time spent up to now is     9825.9 secs

     total energy              =  -12718.44391183 Ry
     Harris-Foulkes estimate   =  -12718.44584336 Ry
     estimated scf accuracy    <       0.02276554 Ry

     iteration # 31     ecut=    80.00 Ry     beta=0.70
     Davidson diagonalization with overlap
     ethr =  1.76E-06,  avg # of iterations = 12.0

     negative rho (up, down):  4.898E-02 0.000E+00

     total cpu time spent up to now is    10149.8 secs

     total energy              =  -12718.44188291 Ry
     Harris-Foulkes estimate   =  -12718.44616832 Ry
     estimated scf accuracy    <       0.00755437 Ry

     iteration # 32     ecut=    80.00 Ry     beta=0.70
     Davidson diagonalization with overlap
     c_bands:  1 eigenvalues not converged
     c_bands:  2 eigenvalues not converged
     c_bands:  1 eigenvalues not converged
     c_bands:  1 eigenvalues not converged
     c_bands:  2 eigenvalues not converged
     ethr =  5.83E-07,  avg # of iterations = 19.8

     negative rho (up, down):  3.155E-02 0.000E+00

     total cpu time spent up to now is    10574.5 secs

     total energy              =  -12718.44182057 Ry
     Harris-Foulkes estimate   =  -12718.44238022 Ry
     estimated scf accuracy    <       0.00137453 Ry

     iteration # 33     ecut=    80.00 Ry     beta=0.70
     Davidson diagonalization with overlap
     c_bands:  1 eigenvalues not converged
     c_bands:  1 eigenvalues not converged
     ethr =  1.06E-07,  avg # of iterations = 15.0

     negative rho (up, down):  7.014E-03 0.000E+00

     total cpu time spent up to now is    10912.8 secs

     total energy              =  -12718.44134470 Ry
     Harris-Foulkes estimate   =  -12718.44191402 Ry
     estimated scf accuracy    <       0.00029870 Ry

     iteration # 34     ecut=    80.00 Ry     beta=0.70
     Davidson diagonalization with overlap
     c_bands:  1 eigenvalues not converged
     c_bands:  1 eigenvalues not converged
     ethr =  2.30E-08,  avg # of iterations = 16.0

     negative rho (up, down):  4.265E-03 0.000E+00

     total cpu time spent up to now is    11294.7 secs

     total energy              =  -12718.44134950 Ry
     Harris-Foulkes estimate   =  -12718.44137208 Ry
     estimated scf accuracy    <       0.00004212 Ry

     iteration # 35     ecut=    80.00 Ry     beta=0.70
     Davidson diagonalization with overlap
     ethr =  3.25E-09,  avg # of iterations =  7.8

     negative rho (up, down):  3.114E-03 0.000E+00

     total cpu time spent up to now is    11561.2 secs

     total energy              =  -12718.44135868 Ry
     Harris-Foulkes estimate   =  -12718.44135492 Ry
     estimated scf accuracy    <       0.00001897 Ry

     iteration # 36     ecut=    80.00 Ry     beta=0.70
     Davidson diagonalization with overlap
     ethr =  1.46E-09,  avg # of iterations =  4.8

     negative rho (up, down):  2.080E-03 0.000E+00

     total cpu time spent up to now is    11785.9 secs

     total energy              =  -12718.44136116 Ry
     Harris-Foulkes estimate   =  -12718.44136076 Ry
     estimated scf accuracy    <       0.00000790 Ry

     iteration # 37     ecut=    80.00 Ry     beta=0.70
     Davidson diagonalization with overlap
     ethr =  6.10E-10,  avg # of iterations =  4.3

     negative rho (up, down):  2.346E-03 0.000E+00

     total cpu time spent up to now is    12011.2 secs

     total energy              =  -12718.44136315 Ry
     Harris-Foulkes estimate   =  -12718.44136223 Ry
     estimated scf accuracy    <       0.00000364 Ry

     iteration # 38     ecut=    80.00 Ry     beta=0.70
     Davidson diagonalization with overlap
     ethr =  2.81E-10,  avg # of iterations =  2.2

     negative rho (up, down):  2.119E-03 0.000E+00

     total cpu time spent up to now is    12196.1 secs

     total energy              =  -12718.44136387 Ry
     Harris-Foulkes estimate   =  -12718.44136342 Ry
     estimated scf accuracy    <       0.00000072 Ry

     iteration # 39     ecut=    80.00 Ry     beta=0.70
     Davidson diagonalization with overlap
     ethr =  5.52E-11,  avg # of iterations =  3.0

     negative rho (up, down):  2.046E-03 0.000E+00

     total cpu time spent up to now is    12403.6 secs

     total energy              =  -12718.44136414 Ry
     Harris-Foulkes estimate   =  -12718.44136397 Ry
     estimated scf accuracy    <       0.00000037 Ry

     iteration # 40     ecut=    80.00 Ry     beta=0.70
     Davidson diagonalization with overlap
     ethr =  2.86E-11,  avg # of iterations =  3.0

     negative rho (up, down):  2.023E-03 0.000E+00

     total cpu time spent up to now is    12601.7 secs

     total energy              =  -12718.44136421 Ry
     Harris-Foulkes estimate   =  -12718.44136418 Ry
     estimated scf accuracy    <       0.00000014 Ry

     iteration # 41     ecut=    80.00 Ry     beta=0.70
     Davidson diagonalization with overlap
     ethr =  1.10E-11,  avg # of iterations =  2.2

     negative rho (up, down):  2.073E-03 0.000E+00

     total cpu time spent up to now is    12786.6 secs

     total energy              =  -12718.44136420 Ry
     Harris-Foulkes estimate   =  -12718.44136422 Ry
     estimated scf accuracy    <       0.00000003 Ry

     iteration # 42     ecut=    80.00 Ry     beta=0.70
     Davidson diagonalization with overlap
     ethr =  2.49E-12,  avg # of iterations =  3.0

     negative rho (up, down):  2.072E-03 0.000E+00

     total cpu time spent up to now is    13023.3 secs

     total energy              =  -12718.44136422 Ry
     Harris-Foulkes estimate   =  -12718.44136421 Ry
     estimated scf accuracy    <       0.00000003 Ry

     iteration # 43     ecut=    80.00 Ry     beta=0.70
     Davidson diagonalization with overlap
     ethr =  2.26E-12,  avg # of iterations =  2.8

     negative rho (up, down):  2.086E-03 0.000E+00

     total cpu time spent up to now is    13208.8 secs

     End of self-consistent calculation

          k = 0.0000 0.0000 0.0000 (256287 PWs)   bands (ev):

   -17.0206 -16.1933 -15.9985 -15.2967 -14.9513 -14.6823 -14.5869 -14.2159
   -14.1674 -14.0461 -14.0402 -13.3709 -13.2300 -13.1066 -13.0547 -13.0053
   -12.9891 -11.5624 -11.4869 -11.4269 -11.3037 -11.1413 -10.3029  -9.8402
    -9.6086  -9.5570  -9.4255  -8.9388  -8.7628  -8.5822  -8.5089  -8.2317
    -7.9027  -7.7793  -7.6400  -7.5046  -7.4778  -7.4560  -7.4546  -7.3890
    -6.2563  -6.1946  -6.0530  -5.9961  -5.9256  -5.8682  -5.8011  -5.7753
    -5.7535  -5.4822  -5.4565  -4.9904  -4.8478  -4.7372  -4.7230  -4.6102
    -4.5441  -4.4455  -4.3316  -4.2929  -4.1173  -3.9959  -3.9722  -3.8871
    -3.8700  -3.5844  -3.5528  -3.4859  -3.4526  -3.3990  -3.3905  -3.3622
    -3.3345  -3.1948  -3.1569  -3.1012  -3.0902  -3.0126  -3.0039  -3.0026
    -2.9843  -2.9436  -2.8675  -2.8147  -2.7896  -2.7603  -2.7524  -2.6980
    -2.6467  -2.6284  -2.5692  -2.5314  -2.5052  -2.3863  -2.3551  -2.3330
    -2.2768  -2.2028  -2.1893  -2.1821  -2.1724  -2.1552  -2.1515  -2.1467
    -2.1460  -2.0807  -2.0410  -2.0306  -2.0220  -2.0181  -2.0129  -2.0020
    -1.9346  -1.9204  -1.8589  -1.8274  -1.8124  -1.7708  -1.7373  -1.7357
    -1.7076  -1.6938  -1.6708  -1.6549  -1.6528  -1.6463  -1.6373  -1.6129
    -1.5906  -1.5743  -1.5655  -1.5572  -1.5488  -1.5356  -1.5292  -1.5194
    -1.5140  -1.5122  -1.5017  -1.4625  -1.4481  -1.4127  -1.4075  -1.3711
    -1.3507  -1.3299  -1.2992  -1.2965  -1.2769  -1.2589  -1.2575  -1.2464
    -1.2177  -1.2122  -1.1953  -1.1895  -1.1886  -1.1643  -1.1601  -1.1475
    -1.1394  -1.1104  -1.0974  -1.0671  -1.0548  -1.0511  -1.0373  -1.0342
    -1.0329  -1.0234  -1.0189  -1.0170  -1.0153  -1.0024  -1.0008  -0.9897
    -0.9773  -0.9676  -0.9528  -0.9425  -0.9388  -0.9239  -0.9223  -0.9182
    -0.8976  -0.8852  -0.8835  -0.8720  -0.8608  -0.8602  -0.8585  -0.8522
    -0.8514  -0.8502  -0.8494  -0.8480  -0.8476  -0.8447  -0.8414  -0.8396
    -0.8358  -0.8328  -0.8189  -0.7972  -0.7860  -0.7327  -0.7262  -0.6947
    -0.6914  -0.6857  -0.6825  -0.6745  -0.6701  -0.6440  -0.6424  -0.6364
    -0.6295  -0.6281  -0.6244  -0.6115  -0.6077  -0.6024  -0.5950  -0.5804
    -0.5690  -0.5620  -0.5615  -0.5607  -0.5553  -0.5512  -0.5197  -0.5125
    -0.4972  -0.4951  -0.4916  -0.4448  -0.4419  -0.4314  -0.4295  -0.4260
    -0.4229  -0.4125  -0.4083  -0.4061  -0.4049  -0.4031  -0.3991  -0.3962
    -0.3954  -0.3886  -0.3877  -0.3858  -0.3785  -0.3622  -0.3555  -0.3525
    -0.3496  -0.3078  -0.3001  -0.2959  -0.2926  -0.2871  -0.2821  -0.2704
    -0.2647  -0.2632  -0.2599  -0.2581  -0.2544  -0.2430  -0.2416  -0.2346
    -0.2291  -0.2286  -0.2271  -0.2230  -0.2159  -0.2107  -0.2091  -0.2061
    -0.2026  -0.1993  -0.1904  -0.1865  -0.1812  -0.1726  -0.1607  -0.1373
    -0.1292  -0.1257  -0.1191  -0.1012  -0.0963  -0.0803  -0.0776  -0.0674
    -0.0662  -0.0611  -0.0602  -0.0560  -0.0535  -0.0434  -0.0287  -0.0228
    -0.0174  -0.0150  -0.0068  -0.0015   0.0053   0.0070   0.0095   0.0158
     0.0191   0.0219   0.0259   0.0327   0.0415   0.0433   0.0464   0.0473
     0.0494   0.0528   0.0605   0.0617   0.0666   0.0691   0.0849   0.0882
     0.0952   0.1017   0.1115   0.1153   0.1273   0.1331   0.1367   0.1447
     0.1561   0.1839   0.1912   0.2015   0.2122   0.2164   0.2268   0.2328
     0.2368   0.2450   0.2464   0.2530   0.2557   0.2568   0.2621   0.2642
     0.2683   0.2931   0.3179   0.3275   0.3310   0.3352   0.3381   0.3399
     0.3467   0.3529   0.3650   0.3771   0.3816   0.3824   0.3863   0.3953
     0.4030   0.4096   0.4117   0.4183   0.4252   0.4291   0.4407   0.4593
     0.4627   0.4680   0.4774   0.4824   0.4906   0.4920   0.4950   0.4986
     0.5050   0.5090   0.5160   0.5184   0.5277   0.5289   0.5329   0.5352
     0.5370   0.5415   0.5483   0.5516   0.5548   0.5566   0.5615   0.5743
     0.5778   0.5880   0.5965   0.5996   0.6029   0.6037   0.6085   0.6147
     0.6272   0.6305   0.6366   0.6440   0.6456   0.6484   0.6528   0.6532
     0.6593   0.6678   0.6727   0.6805   0.6831   0.6845   0.6871   0.6911
     0.6992   0.7042   0.7060   0.7116   0.7168   0.7194   0.7272   0.7339
     0.7378   0.7413   0.7440   0.7471   0.7479   0.7481   0.7489   0.7539
     0.7574   0.7738   0.7843   0.7997   0.8011   0.8038   0.8110   0.8173
     0.8218   0.8253   0.8270   0.8318   0.8349   0.8446   0.8540   0.8699
     0.8760   0.8782   0.8820   0.8838   0.8849   0.8937   0.8980   0.9064
     0.9126   0.9141   0.9157   0.9242   0.9298   0.9312   0.9354   0.9385
     0.9435   0.9563   0.9609   0.9679   0.9755   0.9760   0.9821   0.9867
     0.9878   0.9905   0.9932   1.0035   1.0074   1.0090   1.0112   1.0120
     1.0161   1.0178   1.0242   1.0263   1.0315   1.0350   1.0406   1.0438
     1.0462   1.0553   1.0601   1.0670   1.0695   1.0735   1.0908   1.0917
     1.0959   1.1009   1.1054   1.1081   1.1128   1.1172   1.1182   1.1194
     1.1205   1.1292   1.1339   1.1394   1.1439   1.1605   1.1627   1.1669
     1.1811   1.1859   1.1874   1.1897   1.1924   1.1959   1.2032   1.2088
     1.2122   1.2144   1.2188   1.2224   1.2247   1.2267   1.2293   1.2328
     1.2347   1.2374   1.2523   1.2572   1.2583   1.2609   1.2649   1.2658
     1.2669   1.2734   1.2763   1.2827   1.2879   1.2925   1.2947   1.2971
     1.3018   1.3044   1.3068   1.3071   1.3117   1.3170   1.3179   1.3246
     1.3336   1.3394   1.3462   1.3508   1.3568   1.3599   1.3611   1.3654
     1.3690   1.3803   1.3840   1.3884   1.3912   1.3998   1.4011   1.4022
     1.4059   1.4112   1.4159   1.4175   1.4188   1.4215   1.4259   1.4278
     1.4289   1.4291   1.4336   1.4345   1.4379   1.4402   1.4491   1.4567
     1.4576   1.4599   1.4602   1.4727   1.4759   1.4852   1.4899   1.5066
     1.5110   1.5198   1.5224   1.5266   1.5333   1.5353   1.5513   1.5540
     1.5619   1.5808   1.5835   1.6053   1.6098   1.6110   1.6187   1.6245
     1.6260   1.6398   1.6418   1.6457   1.8307   1.8559   1.9525   1.9559
     2.0123   2.1146   2.1411   2.1627   2.1767   2.1807   2.1997   2.2075
     2.2105   2.2183   2.2314   2.2448   2.3131   2.3565   2.4113   2.4246
     2.4560   2.4615   2.4688   2.5797   2.6807   2.7096   2.7154   2.8176
     2.9325   3.0575   3.0923   3.1285   3.3233   3.4032   3.5778   3.5910
     3.7323   3.8117   3.8378   3.8467   3.8651   3.8717   3.9505   3.9630
     3.9741   3.9941   4.0013   4.0027   4.0101   4.0279   4.0950   4.1871
     4.1970   4.2451   4.3186   4.3845   4.5102   4.7355   4.8370   4.9285
     4.9411   5.1050   5.2217   5.3230   5.3830   5.4430   5.5833   5.6820
     5.7199   5.7925   5.9292   5.9465   5.9540   6.1738   6.3412   6.4065
     6.4186   6.4597   6.4731   6.4862   6.4945   6.5523   6.6548   6.7348
     6.7427   6.7770   6.7879   6.8201   6.8344   6.8853   7.0000   7.0332
     7.0698   7.0771   7.2297   7.3485   7.3865   7.4463   7.5847   7.5857
     7.5977   7.6774   7.7013   7.7561   7.8356   7.9251   7.9560   8.1069
     8.1246   8.1389   8.2010   8.2597   8.2900   8.3097   8.3178   8.3342
     8.3611   8.3990   8.4307   8.4397   8.4756   8.5713   8.5852   8.6254
     8.6289   8.6522   8.7045   8.7472   8.7838   8.8324   8.8329   8.8340
     8.9869   9.0112   9.0314   9.0884   9.0981   9.1084   9.1367   9.2029
     9.2484   9.3278   9.3718   9.4780   9.5047   9.5420   9.5700   9.5945
     9.6844   9.7157   9.7425   9.8207   9.8504   9.9635  10.0357  10.0454
    10.0734  10.1738

          k = 0.0000-0.2165 0.0000 (256176 PWs)   bands (ev):

   -17.0195 -16.2559 -15.8044 -15.5678 -14.9204 -14.5753 -14.2993 -14.2960
   -14.1888 -14.1396 -13.7621 -13.7211 -13.6249 -13.6111 -12.4988 -12.3652
   -12.3222 -12.2280 -12.0718 -12.0114 -10.6148 -10.4979 -10.4564 -10.3114
    -9.5409  -9.3014  -9.1743  -9.0139  -8.9217  -8.8822  -8.4546  -8.2671
    -8.1274  -8.0711  -7.9614  -7.3049  -7.1728  -6.9313  -6.8901  -6.8117
    -6.8005  -6.7609  -6.7460  -6.1049  -5.9803  -5.8817  -5.8420  -5.4020
    -5.2863  -5.1513  -5.0857  -4.9544  -4.8996  -4.8382  -4.8318  -4.7583
    -4.7129  -4.6353  -4.5500  -4.5196  -4.4457  -4.0610  -3.9759  -3.8131
    -3.7334  -3.6063  -3.5301  -3.3249  -3.3034  -3.2987  -3.2771  -3.2485
    -3.1865  -3.1408  -3.0744  -3.0601  -3.0308  -3.0258  -2.9706  -2.9119
    -2.8552  -2.8438  -2.8200  -2.8119  -2.7664  -2.7123  -2.6762  -2.5952
    -2.5810  -2.5776  -2.5714  -2.5697  -2.5650  -2.5534  -2.5005  -2.4688
    -2.4053  -2.3195  -2.2880  -2.2598  -2.2262  -2.2249  -2.1837  -2.1700
    -2.1662  -2.1356  -2.0896  -2.0848  -1.9956  -1.9850  -1.9831  -1.9674
    -1.9623  -1.8981  -1.8860  -1.8739  -1.8213  -1.8000  -1.7682  -1.7608
    -1.7520  -1.7462  -1.7398  -1.7372  -1.7214  -1.7097  -1.6839  -1.6617
    -1.6460  -1.6246  -1.6096  -1.5736  -1.5436  -1.5221  -1.5052  -1.4644
    -1.4536  -1.4497  -1.4258  -1.3986  -1.3691  -1.3589  -1.3186  -1.3131
    -1.2962  -1.2862  -1.2782  -1.2757  -1.2713  -1.2663  -1.2646  -1.2577
    -1.2504  -1.2386  -1.2321  -1.2290  -1.2239  -1.2195  -1.2147  -1.1868
    -1.1771  -1.1598  -1.1530  -1.1427  -1.1338  -1.0885  -1.0857  -1.0518
    -1.0488  -1.0467  -1.0456  -1.0186  -0.9964  -0.9951  -0.9879  -0.9811
    -0.9792  -0.9773  -0.9657  -0.9371  -0.9282  -0.9260  -0.9191  -0.9159
    -0.9118  -0.9082  -0.9033  -0.8996  -0.8962  -0.8757  -0.8604  -0.8481
    -0.8266  -0.8223  -0.8189  -0.8179  -0.8151  -0.8028  -0.7969  -0.7912
    -0.7703  -0.7595  -0.7554  -0.7549  -0.7522  -0.6940  -0.6624  -0.6594
    -0.6472  -0.6458  -0.6372  -0.6335  -0.6303  -0.6238  -0.6192  -0.6156
    -0.6023  -0.6012  -0.5983  -0.5935  -0.5866  -0.5700  -0.5542  -0.5525
    -0.5493  -0.5419  -0.5388  -0.5365  -0.5348  -0.5155  -0.5148  -0.5030
    -0.5016  -0.4846  -0.4836  -0.4749  -0.4683  -0.4621  -0.4554  -0.4477
    -0.4426  -0.4391  -0.4348  -0.4207  -0.4080  -0.3869  -0.3750  -0.3694
    -0.3588  -0.3530  -0.3503  -0.3398  -0.3283  -0.3240  -0.3083  -0.3069
    -0.3012  -0.2984  -0.2962  -0.2938  -0.2911  -0.2886  -0.2735  -0.2699
    -0.2626  -0.2602  -0.2582  -0.2513  -0.2501  -0.2483  -0.2458  -0.2379
    -0.2346  -0.2312  -0.2303  -0.2193  -0.2129  -0.2076  -0.2044  -0.2012
    -0.1951  -0.1826  -0.1656  -0.1471  -0.1396  -0.1373  -0.1370  -0.1319
    -0.1280  -0.1248  -0.1211  -0.1053  -0.1024  -0.0986  -0.0951  -0.0901
    -0.0856  -0.0822  -0.0793  -0.0777  -0.0748  -0.0719  -0.0659  -0.0588
    -0.0502  -0.0303  -0.0280  -0.0229  -0.0210  -0.0145  -0.0033   0.0044
     0.0062   0.0115   0.0157   0.0194   0.0274   0.0307   0.0377   0.0448
     0.0506   0.0541   0.0638   0.0701   0.0718   0.0754   0.0760   0.0894
     0.0935   0.0953   0.1018   0.1059   0.1149   0.1197   0.1243   0.1278
     0.1309   0.1402   0.1582   0.1772   0.1810   0.1887   0.1961   0.2029
     0.2056   0.2073   0.2150   0.2168   0.2429   0.2529   0.2586   0.2652
     0.2849   0.2903   0.3075   0.3112   0.3323   0.3488   0.3553   0.3609
     0.3789   0.3880   0.3916   0.3967   0.3993   0.4009   0.4030   0.4096
     0.4213   0.4254   0.4319   0.4384   0.4440   0.4470   0.4532   0.4549
     0.4619   0.4669   0.4678   0.4695   0.4740   0.4766   0.4949   0.5022
     0.5120   0.5139   0.5177   0.5196   0.5223   0.5272   0.5345   0.5358
     0.5360   0.5423   0.5440   0.5470   0.5478   0.5504   0.5549   0.5593
     0.5637   0.5725   0.5754   0.5781   0.5817   0.5833   0.5874   0.5885
     0.5889   0.5963   0.6112   0.6190   0.6243   0.6343   0.6386   0.6506
     0.6538   0.6557   0.6569   0.6648   0.6683   0.6730   0.6747   0.6757
     0.6810   0.6817   0.6870   0.6930   0.7029   0.7168   0.7191   0.7241
     0.7251   0.7289   0.7375   0.7381   0.7451   0.7489   0.7532   0.7587
     0.7701   0.7716   0.7752   0.7770   0.7823   0.8171   0.8242   0.8270
     0.8398   0.8431   0.8467   0.8625   0.8669   0.8775   0.8847   0.8882
     0.8923   0.8933   0.8966   0.9047   0.9105   0.9125   0.9126   0.9135
     0.9161   0.9209   0.9295   0.9373   0.9385   0.9391   0.9468   0.9518
     0.9524   0.9586   0.9602   0.9656   0.9666   0.9697   0.9724   0.9742
     0.9801   0.9844   0.9862   0.9876   0.9885   0.9898   0.9917   0.9992
     1.0015   1.0057   1.0076   1.0124   1.0169   1.0206   1.0210   1.0235
     1.0317   1.0333   1.0383   1.0419   1.0492   1.0715   1.0758   1.0845
     1.0915   1.0922   1.1015   1.1099   1.1217   1.1250   1.1273   1.1292
     1.1340   1.1399   1.1547   1.1584   1.1675   1.1705   1.1732   1.1777
     1.1831   1.1858   1.1891   1.1919   1.1932   1.1943   1.1972   1.1996
     1.2011   1.2040   1.2073   1.2083   1.2126   1.2213   1.2252   1.2270
     1.2285   1.2300   1.2363   1.2474   1.2524   1.2609   1.2629   1.2670
     1.2687   1.2733   1.2749   1.2785   1.2868   1.2889   1.2925   1.2941
     1.2957   1.2972   1.3006   1.3050   1.3138   1.3154   1.3166   1.3192
     1.3273   1.3401   1.3430   1.3490   1.3537   1.3639   1.3656   1.3672
     1.3685   1.3703   1.3763   1.3773   1.3819   1.3906   1.3947   1.3980
     1.4061   1.4089   1.4204   1.4245   1.4250   1.4326   1.4383   1.4416
     1.4441   1.4446   1.4479   1.4493   1.4506   1.4692   1.4723   1.4787
     1.4860   1.4882   1.4924   1.4955   1.5031   1.5081   1.5092   1.5124
     1.5140   1.5209   1.5325   1.5371   1.5392   1.5430   1.5525   1.5816
     1.5833   1.6285   1.6450   1.6960   1.6986   1.7098   1.7143   1.7186
     1.7324   1.7437   1.7505   1.7713   1.7799   1.7996   1.8027   1.8114
     1.8127   1.8452   1.8594   1.9357   2.0589   2.1078   2.1344   2.2068
     2.3311   2.4110   2.4142   2.4421   2.4979   2.5086   2.5471   2.5551
     2.5788   2.5814   2.6015   2.6626   2.6979   2.6984   2.7621   2.7714
     2.8685   2.9161   2.9166   2.9627   3.1692   3.1696   3.1732   3.2109
     3.3187   3.3923   3.4354   3.6337   3.8149   3.8491   3.9080   4.0118
     4.0702   4.0898   4.1109   4.2063   4.2339   4.3196   4.3254   4.4207
     4.5246   4.5688   4.6622   4.7096   4.7323   4.7496   4.8453   5.0759
     5.1031   5.1805   5.2928   5.3423   5.3635   5.3683   5.3922   5.4310
     5.6375   5.6574   5.6838   5.7640   5.8301   5.9200   6.1145   6.3751
     6.3933   6.4148   6.4422   6.4835   6.5673   6.5750   6.6624   6.7235
     6.7524   6.7655   6.8356   7.0255   7.0379   7.0601   7.0744   7.0901
     7.1056   7.1286   7.1478   7.2195   7.2431   7.2796   7.3242   7.3963
     7.4439   7.5729   7.6743   7.7079   7.7410   7.7608   7.8714   7.9825
     8.1163   8.1694   8.2004   8.3147   8.3486   8.3710   8.4397   8.4465
     8.4515   8.4660   8.5051   8.5482   8.5549   8.6987   8.7039   8.7133
     8.7205   8.7408   8.7539   8.8172   8.9049   8.9248   8.9533   8.9893
     9.0446   9.0601   9.2406   9.2563   9.2790   9.2962   9.3294   9.3478
     9.3687   9.3798   9.4032   9.4281   9.4536   9.4765   9.4779   9.4942
     9.5095   9.5871   9.6770   9.7383   9.7862   9.8060   9.8885   9.8983
     9.9525  10.0586

          k = 0.2500 0.0000 0.0000 (256240 PWs)   bands (ev):

   -16.9581 -16.0820 -15.8755 -15.5406 -15.0927 -14.9093 -14.8837 -14.8083
   -14.0186 -13.8715 -13.6569 -13.1875 -13.0931 -13.0262 -12.9634 -12.2666
   -12.1631 -12.0813 -11.9992 -11.1341 -11.1045 -10.7319 -10.6311 -10.2910
   -10.1241  -9.8717  -9.7769  -9.4434  -9.2129  -9.0768  -8.6736  -8.3595
    -7.8291  -7.6504  -7.5804  -7.4410  -7.4101  -7.3500  -6.9703  -6.8000
    -6.2106  -6.1223  -5.9694  -5.8804  -5.8381  -5.8139  -5.3713  -5.3110
    -5.2893  -5.1901  -4.8629  -4.8278  -4.7383  -4.5382  -4.4752  -4.4585
    -4.4399  -4.3850  -4.3149  -4.2844  -4.1829  -4.1009  -4.0000  -3.9781
    -3.9609  -3.8654  -3.8428  -3.8072  -3.7105  -3.6612  -3.5679  -3.5324
    -3.5032  -3.4908  -3.4320  -3.3748  -3.3613  -3.2568  -3.2260  -3.1857
    -3.1330  -3.0889  -2.9892  -2.9329  -2.8654  -2.8135  -2.7998  -2.7909
    -2.7222  -2.6437  -2.5929  -2.5502  -2.4488  -2.4059  -2.3934  -2.3417
    -2.2892  -2.2384  -2.1169  -2.0967  -2.0877  -2.0785  -2.0488  -2.0221
    -1.9810  -1.9598  -1.9360  -1.9195  -1.8772  -1.8124  -1.8051  -1.7994
    -1.7949  -1.7913  -1.7688  -1.7613  -1.7502  -1.7416  -1.7332  -1.7039
    -1.6729  -1.6622  -1.6498  -1.6304  -1.6088  -1.6011  -1.5812  -1.5787
    -1.5770  -1.5751  -1.5697  -1.5611  -1.5507  -1.5086  -1.5042  -1.4943
    -1.4919  -1.4798  -1.4030  -1.3679  -1.3440  -1.3238  -1.3121  -1.3038
    -1.2835  -1.2487  -1.2408  -1.2399  -1.2362  -1.2233  -1.2166  -1.2080
    -1.2052  -1.1835  -1.1826  -1.1726  -1.1712  -1.1599  -1.1545  -1.1382
    -1.1345  -1.1328  -1.1230  -1.1097  -1.1077  -1.1034  -1.0919  -1.0873
    -1.0758  -1.0571  -1.0511  -1.0454  -1.0427  -1.0278  -1.0202  -1.0171
    -1.0099  -1.0063  -1.0041  -0.9850  -0.9837  -0.9815  -0.9780  -0.9771
    -0.9755  -0.9730  -0.9696  -0.9654  -0.9580  -0.9496  -0.9433  -0.9379
    -0.9201  -0.9009  -0.8926  -0.8647  -0.8574  -0.8545  -0.8272  -0.8169
    -0.8148  -0.8014  -0.7970  -0.7864  -0.7770  -0.7712  -0.7619  -0.7538
    -0.7527  -0.7490  -0.7475  -0.7409  -0.7095  -0.6305  -0.6231  -0.6069
    -0.6025  -0.5924  -0.5811  -0.5756  -0.5682  -0.5633  -0.5593  -0.5518
    -0.5507  -0.5420  -0.5366  -0.5320  -0.5287  -0.5260  -0.5103  -0.5076
    -0.5048  -0.4907  -0.4865  -0.4820  -0.4658  -0.4647  -0.4614  -0.4598
    -0.4461  -0.4387  -0.4078  -0.4037  -0.4025  -0.3977  -0.3930  -0.3861
    -0.3834  -0.3768  -0.3702  -0.3686  -0.3651  -0.3615  -0.3360  -0.3325
    -0.3234  -0.3094  -0.3019  -0.3001  -0.2976  -0.2908  -0.2889  -0.2772
    -0.2737  -0.2722  -0.2674  -0.2656  -0.2579  -0.2476  -0.2397  -0.2267
    -0.2156  -0.2116  -0.2087  -0.2010  -0.1957  -0.1924  -0.1859  -0.1847
    -0.1778  -0.1719  -0.1574  -0.1502  -0.1435  -0.1399  -0.1376  -0.1329
    -0.1290  -0.1108  -0.1080  -0.0858  -0.0794  -0.0755  -0.0693  -0.0640
    -0.0517  -0.0468  -0.0367  -0.0306  -0.0251  -0.0213  -0.0155  -0.0118
    -0.0070  -0.0047  -0.0007   0.0011   0.0053   0.0076   0.0156   0.0203
     0.0235   0.0280   0.0297   0.0353   0.0443   0.0492   0.0559   0.0663
     0.0685   0.0725   0.0768   0.0923   0.0964   0.0988   0.1121   0.1153
     0.1207   0.1233   0.1266   0.1363   0.1402   0.1437   0.1464   0.1549
     0.1628   0.1755   0.1994   0.2036   0.2212   0.2356   0.2465   0.2547
     0.2642   0.2677   0.2717   0.2738   0.2788   0.2797   0.2820   0.2847
     0.2865   0.2911   0.2920   0.2994   0.3050   0.3076   0.3102   0.3145
     0.3209   0.3254   0.3298   0.3355   0.3374   0.3410   0.3469   0.3606
     0.3684   0.3766   0.3862   0.3969   0.4053   0.4125   0.4160   0.4209
     0.4282   0.4334   0.4396   0.4504   0.4551   0.4639   0.4675   0.4733
     0.4763   0.4786   0.4842   0.4864   0.4891   0.4933   0.4976   0.5020
     0.5161   0.5188   0.5228   0.5286   0.5315   0.5376   0.5408   0.5466
     0.5509   0.5526   0.5576   0.5700   0.5754   0.5808   0.5902   0.5935
     0.5975   0.6001   0.6073   0.6115   0.6149   0.6190   0.6207   0.6280
     0.6384   0.6416   0.6533   0.6562   0.6573   0.6600   0.6689   0.6705
     0.6751   0.6823   0.6880   0.6955   0.7022   0.7098   0.7244   0.7319
     0.7360   0.7413   0.7421   0.7446   0.7514   0.7620   0.7666   0.7708
     0.7719   0.7736   0.7761   0.7797   0.7909   0.8016   0.8048   0.8082
     0.8172   0.8355   0.8452   0.8488   0.8524   0.8561   0.8640   0.8681
     0.8748   0.8763   0.8778   0.8817   0.8841   0.8893   0.8927   0.8940
     0.9032   0.9060   0.9116   0.9169   0.9217   0.9265   0.9336   0.9417
     0.9513   0.9567   0.9614   0.9734   0.9762   0.9783   0.9819   0.9831
     0.9885   0.9921   0.9943   0.9989   1.0017   1.0075   1.0102   1.0116
     1.0159   1.0182   1.0204   1.0229   1.0247   1.0311   1.0330   1.0400
     1.0471   1.0525   1.0539   1.0597   1.0634   1.0658   1.0686   1.0711
     1.0778   1.0799   1.0851   1.0892   1.0958   1.1002   1.1015   1.1064
     1.1140   1.1198   1.1233   1.1302   1.1320   1.1364   1.1413   1.1500
     1.1534   1.1564   1.1642   1.1764   1.1813   1.1834   1.1862   1.1915
     1.2015   1.2117   1.2181   1.2275   1.2331   1.2346   1.2368   1.2422
     1.2438   1.2461   1.2520   1.2579   1.2592   1.2623   1.2657   1.2695
     1.2742   1.2751   1.2801   1.2814   1.2871   1.2897   1.2948   1.2960
     1.3004   1.3027   1.3074   1.3119   1.3129   1.3192   1.3244   1.3285
     1.3297   1.3353   1.3435   1.3468   1.3482   1.3508   1.3558   1.3578
     1.3646   1.3662   1.3695   1.3776   1.3798   1.3834   1.3884   1.4060
     1.4086   1.4115   1.4125   1.4169   1.4189   1.4206   1.4219   1.4273
     1.4315   1.4337   1.4384   1.4396   1.4411   1.4456   1.4540   1.4567
     1.4614   1.4631   1.4651   1.4675   1.4764   1.4799   1.4806   1.4852
     1.4904   1.4994   1.5027   1.5048   1.5087   1.5192   1.5357   1.5398
     1.5514   1.5550   1.5741   1.5940   1.6125   1.6156   1.6197   1.6281
     1.6455   1.6722   1.7261   1.7407   1.7460   1.7496   1.7681   1.7915
     1.8361   1.8665   1.9579   1.9871   2.0246   2.0490   2.0630   2.0714
     2.1192   2.2038   2.2240   2.4253   2.4391   2.5161   2.5482   2.6378
     2.7798   2.9357   2.9584   2.9882   3.0031   3.0964   3.1860   3.1970
     3.2180   3.2209   3.2991   3.4275   3.4851   3.5472   3.5874   3.6072
     3.6566   3.6648   3.6950   3.7147   3.7291   3.8136   3.8701   3.9264
     3.9817   4.0470   4.0791   4.1548   4.1839   4.2811   4.3876   4.4327
     4.5217   4.6449   4.7109   4.8201   4.8543   4.9953   5.0344   5.1699
     5.2187   5.2344   5.2855   5.3806   5.4041   5.4573   5.4825   5.4992
     5.5728   5.6002   5.6258   5.6712   5.7015   5.7665   5.7879   5.8013
     5.8623   5.9738   5.9945   6.0306   6.0927   6.1692   6.2259   6.6333
     6.6795   6.7313   6.7463   6.7537   6.8014   6.8215   6.8414   6.9210
     6.9428   7.0385   7.0399   7.0831   7.0975   7.2490   7.2684   7.3371
     7.4491   7.4639   7.5005   7.5227   7.5704   7.6689   7.7220   7.7454
     7.7972   7.8453   7.8896   8.0286   8.0445   8.0510   8.0928   8.2081
     8.2377   8.2696   8.2790   8.2917   8.3199   8.3384   8.4153   8.4886
     8.5470   8.6055   8.6591   8.7691   8.9110   8.9714   8.9956   9.0052
     9.0499   9.0814   9.1231   9.1512   9.1850   9.2007   9.2262   9.2402
     9.3366   9.3545   9.3920   9.4291   9.4481   9.4940   9.5723   9.5977
     9.6487   9.6919   9.7197   9.7563   9.8204   9.8477   9.8699   9.8779
     9.8874   9.9724

          k = 0.2500-0.2165 0.0000 (256316 PWs)   bands (ev):

   -16.9573 -16.1320 -15.7634 -15.4486 -15.3651 -15.1453 -14.6347 -14.4735
   -14.1724 -14.0252 -13.6073 -13.2209 -13.1821 -13.0667 -12.7077 -12.5775
   -12.0577 -11.9589 -11.4497 -11.3783 -11.2013 -11.0523 -10.8661 -10.5849
    -9.8036  -9.6413  -9.3738  -9.2669  -9.0456  -8.9845  -8.7307  -8.5296
    -8.3924  -8.3697  -8.0707  -7.0692  -6.8404  -6.7266  -6.5790  -6.5240
    -6.4120  -6.3819  -6.2357  -6.0049  -5.9309  -5.7037  -5.6696  -5.3264
    -5.1718  -4.9963  -4.8754  -4.7850  -4.7511  -4.6750  -4.6539  -4.5933
    -4.4426  -4.3784  -4.3442  -4.3018  -4.2898  -4.1179  -4.0957  -4.0774
    -3.9221  -3.8399  -3.7385  -3.7025  -3.6432  -3.5543  -3.5296  -3.4708
    -3.4586  -3.4389  -3.4086  -3.3096  -3.2918  -3.2138  -3.1251  -3.1096
    -3.0219  -2.9836  -2.9634  -2.9292  -2.9187  -2.8991  -2.8793  -2.7873
    -2.7469  -2.6590  -2.6114  -2.5938  -2.4667  -2.3784  -2.3193  -2.3023
    -2.2804  -2.2048  -2.1834  -2.1657  -2.1600  -2.1453  -2.0632  -2.0159
    -2.0095  -1.9791  -1.9692  -1.9336  -1.9276  -1.8692  -1.8478  -1.8346
    -1.8122  -1.8107  -1.7727  -1.7579  -1.7451  -1.7269  -1.7114  -1.7052
    -1.6996  -1.6959  -1.6865  -1.6825  -1.6769  -1.6717  -1.6674  -1.6627
    -1.6540  -1.5939  -1.5799  -1.5533  -1.5255  -1.5083  -1.4533  -1.4347
    -1.3680  -1.3517  -1.3288  -1.3211  -1.3022  -1.2821  -1.2773  -1.2657
    -1.2617  -1.2561  -1.2517  -1.2496  -1.2445  -1.2291  -1.2287  -1.2243
    -1.2166  -1.2134  -1.2077  -1.2028  -1.1983  -1.1919  -1.1821  -1.1749
    -1.1522  -1.1320  -1.1295  -1.1185  -1.1152  -1.1113  -1.1096  -1.1043
    -1.1002  -1.0934  -1.0810  -1.0417  -1.0395  -1.0366  -1.0292  -1.0262
    -1.0225  -0.9983  -0.9956  -0.9930  -0.9864  -0.9677  -0.9632  -0.9614
    -0.9567  -0.9547  -0.9466  -0.9320  -0.9248  -0.9202  -0.9137  -0.8957
    -0.8742  -0.8684  -0.8633  -0.8593  -0.8559  -0.8325  -0.8267  -0.8005
    -0.7813  -0.7780  -0.7727  -0.7699  -0.7637  -0.7310  -0.7203  -0.7172
    -0.7136  -0.7098  -0.7053  -0.7036  -0.6979  -0.6709  -0.6617  -0.6551
    -0.6301  -0.6245  -0.6106  -0.5906  -0.5841  -0.5796  -0.5775  -0.5670
    -0.5640  -0.5596  -0.5483  -0.5338  -0.5328  -0.5190  -0.5057  -0.4936
    -0.4900  -0.4872  -0.4817  -0.4747  -0.4679  -0.4556  -0.4464  -0.4431
    -0.4329  -0.4263  -0.4220  -0.4208  -0.4049  -0.3986  -0.3944  -0.3876
    -0.3857  -0.3743  -0.3690  -0.3674  -0.3648  -0.3615  -0.3599  -0.3553
    -0.3538  -0.3473  -0.3420  -0.3369  -0.3308  -0.3105  -0.3049  -0.2911
    -0.2827  -0.2713  -0.2688  -0.2645  -0.2548  -0.2459  -0.2377  -0.2343
    -0.2310  -0.2230  -0.2162  -0.2115  -0.2023  -0.1872  -0.1704  -0.1587
    -0.1552  -0.1482  -0.1363  -0.1222  -0.1180  -0.1102  -0.1085  -0.0994
    -0.0967  -0.0881  -0.0841  -0.0786  -0.0730  -0.0688  -0.0600  -0.0552
    -0.0522  -0.0459  -0.0437  -0.0410  -0.0354  -0.0205  -0.0188  -0.0166
    -0.0113  -0.0060  -0.0041  -0.0011   0.0008   0.0016   0.0055   0.0089
     0.0107   0.0200   0.0288   0.0298   0.0327   0.0425   0.0477   0.0524
     0.0578   0.0672   0.0824   0.0934   0.0994   0.1055   0.1155   0.1218
     0.1295   0.1321   0.1362   0.1375   0.1419   0.1467   0.1516   0.1568
     0.1588   0.1725   0.1743   0.1800   0.1872   0.2085   0.2277   0.2419
     0.2499   0.2584   0.2632   0.2706   0.2761   0.2837   0.2850   0.2860
     0.2890   0.2947   0.2988   0.3064   0.3105   0.3135   0.3183   0.3213
     0.3246   0.3292   0.3350   0.3384   0.3463   0.3525   0.3594   0.3781
     0.3792   0.3863   0.3914   0.3950   0.4000   0.4105   0.4164   0.4247
     0.4435   0.4461   0.4480   0.4516   0.4543   0.4591   0.4662   0.4723
     0.4749   0.4764   0.4804   0.4846   0.4867   0.4914   0.5033   0.5127
     0.5193   0.5268   0.5296   0.5362   0.5511   0.5589   0.5661   0.5671
     0.5741   0.5773   0.5834   0.5940   0.5973   0.6004   0.6026   0.6069
     0.6107   0.6151   0.6200   0.6240   0.6284   0.6394   0.6418   0.6445
     0.6506   0.6584   0.6599   0.6648   0.6660   0.6697   0.6705   0.6745
     0.6786   0.6831   0.6852   0.6864   0.6953   0.6975   0.6999   0.7019
     0.7044   0.7106   0.7151   0.7174   0.7215   0.7304   0.7465   0.7506
     0.7613   0.7633   0.7682   0.7767   0.7867   0.7944   0.7988   0.8078
     0.8150   0.8178   0.8219   0.8248   0.8288   0.8404   0.8460   0.8476
     0.8514   0.8527   0.8541   0.8576   0.8642   0.8679   0.8761   0.8818
     0.8834   0.8924   0.8994   0.9018   0.9053   0.9123   0.9203   0.9248
     0.9311   0.9366   0.9388   0.9492   0.9546   0.9642   0.9663   0.9707
     0.9745   0.9798   0.9840   0.9944   0.9993   1.0020   1.0123   1.0182
     1.0245   1.0286   1.0341   1.0425   1.0546   1.0591   1.0645   1.0728
     1.0747   1.0783   1.0840   1.0854   1.0863   1.0880   1.0907   1.0919
     1.0959   1.0983   1.1046   1.1053   1.1131   1.1183   1.1245   1.1280
     1.1395   1.1479   1.1517   1.1565   1.1625   1.1647   1.1683   1.1731
     1.1758   1.1793   1.1807   1.1834   1.1870   1.1885   1.1913   1.1929
     1.1976   1.2003   1.2031   1.2058   1.2088   1.2110   1.2141   1.2181
     1.2284   1.2331   1.2357   1.2383   1.2447   1.2501   1.2608   1.2669
     1.2715   1.2741   1.2768   1.2800   1.2871   1.2901   1.2955   1.3016
     1.3032   1.3056   1.3068   1.3141   1.3211   1.3226   1.3266   1.3297
     1.3354   1.3407   1.3412   1.3437   1.3464   1.3563   1.3609   1.3698
     1.3727   1.3754   1.3776   1.3793   1.3816   1.3830   1.3857   1.3872
     1.3923   1.3989   1.4024   1.4048   1.4078   1.4178   1.4222   1.4241
     1.4293   1.4322   1.4349   1.4357   1.4370   1.4385   1.4391   1.4445
     1.4496   1.4509   1.4708   1.4745   1.4750   1.4844   1.4902   1.4950
     1.4979   1.5028   1.5070   1.5114   1.5162   1.5339   1.5382   1.5466
     1.5512   1.5549   1.5641   1.5767   1.5949   1.6073   1.6255   1.6368
     1.6680   1.6983   1.7414   1.7454   1.7532   1.7587   1.7627   1.7739
     1.7820   1.7945   1.8116   1.8426   2.0402   2.1121   2.1263   2.1427
     2.1603   2.2804   2.3831   2.4256   2.5664   2.5786   2.6723   2.7555
     2.7756   2.7843   2.7872   2.7974   2.8183   2.8715   2.9453   2.9735
     3.0695   3.1983   3.2830   3.3724   3.5284   3.6017   3.6316   3.6789
     3.7318   3.7918   3.8337   3.8703   3.9365   3.9640   4.0251   4.0663
     4.1312   4.1433   4.1742   4.2823   4.3707   4.3989   4.4388   4.4659
     4.5963   4.6093   4.6477   4.7027   4.7606   4.8108   4.8480   4.9425
     4.9703   5.0285   5.1283   5.1693   5.2557   5.2771   5.3763   5.4373
     5.4474   5.4625   5.5187   5.6258   5.7235   5.7575   5.8317   5.8993
     5.9319   5.9594   6.0075   6.1018   6.4010   6.4872   6.5910   6.6203
     6.6495   6.7603   6.7703   6.8014   6.8917   6.9455   7.0069   7.0424
     7.0745   7.0861   7.1133   7.1660   7.2038   7.2093   7.2652   7.3109
     7.3399   7.3948   7.4227   7.4311   7.5161   7.6208   7.6583   7.7096
     7.8174   7.8467   7.8672   7.9077   7.9650   8.1146   8.1657   8.1856
     8.2154   8.2684   8.3368   8.4244   8.4425   8.5889   8.6122   8.6225
     8.6452   8.6697   8.6973   8.7189   8.7943   8.8776   8.8915   8.9036
     8.9272   8.9471   9.0156   9.0565   9.1161   9.1754   9.1857   9.1986
     9.2133   9.2259   9.2357   9.2557   9.3063   9.3400   9.3853   9.4436
     9.4998   9.5110   9.6254   9.6365   9.6699   9.7184   9.8484   9.9521
     9.9681   9.9873

          k =-0.5000 0.0000 0.0000 (256496 PWs)   bands (ev):

   -16.8794 -15.9130 -15.7075 -15.5615 -15.5293 -15.4795 -14.7228 -14.5194
   -14.4518 -14.3990 -13.0735 -12.8369 -12.7105 -12.6234 -12.3717 -12.2951
   -11.8791 -11.8603 -11.7280 -11.7111 -11.1871 -11.1627 -10.8995 -10.6902
   -10.2518 -10.1682  -9.9837  -9.6831  -9.1616  -9.0178  -8.8991  -8.8927
    -8.3303  -7.6791  -7.5056  -7.4425  -7.3076  -7.2773  -7.2561  -6.1348
    -6.0370  -5.7070  -5.3064  -5.3025  -5.1871  -5.0643  -4.9321  -4.8655
    -4.8104  -4.8079  -4.7974  -4.7670  -4.7196  -4.6836  -4.6644  -4.6263
    -4.6098  -4.5565  -4.4903  -4.4442  -4.3543  -4.3128  -4.2960  -4.2756
    -4.0298  -3.9752  -3.9555  -3.9471  -3.7883  -3.6864  -3.6302  -3.5668
    -3.5389  -3.5229  -3.5081  -3.4402  -3.4176  -3.4092  -3.3738  -3.3590
    -3.3192  -3.3031  -3.2866  -2.9938  -2.9461  -2.8763  -2.8226  -2.7675
    -2.7237  -2.7160  -2.6919  -2.6282  -2.6070  -2.5346  -2.4693  -2.4106
    -2.3859  -2.3324  -2.3296  -2.3082  -2.1616  -1.9070  -1.8930  -1.8781
    -1.8746  -1.8732  -1.8690  -1.8553  -1.8331  -1.8233  -1.7897  -1.7575
    -1.7514  -1.6863  -1.6614  -1.6547  -1.6494  -1.6411  -1.6107  -1.6000
    -1.5959  -1.5927  -1.5863  -1.5439  -1.5095  -1.4910  -1.4904  -1.4723
    -1.4442  -1.4252  -1.4237  -1.4145  -1.4080  -1.4052  -1.4042  -1.3942
    -1.3869  -1.3751  -1.3580  -1.3565  -1.3526  -1.3493  -1.3428  -1.3394
    -1.3352  -1.3022  -1.2989  -1.2978  -1.2928  -1.2785  -1.2710  -1.2671
    -1.2644  -1.2454  -1.2246  -1.2029  -1.2005  -1.1910  -1.1855  -1.1829
    -1.1788  -1.1765  -1.1690  -1.1576  -1.1482  -1.1456  -1.1365  -1.1080
    -1.1073  -1.1068  -1.1055  -1.0863  -1.0805  -1.0655  -1.0603  -1.0562
    -1.0511  -1.0237  -0.9994  -0.9947  -0.9909  -0.9866  -0.9810  -0.9763
    -0.9731  -0.9711  -0.9596  -0.9520  -0.9414  -0.9376  -0.9358  -0.9300
    -0.9284  -0.9242  -0.9235  -0.9182  -0.9099  -0.8793  -0.8725  -0.8643
    -0.8420  -0.8308  -0.8033  -0.7944  -0.7516  -0.7212  -0.7159  -0.7126
    -0.7089  -0.7058  -0.6900  -0.6813  -0.6778  -0.6744  -0.6706  -0.6689
    -0.6587  -0.6486  -0.6392  -0.6379  -0.6322  -0.6202  -0.6163  -0.6152
    -0.6039  -0.5959  -0.5884  -0.5852  -0.5587  -0.5309  -0.5213  -0.5040
    -0.4984  -0.4907  -0.4788  -0.4686  -0.4634  -0.4570  -0.4395  -0.4232
    -0.4149  -0.4092  -0.4062  -0.4038  -0.3970  -0.3933  -0.3830  -0.3722
    -0.3696  -0.3669  -0.3660  -0.3616  -0.3553  -0.3447  -0.3401  -0.3367
    -0.3347  -0.3099  -0.3031  -0.2985  -0.2912  -0.2909  -0.2868  -0.2837
    -0.2552  -0.2542  -0.2501  -0.2490  -0.2405  -0.2364  -0.2263  -0.2115
    -0.2073  -0.1959  -0.1841  -0.1669  -0.1607  -0.1450  -0.1416  -0.1407
    -0.1312  -0.1288  -0.1278  -0.1139  -0.1108  -0.0935  -0.0910  -0.0727
    -0.0589  -0.0559  -0.0547  -0.0409  -0.0359  -0.0311  -0.0287  -0.0272
    -0.0234  -0.0212  -0.0188  -0.0134  -0.0118  -0.0093  -0.0070   0.0129
     0.0332   0.0405   0.0496   0.0557   0.0585   0.0610   0.0647   0.0688
     0.0714   0.0743   0.0771   0.0806   0.0843   0.0893   0.0938   0.0958
     0.0989   0.1075   0.1100   0.1139   0.1143   0.1174   0.1192   0.1218
     0.1237   0.1249   0.1274   0.1316   0.1392   0.1427   0.1452   0.1460
     0.1477   0.1516   0.1536   0.1561   0.1700   0.1791   0.1954   0.2014
     0.2178   0.2584   0.2682   0.2721   0.2941   0.3017   0.3110   0.3120
     0.3167   0.3187   0.3241   0.3274   0.3316   0.3342   0.3368   0.3401
     0.3427   0.3458   0.3476   0.3503   0.3503   0.3595   0.3606   0.3617
     0.3660   0.3670   0.3717   0.3729   0.3742   0.3792   0.3840   0.3867
     0.3889   0.3959   0.4040   0.4058   0.4253   0.4474   0.4528   0.4563
     0.4655   0.4706   0.4824   0.4941   0.4964   0.5001   0.5116   0.5127
     0.5161   0.5202   0.5215   0.5243   0.5246   0.5276   0.5315   0.5340
     0.5371   0.5376   0.5394   0.5427   0.5532   0.5547   0.5569   0.5639
     0.5682   0.5794   0.5813   0.5904   0.5948   0.6029   0.6083   0.6126
     0.6148   0.6180   0.6225   0.6268   0.6276   0.6299   0.6355   0.6358
     0.6396   0.6486   0.6513   0.6562   0.6596   0.6626   0.6674   0.6769
     0.6784   0.6885   0.7048   0.7064   0.7105   0.7118   0.7189   0.7219
     0.7245   0.7295   0.7426   0.7474   0.7628   0.7637   0.7724   0.7810
     0.7960   0.8056   0.8164   0.8234   0.8298   0.8305   0.8352   0.8371
     0.8390   0.8403   0.8420   0.8435   0.8502   0.8535   0.8563   0.8591
     0.8610   0.8680   0.8763   0.8781   0.8794   0.8826   0.8853   0.8987
     0.9052   0.9068   0.9100   0.9179   0.9214   0.9301   0.9318   0.9436
     0.9560   0.9640   0.9674   0.9970   0.9989   1.0044   1.0074   1.0159
     1.0181   1.0274   1.0337   1.0528   1.0592   1.0608   1.0641   1.0668
     1.0713   1.0751   1.0851   1.0861   1.0910   1.0973   1.0975   1.1070
     1.1134   1.1148   1.1168   1.1220   1.1234   1.1253   1.1261   1.1277
     1.1320   1.1335   1.1365   1.1387   1.1401   1.1516   1.1652   1.1672
     1.1733   1.1768   1.1785   1.1797   1.1817   1.1945   1.1979   1.2049
     1.2054   1.2161   1.2219   1.2299   1.2315   1.2330   1.2381   1.2418
     1.2424   1.2429   1.2465   1.2491   1.2532   1.2588   1.2601   1.2645
     1.2710   1.2791   1.2817   1.2972   1.3009   1.3040   1.3061   1.3083
     1.3108   1.3127   1.3136   1.3153   1.3167   1.3193   1.3213   1.3248
     1.3250   1.3268   1.3279   1.3287   1.3303   1.3322   1.3327   1.3369
     1.3439   1.3455   1.3465   1.3560   1.3575   1.3610   1.3665   1.3696
     1.3748   1.3756   1.3801   1.3808   1.4021   1.4102   1.4123   1.4143
     1.4177   1.4192   1.4245   1.4262   1.4296   1.4353   1.4388   1.4427
     1.4456   1.4511   1.4531   1.4571   1.4591   1.4606   1.4631   1.4674
     1.4680   1.4711   1.4721   1.4746   1.4829   1.4887   1.5094   1.5100
     1.5114   1.5122   1.5127   1.5172   1.5173   1.5282   1.5674   1.5688
     1.5889   1.5931   1.6021   1.6032   1.6069   1.6161   1.8181   1.9167
     1.9919   2.0257   2.0674   2.1526   2.2200   2.2293   2.2431   2.2696
     2.2806   2.2862   2.4076   2.4827   2.5025   2.6098   2.6801   2.7231
     2.7596   2.8131   2.8273   2.8601   3.1271   3.1539   3.1770   3.1904
     3.2587   3.3127   3.5151   3.6003   3.7468   3.7739   3.8218   3.8361
     3.9091   3.9162   4.0195   4.0529   4.0652   4.0838   4.1362   4.1522
     4.2572   4.3950   4.4907   4.6019   4.6452   4.7266   4.7415   4.7920
     4.8102   4.8201   4.8383   4.8899   4.9104   4.9392   4.9628   5.0123
     5.0274   5.0296   5.0430   5.0553   5.0629   5.0870   5.1545   5.1804
     5.3256   5.3856   5.4143   5.4576   5.4931   5.5677   5.6148   5.7296
     5.8036   5.8245   5.8524   5.9648   5.9893   6.0001   6.0070   6.0249
     6.0729   6.1446   6.2662   6.4048   6.4114   6.4409   6.4561   6.5030
     6.5414   6.5901   7.0160   7.0682   7.0895   7.0998   7.2064   7.2444
     7.5149   7.5623   7.5942   7.5997   7.6048   7.6113   7.7200   7.7354
     7.7630   7.8051   7.8207   7.8768   7.9042   7.9475   7.9647   8.0081
     8.0450   8.0779   8.0842   8.1167   8.1905   8.2658   8.3646   8.4535
     8.7023   8.7296   8.7583   8.7751   8.7825   8.7930   8.8142   8.8209
     8.8858   8.9292   9.0043   9.0056   9.0430   9.0746   9.1697   9.2500
     9.2567   9.3135   9.3866   9.4467   9.4890   9.5010   9.5064   9.5091
     9.5098   9.5129   9.5143   9.5191   9.6866   9.7606   9.8126   9.8738
     9.8831  10.0049

          k =-0.5000-0.2165 0.0000 (256328 PWs)   bands (ev):

   -16.8792 -15.8659 -15.7697 -15.7516 -15.3143 -15.1225 -15.0889 -15.0320
   -13.9517 -13.7464 -13.6473 -13.5923 -12.5514 -12.3644 -11.9513 -11.9499
   -11.8409 -11.6881 -11.6104 -11.5247 -11.4711 -11.4565 -11.3610 -11.3400
    -9.9749  -9.8534  -9.7122  -9.6776  -9.2102  -8.8190  -8.7735  -8.6719
    -8.4122  -8.1118  -8.0114  -7.9603  -7.8303  -6.4103  -6.1267  -6.0032
    -5.8506  -5.7124  -5.5135  -5.2947  -5.2433  -5.2324  -5.1808  -5.1791
    -5.1658  -5.1528  -5.0797  -4.9773  -4.9623  -4.6490  -4.4193  -4.3403
    -4.3209  -4.2985  -4.2308  -4.2116  -4.1972  -4.1882  -4.1858  -4.1745
    -4.1009  -4.0177  -3.9873  -3.8882  -3.8647  -3.8375  -3.7936  -3.7182
    -3.6652  -3.6299  -3.6136  -3.5631  -3.5490  -3.5084  -3.4160  -3.3996
    -3.3449  -3.1794  -3.0764  -3.0375  -3.0195  -2.6100  -2.5981  -2.5877
    -2.5716  -2.5588  -2.5563  -2.5383  -2.5253  -2.5109  -2.4837  -2.3768
    -2.2850  -2.2461  -2.1632  -2.1419  -2.0930  -2.0824  -2.0793  -2.0509
    -2.0479  -2.0179  -2.0159  -2.0011  -1.9616  -1.8798  -1.8372  -1.8052
    -1.8023  -1.7894  -1.7801  -1.7294  -1.7014  -1.6174  -1.5704  -1.5246
    -1.5052  -1.4974  -1.4906  -1.4898  -1.4863  -1.4821  -1.4683  -1.4582
    -1.4423  -1.4370  -1.4282  -1.4278  -1.4091  -1.4027  -1.3943  -1.3875
    -1.3857  -1.3798  -1.3775  -1.3718  -1.3645  -1.3592  -1.3582  -1.3560
    -1.3510  -1.3251  -1.3195  -1.3057  -1.3033  -1.3026  -1.2779  -1.2408
    -1.2359  -1.2068  -1.1977  -1.1911  -1.1904  -1.1851  -1.1831  -1.1768
    -1.1678  -1.1645  -1.1528  -1.1441  -1.1398  -1.1218  -1.1195  -1.1182
    -1.1146  -1.1132  -1.1074  -1.0990  -1.0903  -1.0871  -1.0638  -1.0581
    -1.0524  -1.0503  -1.0453  -1.0434  -1.0420  -1.0385  -1.0367  -1.0354
    -1.0314  -1.0290  -1.0239  -0.9985  -0.9698  -0.9548  -0.9254  -0.9040
    -0.8808  -0.8546  -0.8541  -0.8533  -0.8513  -0.8345  -0.8244  -0.7975
    -0.7905  -0.7771  -0.7762  -0.7701  -0.7697  -0.7667  -0.7630  -0.7607
    -0.7543  -0.7233  -0.7073  -0.7021  -0.6997  -0.6965  -0.6951  -0.6927
    -0.6864  -0.6822  -0.6782  -0.6768  -0.6627  -0.6397  -0.6206  -0.5834
    -0.5820  -0.5736  -0.5700  -0.5656  -0.5567  -0.5482  -0.5220  -0.5129
    -0.5054  -0.4988  -0.4836  -0.4662  -0.4622  -0.4547  -0.4536  -0.4493
    -0.4483  -0.4303  -0.4296  -0.4238  -0.4139  -0.4032  -0.4012  -0.3993
    -0.3930  -0.3912  -0.3804  -0.3647  -0.3585  -0.3374  -0.3226  -0.2946
    -0.2881  -0.2758  -0.2751  -0.2661  -0.2626  -0.2556  -0.2549  -0.2521
    -0.2453  -0.2404  -0.2355  -0.2111  -0.1909  -0.1735  -0.1709  -0.1683
    -0.1673  -0.1642  -0.1572  -0.1548  -0.1486  -0.1462  -0.1417  -0.1255
    -0.1226  -0.1166  -0.1113  -0.1110  -0.1084  -0.1068  -0.1036  -0.1033
    -0.0998  -0.0977  -0.0885  -0.0805  -0.0629  -0.0479  -0.0424  -0.0260
    -0.0194  -0.0107  -0.0079  -0.0021   0.0055   0.0118   0.0312   0.0494
     0.0529   0.0598   0.0684   0.0705   0.0742   0.0752   0.0770   0.0786
     0.0827   0.0830   0.0838   0.0863   0.0901   0.0939   0.0956   0.0977
     0.0983   0.1018   0.1076   0.1101   0.1146   0.1174   0.1201   0.1227
     0.1265   0.1331   0.1361   0.1380   0.1430   0.1449   0.1515   0.1573
     0.1617   0.1647   0.1730   0.1796   0.2025   0.2071   0.2109   0.2146
     0.2338   0.2349   0.2442   0.2465   0.2517   0.2894   0.3069   0.3131
     0.3169   0.3224   0.3256   0.3294   0.3340   0.3350   0.3385   0.3404
     0.3451   0.3501   0.3540   0.3554   0.3593   0.3622   0.3652   0.3667
     0.3679   0.3708   0.3727   0.3749   0.3845   0.3926   0.3968   0.3990
     0.4046   0.4064   0.4179   0.4190   0.4252   0.4335   0.4370   0.4438
     0.4630   0.4650   0.4667   0.4682   0.4714   0.4792   0.4846   0.4888
     0.4921   0.4980   0.5068   0.5121   0.5133   0.5228   0.5274   0.5354
     0.5372   0.5453   0.5485   0.5514   0.5594   0.5607   0.5664   0.5682
     0.5684   0.5697   0.5722   0.5738   0.5774   0.5801   0.5827   0.5843
     0.5874   0.5955   0.5967   0.6035   0.6272   0.6292   0.6464   0.6608
     0.6640   0.6679   0.6740   0.6768   0.6812   0.6837   0.6855   0.6867
     0.6879   0.6933   0.6964   0.7063   0.7132   0.7143   0.7190   0.7207
     0.7259   0.7280   0.7298   0.7305   0.7403   0.7513   0.7598   0.7652
     0.7788   0.7814   0.7889   0.7946   0.8044   0.8100   0.8141   0.8153
     0.8278   0.8311   0.8340   0.8411   0.8456   0.8497   0.8564   0.8649
     0.8714   0.8760   0.8839   0.9141   0.9201   0.9221   0.9253   0.9363
     0.9405   0.9445   0.9583   0.9654   0.9801   0.9897   0.9899   0.9960
     1.0069   1.0098   1.0135   1.0137   1.0182   1.0273   1.0285   1.0328
     1.0335   1.0374   1.0405   1.0420   1.0441   1.0447   1.0460   1.0485
     1.0531   1.0580   1.0590   1.0612   1.0658   1.0667   1.0675   1.0759
     1.0802   1.0816   1.0905   1.0962   1.0994   1.1007   1.1171   1.1197
     1.1207   1.1234   1.1247   1.1259   1.1305   1.1316   1.1345   1.1383
     1.1427   1.1473   1.1623   1.1745   1.1757   1.1828   1.1861   1.1918
     1.1938   1.2001   1.2035   1.2106   1.2133   1.2187   1.2258   1.2316
     1.2347   1.2371   1.2490   1.2505   1.2541   1.2565   1.2581   1.2650
     1.2678   1.2719   1.2757   1.2776   1.2789   1.2829   1.2862   1.2893
     1.3130   1.3190   1.3197   1.3256   1.3303   1.3348   1.3457   1.3464
     1.3506   1.3529   1.3553   1.3557   1.3568   1.3592   1.3612   1.3659
     1.3701   1.3708   1.3712   1.3728   1.3758   1.3796   1.3835   1.3844
     1.3851   1.3869   1.3892   1.3904   1.3940   1.3987   1.4017   1.4024
     1.4031   1.4045   1.4059   1.4085   1.4288   1.4307   1.4386   1.4407
     1.4455   1.4458   1.4495   1.4535   1.4564   1.4622   1.4676   1.4690
     1.4896   1.4928   1.4973   1.4989   1.5218   1.5282   1.5360   1.5421
     1.5459   1.5588   1.5663   1.5705   1.5712   1.5779   1.5851   1.5913
     1.5923   1.5966   1.5991   1.6057   1.6071   1.6078   1.6134   1.6139
     1.7682   1.7779   1.8250   1.8269   2.0913   2.1433   2.3152   2.3387
     2.4117   2.4589   2.5046   2.5492   2.5561   2.5764   2.7371   2.7838
     2.7878   2.8777   2.9659   3.0064   3.0803   3.1713   3.3034   3.4104
     3.4476   3.4550   3.5332   3.6075   3.6357   3.6392   3.8110   3.8344
     3.9233   3.9306   3.9730   3.9989   4.2070   4.2276   4.2327   4.2856
     4.3112   4.3435   4.3600   4.4087   4.4711   4.5404   4.5532   4.5873
     4.6104   4.6518   4.7677   4.8035   4.8983   4.9021   4.9585   4.9872
     5.0517   5.0864   5.1454   5.1600   5.1650   5.1988   5.2334   5.2693
     5.2921   5.3064   5.3298   5.3380   5.5045   5.5553   5.6675   5.6867
     5.6934   5.7449   5.7488   5.7511   5.7535   5.7905   5.8424   5.8889
     5.9695   6.0457   6.7343   6.7582   6.8109   6.8158   6.8794   6.9288
     7.1004   7.1124   7.1254   7.1407   7.1464   7.1872   7.1983   7.2554
     7.2968   7.3180   7.3306   7.3631   7.3709   7.3996   7.4474   7.5593
     7.5826   7.7645   7.8064   7.8911   7.9360   7.9453   7.9980   8.0287
     8.1642   8.2050   8.2146   8.2352   8.2391   8.3605   8.4011   8.4088
     8.4586   8.5846   8.7320   8.8583   8.8791   8.8936   8.9063   8.9225
     8.9301   8.9356   8.9416   8.9623   9.0430   9.1126   9.1226   9.1332
     9.1367   9.1578   9.2771   9.3422   9.3930   9.4014   9.4148   9.4732
     9.5193   9.5422   9.5541   9.5615   9.6226   9.7633   9.8028   9.8608
     9.9957  10.0003

     the Fermi energy is     3.3205 ev

!    total energy              =  -12718.44136419 Ry
     Harris-Foulkes estimate   =  -12718.44136422 Ry
     estimated scf accuracy    <          6.2E-09 Ry

     The total energy is the sum of the following terms:

     one-electron contribution = -109418.26928674 Ry
     hartree contribution      =   56072.42970855 Ry
     xc contribution           =   -4451.10064833 Ry
     ewald contribution        =   45084.87057564 Ry
     Dispersion Correction     =      -3.00636478 Ry
     smearing contrib. (-TS)   =      -3.36534853 Ry

     convergence has been achieved in  43 iterations

     Writing output data file gc.save
 
     init_run     :     98.78s CPU    107.26s WALL (       1 calls)
     electrons    :  12263.25s CPU  13101.39s WALL (       1 calls)

     Called by init_run:
     wfcinit      :     96.55s CPU    104.17s WALL (       1 calls)
     potinit      :      0.36s CPU      0.46s WALL (       1 calls)

     Called by electrons:
     c_bands      :  11312.02s CPU  12056.35s WALL (      43 calls)
     sum_band     :    793.21s CPU    860.75s WALL (      43 calls)
     v_of_rho     :      2.86s CPU      3.55s WALL (      44 calls)
     newd         :      7.96s CPU     13.50s WALL (      44 calls)
     mix_rho      :    146.97s CPU    167.09s WALL (      43 calls)

     Called by c_bands:
     init_us_2    :     35.78s CPU     36.31s WALL (     522 calls)
     cegterg      :  11154.35s CPU  11892.78s WALL (     265 calls)

     Called by sum_band:
     sum_band:bec :      4.47s CPU      4.98s WALL (     258 calls)
     addusdens    :      7.82s CPU     13.21s WALL (      43 calls)

     Called by *egterg:
     h_psi        :   3960.15s CPU   4285.04s WALL (    1959 calls)
     s_psi        :    941.42s CPU    952.75s WALL (    1959 calls)
     g_psi        :     10.27s CPU     10.27s WALL (    1688 calls)
     cdiaghg      :   3456.09s CPU   3586.52s WALL (    1946 calls)

     Called by h_psi:
     add_vuspsi   :    946.13s CPU    959.59s WALL (    1959 calls)

     General routines
     calbec       :   1358.34s CPU   1368.12s WALL (    2217 calls)
     fft          :      3.40s CPU      4.15s WALL (     571 calls)
     ffts         :     85.62s CPU     97.34s WALL (   22836 calls)
     fftw         :   2290.64s CPU   2550.62s WALL ( 1271526 calls)
     davcio       :      0.24s CPU      3.30s WALL (       6 calls)
 
     Parallel routines
     fft_scatter  :   1481.29s CPU   1623.29s WALL ( 1294933 calls)
 
     PWSCF        :     3h26m CPU        3h40m WALL

 
   This run was terminated on:  16: 0:37   1May2017            

=------------------------------------------------------------------------------=
   JOB DONE.
=------------------------------------------------------------------------------=
