
     Program PWSCF v.5.4.0 starts on  4Nov2016 at 23: 0:43 

     This program is part of the open-source Quantum ESPRESSO suite
     for quantum simulation of materials; please cite
         "P. Giannozzi et al., J. Phys.:Condens. Matter 21 395502 (2009);
          URL http://www.quantum-espresso.org", 
     in publications or presentations arising from this work. More details at
     http://www.quantum-espresso.org/quote

     Parallel version (MPI & OpenMP), running on      64 processor cores
     Number of MPI processes:                64
     Threads/MPI process:                     1
     R & G space division:  proc/nbgrp/npool/nimage =      64
     Waiting for input...
     Reading input from standard input

     Current dimensions of program PWSCF are:
     Max number of different atomic species (ntypx) = 10
     Max number of k-points (npk) =  40000
     Max angular momentum in pseudopotentials (lmaxx) =  3

     -------------------------------------
     Parameters for Dispersion Correction:
     -------------------------------------
       atom      VdW radius       C_6     

        C_h        2.744         60.710
        C          2.744         60.710

     Subspace diagonalization in iterative solution of the eigenvalue problem:
     one sub-group per band group will be used
     scalapack distributed-memory algorithm (size of sub-group:  5*  5 procs)

     Message from routine setup:
     no reason to have ecutrho>4*ecutwfc
 
     Parallelization info
     --------------------
     sticks:   dense  smooth     PW     G-vecs:    dense   smooth      PW
     Min         127     113     28                 6867     5743     718
     Max         128     114     29                 6872     5770     721
     Sum        8161    7269   1815               439573   368489   46005
 


     bravais-lattice index     =            0
     lattice parameter (alat)  =      27.5793  a.u.
     unit-cell volume          =   10780.2123 (a.u.)^3
     number of atoms/cell      =           60
     number of atomic types    =            2
     number of electrons       =       240.00
     number of Kohn-Sham states=          144
     kinetic-energy cutoff     =      40.0000  Ry
     charge density cutoff     =     180.0000  Ry
     convergence threshold     =      1.0E-10
     mixing beta               =       0.7000
     number of iterations used =            8  plain     mixing
     Exchange-correlation      =  SLA  PW   PBX  PBC ( 1  4  3  4 0 0)
     nstep                     =           50


     celldm(1)=  27.579319  celldm(2)=   0.000000  celldm(3)=   0.000000
     celldm(4)=   0.000000  celldm(5)=   0.000000  celldm(6)=   0.000000

     crystal axes: (cart. coord. in units of alat)
               a(1) = (   1.000000   0.000000   0.000000 )  
               a(2) = (  -0.433013   0.750000   0.000000 )  
               a(3) = (   0.000000   0.000000   0.685197 )  

     reciprocal axes: (cart. coord. in units 2 pi/alat)
               b(1) = (  1.000000  0.577350  0.000000 )  
               b(2) = (  0.000000  1.333333  0.000000 )  
               b(3) = (  0.000000  0.000000  1.459435 )  


     PseudoPot. # 1 for C  read from file:
     /home/549/hxw549/Short/pseudopotentials/C.star1s-pbe-mt_gipaw.UPF
     MD5 check sum: ef0cb3dee31bd9e4ba2a832a2c716264
     Pseudo is Norm-conserving, Zval =  5.0
     Generated by new atomic code, or converted to UPF format
     Using radial grid of 1073 points,  1 beta functions with: 
                l(1) =   0

     PseudoPot. # 2 for C  read from file:
     /home/549/hxw549/Short/pseudopotentials/C.pbe-mt_gipaw.UPF
     MD5 check sum: 5ac2f21f2c440b14befe521540822c15
     Pseudo is Norm-conserving, Zval =  4.0
     Generated by new atomic code, or converted to UPF format
     Using radial grid of 1073 points,  1 beta functions with: 
                l(1) =   0

     atomic species   valence    mass     pseudopotential
        C_h            5.00    12.01070     C ( 1.00)
        C              4.00    12.01070     C ( 1.00)

      2 Sym. Ops. (no inversion) found



   Cartesian axes

     site n.     atom                  positions (alat units)
         1           C   tau(   1) = (   0.0822436   0.0500000   0.3425984  )
         2           C   tau(   2) = (  -0.0021795   0.1000000   0.3425984  )
         3           C   tau(   3) = (   0.2489103   0.0500000   0.3425984  )
         4           C   tau(   4) = (   0.1644872   0.1000000   0.3425984  )
         5           C   tau(   5) = (   0.4155769   0.0500000   0.3425984  )
         6           C   tau(   6) = (   0.3311538   0.1000000   0.3425984  )
         7           C   tau(   7) = (   0.5822436   0.0500000   0.3425984  )
         8           C   tau(   8) = (   0.4978205   0.1000000   0.3425984  )
         9           C   tau(   9) = (   0.7489103   0.0500000   0.3425984  )
        10           C   tau(  10) = (   0.6644872   0.1000000   0.3425984  )
        11           C   tau(  11) = (   0.9155769   0.0500000   0.3425984  )
        12           C   tau(  12) = (   0.8311538   0.1000000   0.3425984  )
        13           C   tau(  13) = (  -0.0043590   0.2000001   0.3425984  )
        14           C   tau(  14) = (  -0.0887820   0.2500001   0.3425984  )
        15           C   tau(  15) = (   0.1623077   0.2000001   0.3425984  )
        16           C   tau(  16) = (   0.0778846   0.2500001   0.3425984  )
        17           C   tau(  17) = (   0.3289744   0.2000001   0.3425984  )
        18           C   tau(  18) = (   0.2445513   0.2500001   0.3425984  )
        19           C   tau(  19) = (   0.4956410   0.2000001   0.3425984  )
        20           C   tau(  20) = (   0.4112180   0.2500001   0.3425984  )
        21           C   tau(  21) = (   0.6623077   0.2000001   0.3425984  )
        22           C   tau(  22) = (   0.5778846   0.2500001   0.3425984  )
        23           C   tau(  23) = (   0.8289744   0.2000001   0.3425984  )
        24           C   tau(  24) = (   0.7445513   0.2500001   0.3425984  )
        25           C   tau(  25) = (  -0.0909615   0.3500001   0.3425984  )
        26           C   tau(  26) = (  -0.1753846   0.4000001   0.3425984  )
        27           C   tau(  27) = (   0.0757051   0.3500001   0.3425984  )
        28           C   tau(  28) = (  -0.0087179   0.4000001   0.3425984  )
        29           C   tau(  29) = (   0.2423718   0.3500001   0.3425984  )
        30           C   tau(  30) = (   0.1579487   0.4000001   0.3425984  )
        31           C_h tau(  31) = (   0.4090385   0.3500001   0.3425984  )
        32           C   tau(  32) = (   0.3246154   0.4000001   0.3425984  )
        33           C   tau(  33) = (   0.5757051   0.3500001   0.3425984  )
        34           C   tau(  34) = (   0.4912821   0.4000001   0.3425984  )
        35           C   tau(  35) = (   0.7423718   0.3500001   0.3425984  )
        36           C   tau(  36) = (   0.6579487   0.4000001   0.3425984  )
        37           C   tau(  37) = (  -0.1775641   0.5000001   0.3425984  )
        38           C   tau(  38) = (  -0.2619872   0.5500001   0.3425984  )
        39           C   tau(  39) = (  -0.0108974   0.5000001   0.3425984  )
        40           C   tau(  40) = (  -0.0953205   0.5500001   0.3425984  )
        41           C   tau(  41) = (   0.1557692   0.5000001   0.3425984  )
        42           C   tau(  42) = (   0.0713462   0.5500001   0.3425984  )
        43           C   tau(  43) = (   0.3224359   0.5000001   0.3425984  )
        44           C   tau(  44) = (   0.2380128   0.5500001   0.3425984  )
        45           C   tau(  45) = (   0.4891026   0.5000001   0.3425984  )
        46           C   tau(  46) = (   0.4046795   0.5500001   0.3425984  )
        47           C   tau(  47) = (   0.6557692   0.5000001   0.3425984  )
        48           C   tau(  48) = (   0.5713462   0.5500001   0.3425984  )
        49           C   tau(  49) = (  -0.2641667   0.6500002   0.3425984  )
        50           C   tau(  50) = (  -0.3485897   0.7000002   0.3425984  )
        51           C   tau(  51) = (  -0.0975000   0.6500002   0.3425984  )
        52           C   tau(  52) = (  -0.1819231   0.7000002   0.3425984  )
        53           C   tau(  53) = (   0.0691667   0.6500002   0.3425984  )
        54           C   tau(  54) = (  -0.0152564   0.7000002   0.3425984  )
        55           C   tau(  55) = (   0.2358333   0.6500002   0.3425984  )
        56           C   tau(  56) = (   0.1514103   0.7000002   0.3425984  )
        57           C   tau(  57) = (   0.4025000   0.6500002   0.3425984  )
        58           C   tau(  58) = (   0.3180769   0.7000002   0.3425984  )
        59           C   tau(  59) = (   0.5691667   0.6500002   0.3425984  )
        60           C   tau(  60) = (   0.4847436   0.7000002   0.3425984  )

     number of k points=     1  gaussian smearing, width (Ry)=  0.1000
                       cart. coord. in units 2pi/alat
        k(    1) = (   0.0000000   0.0000000   0.0000000), wk =   2.0000000

     Dense  grid:   439573 G-vectors     FFT dimensions: ( 120, 108,  81)

     Smooth grid:   368489 G-vectors     FFT dimensions: ( 120, 100,  80)

     Largest allocated arrays     est. size (Mb)     dimensions
        Kohn-Sham Wavefunctions         1.58 Mb     (     721,  144)
        NL pseudopotentials             0.66 Mb     (     721,   60)
        Each V/rho on FFT grid          0.40 Mb     (   25920)
        Each G-vector array             0.05 Mb     (    6872)
        G-vector shells                 0.03 Mb     (    3481)
     Largest temporary arrays     est. size (Mb)     dimensions
        Auxiliary wavefunctions         6.34 Mb     (     721,  576)
        Each subspace H/S matrix        0.20 Mb     (     115,  115)
        Each <psi_i|beta_j> matrix      0.13 Mb     (      60,  144)
        Arrays for rho mixing           3.16 Mb     (   25920,    8)

     Initial potential from superposition of free atoms
     Check: negative starting charge=   -0.002600

     starting charge  209.99992, renormalised to  240.00000

     negative rho (up, down):  2.971E-03 0.000E+00
     Starting wfc are  480 randomized atomic wfcs

     total cpu time spent up to now is        3.4 secs

     Self-consistent Calculation

     iteration #  1     ecut=    40.00 Ry     beta=0.70
     Davidson diagonalization with overlap
     ethr =  1.00E-04,  avg # of iterations =  8.0

     negative rho (up, down):  5.695E-04 0.000E+00

     total cpu time spent up to now is        5.8 secs

     total energy              =    -686.87771544 Ry
     Harris-Foulkes estimate   =    -693.11700606 Ry
     estimated scf accuracy    <       8.09947203 Ry

     iteration #  2     ecut=    40.00 Ry     beta=0.70
     Davidson diagonalization with overlap
     ethr =  3.37E-03,  avg # of iterations =  7.0

     negative rho (up, down):  7.184E-05 0.000E+00

     total cpu time spent up to now is        7.9 secs

     total energy              =    -671.52114901 Ry
     Harris-Foulkes estimate   =    -706.45368112 Ry
     estimated scf accuracy    <     157.54858871 Ry

     iteration #  3     ecut=    40.00 Ry     beta=0.70
     Davidson diagonalization with overlap
     ethr =  3.37E-03,  avg # of iterations =  7.0

     negative rho (up, down):  2.930E-05 0.000E+00

     total cpu time spent up to now is       10.0 secs

     total energy              =    -691.42764495 Ry
     Harris-Foulkes estimate   =    -692.12263208 Ry
     estimated scf accuracy    <       2.43196293 Ry

     iteration #  4     ecut=    40.00 Ry     beta=0.70
     Davidson diagonalization with overlap
     ethr =  1.01E-03,  avg # of iterations =  6.0

     negative rho (up, down):  1.781E-06 0.000E+00

     total cpu time spent up to now is       11.4 secs

     total energy              =    -691.64546961 Ry
     Harris-Foulkes estimate   =    -691.87371335 Ry
     estimated scf accuracy    <       0.71729649 Ry

     iteration #  5     ecut=    40.00 Ry     beta=0.70
     Davidson diagonalization with overlap
     ethr =  2.99E-04,  avg # of iterations =  6.0

     negative rho (up, down):  4.512E-08 0.000E+00

     total cpu time spent up to now is       12.9 secs

     total energy              =    -691.71062714 Ry
     Harris-Foulkes estimate   =    -691.77881078 Ry
     estimated scf accuracy    <       0.22977634 Ry

     iteration #  6     ecut=    40.00 Ry     beta=0.70
     Davidson diagonalization with overlap
     ethr =  9.57E-05,  avg # of iterations =  4.0

     total cpu time spent up to now is       14.0 secs

     total energy              =    -691.73417406 Ry
     Harris-Foulkes estimate   =    -691.74737264 Ry
     estimated scf accuracy    <       0.04553311 Ry

     iteration #  7     ecut=    40.00 Ry     beta=0.70
     Davidson diagonalization with overlap
     ethr =  1.90E-05,  avg # of iterations = 10.0

     total cpu time spent up to now is       15.9 secs

     total energy              =    -691.73775486 Ry
     Harris-Foulkes estimate   =    -691.74189652 Ry
     estimated scf accuracy    <       0.01012267 Ry

     iteration #  8     ecut=    40.00 Ry     beta=0.70
     Davidson diagonalization with overlap
     ethr =  4.22E-06,  avg # of iterations =  4.0

     total cpu time spent up to now is       17.3 secs

     total energy              =    -691.73925698 Ry
     Harris-Foulkes estimate   =    -691.74012897 Ry
     estimated scf accuracy    <       0.00202695 Ry

     iteration #  9     ecut=    40.00 Ry     beta=0.70
     Davidson diagonalization with overlap
     ethr =  8.45E-07,  avg # of iterations =  4.0

     total cpu time spent up to now is       18.5 secs

     total energy              =    -691.73964193 Ry
     Harris-Foulkes estimate   =    -691.73984440 Ry
     estimated scf accuracy    <       0.00050482 Ry

     iteration # 10     ecut=    40.00 Ry     beta=0.70
     Davidson diagonalization with overlap
     ethr =  2.10E-07,  avg # of iterations =  4.0

     total cpu time spent up to now is       19.8 secs

     total energy              =    -691.73973763 Ry
     Harris-Foulkes estimate   =    -691.73977000 Ry
     estimated scf accuracy    <       0.00007545 Ry

     iteration # 11     ecut=    40.00 Ry     beta=0.70
     Davidson diagonalization with overlap
     ethr =  3.14E-08,  avg # of iterations =  4.0

     total cpu time spent up to now is       21.1 secs

     total energy              =    -691.73975164 Ry
     Harris-Foulkes estimate   =    -691.73975619 Ry
     estimated scf accuracy    <       0.00001009 Ry

     iteration # 12     ecut=    40.00 Ry     beta=0.70
     Davidson diagonalization with overlap
     ethr =  4.21E-09,  avg # of iterations =  4.0

     total cpu time spent up to now is       22.4 secs

     total energy              =    -691.73975322 Ry
     Harris-Foulkes estimate   =    -691.73975520 Ry
     estimated scf accuracy    <       0.00000484 Ry

     iteration # 13     ecut=    40.00 Ry     beta=0.70
     Davidson diagonalization with overlap
     ethr =  2.02E-09,  avg # of iterations =  4.0

     total cpu time spent up to now is       23.6 secs

     total energy              =    -691.73975412 Ry
     Harris-Foulkes estimate   =    -691.73975465 Ry
     estimated scf accuracy    <       0.00000143 Ry

     iteration # 14     ecut=    40.00 Ry     beta=0.70
     Davidson diagonalization with overlap
     ethr =  5.98E-10,  avg # of iterations =  4.0

     total cpu time spent up to now is       24.8 secs

     total energy              =    -691.73975434 Ry
     Harris-Foulkes estimate   =    -691.73975442 Ry
     estimated scf accuracy    <       0.00000016 Ry

     iteration # 15     ecut=    40.00 Ry     beta=0.70
     Davidson diagonalization with overlap
     ethr =  6.66E-11,  avg # of iterations =  4.0

     total cpu time spent up to now is       26.2 secs

     total energy              =    -691.73975435 Ry
     Harris-Foulkes estimate   =    -691.73975442 Ry
     estimated scf accuracy    <       0.00000020 Ry

     iteration # 16     ecut=    40.00 Ry     beta=0.70
     Davidson diagonalization with overlap
     ethr =  6.66E-11,  avg # of iterations =  4.0

     total cpu time spent up to now is       27.4 secs

     total energy              =    -691.73975438 Ry
     Harris-Foulkes estimate   =    -691.73975439 Ry
     estimated scf accuracy    <          5.9E-09 Ry

     iteration # 17     ecut=    40.00 Ry     beta=0.70
     Davidson diagonalization with overlap
     ethr =  2.46E-12,  avg # of iterations =  4.0

     total cpu time spent up to now is       28.8 secs

     total energy              =    -691.73975438 Ry
     Harris-Foulkes estimate   =    -691.73975439 Ry
     estimated scf accuracy    <          4.3E-09 Ry

     iteration # 18     ecut=    40.00 Ry     beta=0.70
     Davidson diagonalization with overlap
     ethr =  1.77E-12,  avg # of iterations =  4.0

     total cpu time spent up to now is       30.2 secs

     total energy              =    -691.73975438 Ry
     Harris-Foulkes estimate   =    -691.73975438 Ry
     estimated scf accuracy    <          2.5E-09 Ry

     iteration # 19     ecut=    40.00 Ry     beta=0.70
     Davidson diagonalization with overlap
     ethr =  1.05E-12,  avg # of iterations =  4.0

     total cpu time spent up to now is       31.3 secs

     End of self-consistent calculation

          k = 0.0000 0.0000 0.0000 ( 46005 PWs)   bands (ev):

   -21.2818 -20.1132 -19.7216 -19.6260 -19.5597 -19.4330 -19.4248 -18.6644
   -18.4085 -18.1841 -18.1267 -17.8249 -17.7768 -17.7124 -17.6884 -17.3055
   -17.2656 -16.9751 -16.8868 -16.0948 -16.0070 -15.6608 -15.6004 -15.5518
   -15.5072 -15.2442 -15.1514 -14.8339 -14.7774 -14.7327 -14.2581 -13.8549
   -13.5979 -13.5258 -13.3418 -12.8372 -12.7697 -12.5922 -12.4884 -12.3689
   -12.3685 -12.0388 -11.9930 -11.4481 -11.3173 -11.1421 -10.9433 -10.4861
   -10.4151 -10.4053 -10.1136 -10.0330  -9.9250  -9.6394  -9.6040  -9.5570
    -9.5175  -9.2892  -9.1071  -8.9865  -8.8986  -8.8316  -8.4672  -8.2666
    -8.1459  -8.0863  -7.9689  -7.9324  -7.7479  -7.6810  -7.6479  -7.5884
    -7.5272  -7.5075  -7.4082  -7.3652  -7.3539  -7.3523  -7.3191  -7.1909
    -7.1292  -7.0733  -7.0511  -6.9489  -6.7210  -6.6891  -6.6591  -6.4038
    -6.2555  -6.1384  -6.0957  -5.8961  -5.7766  -5.6171  -5.5142  -5.5094
    -5.4912  -5.3993  -5.3681  -5.3630  -5.3343  -5.2824  -5.2524  -4.9731
    -4.8805  -4.6866  -4.5498  -4.1963  -4.0062  -3.7530  -3.4542  -3.3206
    -3.2797  -3.1979  -3.0610  -2.9709  -2.8998  -2.8493  -2.2600  -2.1880
    -0.1915   0.2204   0.4237   0.6146   0.6856   0.8962   1.0268   1.0550
     1.1095   1.5342   1.5935   2.0057   2.1472   2.6972   2.8799   3.0247
     3.5912   3.6214   3.6424   3.7758   3.7788   3.8345   3.9250   3.9337

     the Fermi energy is    -1.1246 ev

!    total energy              =    -691.73975438 Ry
     Harris-Foulkes estimate   =    -691.73975438 Ry
     estimated scf accuracy    <          5.3E-11 Ry

     The total energy is the sum of the following terms:

     one-electron contribution =   -2708.49619132 Ry
     hartree contribution      =    1401.81155794 Ry
     xc contribution           =    -210.37446482 Ry
     ewald contribution        =     825.79328745 Ry
     Dispersion Correction     =      -0.24302870 Ry
     smearing contrib. (-TS)   =      -0.23091493 Ry

     convergence has been achieved in  19 iterations

     Forces acting on atoms (Ry/au):

     atom    1 type  2   force =    -0.00727393   -0.00947220    0.00000000
     atom    2 type  2   force =     0.00746253    0.00965970    0.00000000
     atom    3 type  2   force =    -0.00820680   -0.00781960    0.00000000
     atom    4 type  2   force =     0.00748872    0.00852168    0.00000000
     atom    5 type  2   force =    -0.00742502   -0.00910822    0.00000000
     atom    6 type  2   force =     0.01400983    0.00803386    0.00000000
     atom    7 type  2   force =    -0.00609387   -0.00782907    0.00000000
     atom    8 type  2   force =     0.00145380    0.00829285    0.00000000
     atom    9 type  2   force =    -0.00835458   -0.01060820    0.00000000
     atom   10 type  2   force =     0.00735698    0.00877543    0.00000000
     atom   11 type  2   force =    -0.00742727   -0.00922436    0.00000000
     atom   12 type  2   force =     0.00776093    0.00993116    0.00000000
     atom   13 type  2   force =    -0.00708832   -0.01005404    0.00000000
     atom   14 type  2   force =     0.00706521    0.01037889    0.00000000
     atom   15 type  2   force =    -0.00401987   -0.00841244    0.00000000
     atom   16 type  2   force =     0.00612012    0.01101444    0.00000000
     atom   17 type  2   force =    -0.00338454    0.00726236    0.00000000
     atom   18 type  2   force =     0.00105096    0.00638830    0.00000000
     atom   19 type  2   force =    -0.01046737    0.00601194    0.00000000
     atom   20 type  2   force =     0.00539255    0.00141614    0.00000000
     atom   21 type  2   force =    -0.01116886   -0.00945243    0.00000000
     atom   22 type  2   force =     0.01354055    0.00616249    0.00000000
     atom   23 type  2   force =    -0.00710679   -0.01022329    0.00000000
     atom   24 type  2   force =     0.00828455    0.01135803    0.00000000
     atom   25 type  2   force =    -0.00722056   -0.01043851    0.00000000
     atom   26 type  2   force =     0.00693248    0.01081161    0.00000000
     atom   27 type  2   force =    -0.00596148   -0.01180861    0.00000000
     atom   28 type  2   force =     0.00743905    0.01077486    0.00000000
     atom   29 type  2   force =     0.01102478   -0.01391489    0.00000000
     atom   30 type  2   force =     0.00838950    0.01811809    0.00000000
     atom   31 type  1   force =    -0.00564098   -0.00804431    0.00000000
     atom   32 type  2   force =    -0.00033478    0.00990530    0.00000000
     atom   33 type  2   force =    -0.02526146   -0.01379298    0.00000000
     atom   34 type  2   force =     0.01149437    0.01030597    0.00000000
     atom   35 type  2   force =    -0.00842266   -0.01139036    0.00000000
     atom   36 type  2   force =     0.00658574    0.01848429    0.00000000
     atom   37 type  2   force =    -0.00764935   -0.01015422    0.00000000
     atom   38 type  2   force =     0.00880630    0.01102166    0.00000000
     atom   39 type  2   force =    -0.00685424   -0.01014817    0.00000000
     atom   40 type  2   force =     0.00740964    0.01018894    0.00000000
     atom   41 type  2   force =    -0.00677190   -0.01070580    0.00000000
     atom   42 type  2   force =     0.00677743    0.01100943    0.00000000
     atom   43 type  2   force =     0.00404589   -0.02070735    0.00000000
     atom   44 type  2   force =     0.00287677    0.00540023    0.00000000
     atom   45 type  2   force =    -0.01809064   -0.02256867    0.00000000
     atom   46 type  2   force =     0.00691878    0.01778660    0.00000000
     atom   47 type  2   force =    -0.00837188   -0.01083291    0.00000000
     atom   48 type  2   force =     0.01323315    0.00537415    0.00000000
     atom   49 type  2   force =    -0.00747052   -0.00991210    0.00000000
     atom   50 type  2   force =     0.00745748    0.00880683    0.00000000
     atom   51 type  2   force =    -0.00755644   -0.00947825    0.00000000
     atom   52 type  2   force =     0.00807807    0.00978197    0.00000000
     atom   53 type  2   force =    -0.00745356   -0.00997292    0.00000000
     atom   54 type  2   force =     0.00792757    0.00918582    0.00000000
     atom   55 type  2   force =    -0.00513793   -0.00991119    0.00000000
     atom   56 type  2   force =     0.00616166    0.00923301    0.00000000
     atom   57 type  2   force =    -0.00884685   -0.01350123    0.00000000
     atom   58 type  2   force =     0.00621234    0.01037691    0.00000000
     atom   59 type  2   force =    -0.00871145   -0.01033569    0.00000000
     atom   60 type  2   force =     0.00901613    0.01004904    0.00000000

     Total force =     0.107599     Total SCF correction =     0.000016

     BFGS Geometry Optimization

     number of scf cycles    =   1
     number of bfgs steps    =   0

     energy   new            =    -691.7397543827 Ry

     new trust radius        =       0.0289243181 bohr
     new conv_thr            =            1.0E-10 Ry


ATOMIC_POSITIONS (crystal)
C        0.110649072   0.066208733   0.500000000
C        0.056028362   0.133800332   0.500000000
C        0.277316512   0.066288628   0.500000000
C        0.222672148   0.133745314   0.500000000
C        0.443984543   0.066226330   0.500000000
C        0.389565055   0.133721730   0.500000000
C        0.610726257   0.066288170   0.500000000
C        0.555781877   0.133734251   0.500000000
C        0.777252777   0.066153812   0.500000000
C        0.722672683   0.133757582   0.500000000
C        0.943982030   0.066220715   0.500000000
C        0.889378194   0.133813456   0.500000000
C        0.110643621   0.266180604   0.500000000
C        0.056029011   0.333835101   0.500000000
C        0.277455916   0.266259967   0.500000000
C        0.222674708   0.333865827   0.500000000
C        0.444473751   0.267017772   0.500000000
C        0.389060731   0.333642175   0.500000000
C        0.610857428   0.266957320   0.500000000
C        0.555780734   0.333401794   0.500000000
C        0.777174929   0.266209688   0.500000000
C        0.722842194   0.333631258   0.500000000
C        0.943972738   0.266172421   0.500000000
C        0.889427051   0.333882438   0.500000000
C        0.110630778   0.466162016   0.500000000
C        0.056033257   0.533856022   0.500000000
C        0.277314419   0.466095778   0.500000000
C        0.222717516   0.533854245   0.500000000
C        0.444552891   0.465993949   0.500000000
C        0.389572373   0.534209256   0.500000000
C_h      0.610738172   0.466277765   0.500000000
C        0.555750781   0.533812206   0.500000000
C        0.776573079   0.465999843   0.500000000
C        0.722854742   0.533831576   0.500000000
C        0.943900595   0.466115998   0.500000000
C        0.889514636   0.534226960   0.500000000
C        0.110621182   0.666175760   0.500000000
C        0.056105598   0.733866177   0.500000000
C        0.277316808   0.666176053   0.500000000
C        0.222704184   0.733825918   0.500000000
C        0.443974780   0.666149094   0.500000000
C        0.389365107   0.733865585   0.500000000
C        0.610824319   0.665665565   0.500000000
C        0.555772918   0.733594406   0.500000000
C        0.776649374   0.665575579   0.500000000
C        0.722845436   0.734193230   0.500000000
C        0.943914106   0.666142949   0.500000000
C        0.889481215   0.733593145   0.500000000
C        0.110632734   0.866187466   0.500000000
C        0.056010325   0.933759100   0.500000000
C        0.277305372   0.866208440   0.500000000
C        0.222719901   0.933806243   0.500000000
C        0.443965406   0.866184525   0.500000000
C        0.389368634   0.933777422   0.500000000
C        0.610717331   0.866187510   0.500000000
C        0.555972262   0.933779704   0.500000000
C        0.777174364   0.866013948   0.500000000
C        0.722664706   0.933835006   0.500000000
C        0.943912202   0.866166987   0.500000000
C        0.889426175   0.933819155   0.500000000



     Writing output data file graphene.save
     Check: negative starting charge=   -0.002600
     NEW-OLD atomic charge density approx. for the potential
     Check: negative starting charge=   -0.002591

     negative rho (up, down):  3.930E-05 0.000E+00

     total cpu time spent up to now is       32.2 secs

     Self-consistent Calculation

     iteration #  1     ecut=    40.00 Ry     beta=0.70
     Davidson diagonalization with overlap
     ethr =  1.00E-06,  avg # of iterations =  5.0

     negative rho (up, down):  3.095E-07 0.000E+00

     total cpu time spent up to now is       34.4 secs

     total energy              =    -691.73862686 Ry
     Harris-Foulkes estimate   =    -691.74127674 Ry
     estimated scf accuracy    <       0.00420828 Ry

     iteration #  2     ecut=    40.00 Ry     beta=0.70
     Davidson diagonalization with overlap
     ethr =  1.75E-06,  avg # of iterations =  6.0

     total cpu time spent up to now is       36.2 secs

     total energy              =    -691.73772985 Ry
     Harris-Foulkes estimate   =    -691.74132920 Ry
     estimated scf accuracy    <       0.00802758 Ry

     iteration #  3     ecut=    40.00 Ry     beta=0.70
     Davidson diagonalization with overlap
     ethr =  1.75E-06,  avg # of iterations =  8.0

     total cpu time spent up to now is       38.2 secs

     total energy              =    -691.73945184 Ry
     Harris-Foulkes estimate   =    -691.74033466 Ry
     estimated scf accuracy    <       0.00263156 Ry

     iteration #  4     ecut=    40.00 Ry     beta=0.70
     Davidson diagonalization with overlap
     ethr =  1.10E-06,  avg # of iterations =  7.0

     total cpu time spent up to now is       39.7 secs

     total energy              =    -691.73984840 Ry
     Harris-Foulkes estimate   =    -691.73999955 Ry
     estimated scf accuracy    <       0.00037325 Ry

     iteration #  5     ecut=    40.00 Ry     beta=0.70
     Davidson diagonalization with overlap
     ethr =  1.56E-07,  avg # of iterations =  4.0

     total cpu time spent up to now is       40.9 secs

     total energy              =    -691.73991882 Ry
     Harris-Foulkes estimate   =    -691.73993756 Ry
     estimated scf accuracy    <       0.00004756 Ry

     iteration #  6     ecut=    40.00 Ry     beta=0.70
     Davidson diagonalization with overlap
     ethr =  1.98E-08,  avg # of iterations =  4.0

     total cpu time spent up to now is       42.2 secs

     total energy              =    -691.73992795 Ry
     Harris-Foulkes estimate   =    -691.73993097 Ry
     estimated scf accuracy    <       0.00000790 Ry

     iteration #  7     ecut=    40.00 Ry     beta=0.70
     Davidson diagonalization with overlap
     ethr =  3.29E-09,  avg # of iterations =  4.0

     total cpu time spent up to now is       43.5 secs

     total energy              =    -691.73992990 Ry
     Harris-Foulkes estimate   =    -691.73993038 Ry
     estimated scf accuracy    <       0.00000169 Ry

     iteration #  8     ecut=    40.00 Ry     beta=0.70
     Davidson diagonalization with overlap
     ethr =  7.03E-10,  avg # of iterations =  4.0

     total cpu time spent up to now is       44.7 secs

     total energy              =    -691.73993012 Ry
     Harris-Foulkes estimate   =    -691.73993035 Ry
     estimated scf accuracy    <       0.00000061 Ry

     iteration #  9     ecut=    40.00 Ry     beta=0.70
     Davidson diagonalization with overlap
     ethr =  2.53E-10,  avg # of iterations =  4.0

     total cpu time spent up to now is       45.9 secs

     total energy              =    -691.73993023 Ry
     Harris-Foulkes estimate   =    -691.73993026 Ry
     estimated scf accuracy    <       0.00000007 Ry

     iteration # 10     ecut=    40.00 Ry     beta=0.70
     Davidson diagonalization with overlap
     ethr =  2.82E-11,  avg # of iterations =  4.0

     total cpu time spent up to now is       47.2 secs

     total energy              =    -691.73993024 Ry
     Harris-Foulkes estimate   =    -691.73993025 Ry
     estimated scf accuracy    <          6.3E-09 Ry

     iteration # 11     ecut=    40.00 Ry     beta=0.70
     Davidson diagonalization with overlap
     ethr =  2.61E-12,  avg # of iterations =  4.0

     total cpu time spent up to now is       48.6 secs

     total energy              =    -691.73993024 Ry
     Harris-Foulkes estimate   =    -691.73993025 Ry
     estimated scf accuracy    <          2.9E-09 Ry

     iteration # 12     ecut=    40.00 Ry     beta=0.70
     Davidson diagonalization with overlap
     ethr =  1.20E-12,  avg # of iterations =  4.0

     total cpu time spent up to now is       49.8 secs

     total energy              =    -691.73993024 Ry
     Harris-Foulkes estimate   =    -691.73993024 Ry
     estimated scf accuracy    <          4.4E-10 Ry

     iteration # 13     ecut=    40.00 Ry     beta=0.70
     Davidson diagonalization with overlap
     ethr =  1.85E-13,  avg # of iterations =  4.0

     total cpu time spent up to now is       51.1 secs

     total energy              =    -691.73993024 Ry
     Harris-Foulkes estimate   =    -691.73993024 Ry
     estimated scf accuracy    <          1.2E-10 Ry

     iteration # 14     ecut=    40.00 Ry     beta=0.70
     Davidson diagonalization with overlap
     ethr =  1.00E-13,  avg # of iterations =  3.0

     total cpu time spent up to now is       52.1 secs

     End of self-consistent calculation

          k = 0.0000 0.0000 0.0000 ( 46005 PWs)   bands (ev):

   -21.2525 -20.1072 -19.7181 -19.6244 -19.5561 -19.4298 -19.4266 -18.6435
   -18.4108 -18.1796 -18.1275 -17.8265 -17.7720 -17.7095 -17.6802 -17.2990
   -17.2684 -16.9608 -16.8871 -16.0913 -15.9981 -15.6485 -15.5923 -15.5398
   -15.4977 -15.2165 -15.1056 -14.8615 -14.7655 -14.7151 -14.1634 -13.9143
   -13.6366 -13.5695 -13.3478 -12.8571 -12.8009 -12.5946 -12.5252 -12.4022
   -12.3389 -11.9731 -11.9226 -11.4499 -11.3267 -11.1122 -10.9277 -10.4587
   -10.4241 -10.3425 -10.1854 -10.1052  -9.9799  -9.7074  -9.6595  -9.6083
    -9.5719  -9.2563  -9.0586  -8.9352  -8.8800  -8.7729  -8.4543  -8.1968
    -8.0781  -8.0461  -7.9893  -7.9421  -7.7234  -7.6481  -7.6447  -7.6259
    -7.5217  -7.5050  -7.4683  -7.3871  -7.3568  -7.3497  -7.3347  -7.2638
    -7.1937  -7.1258  -7.1148  -6.8986  -6.7511  -6.6931  -6.6156  -6.3880
    -6.1797  -6.1051  -6.0187  -5.8942  -5.7760  -5.6193  -5.5275  -5.5075
    -5.4961  -5.4467  -5.3822  -5.3754  -5.3486  -5.1833  -5.1482  -4.9570
    -4.8753  -4.6441  -4.5185  -4.3839  -3.8234  -3.7699  -3.4889  -3.3367
    -3.2794  -3.1947  -3.0723  -2.9478  -2.9009  -2.8798  -2.2219  -2.1426
    -0.2485   0.1662   0.3816   0.5579   0.6737   0.9212   1.0666   1.1075
     1.1093   1.6043   1.6704   1.9250   2.0750   2.6974   2.8487   3.0035
     3.5917   3.6095   3.6213   3.7579   3.7768   3.7793   3.9339   3.9376

     the Fermi energy is    -1.1322 ev

!    total energy              =    -691.73993024 Ry
     Harris-Foulkes estimate   =    -691.73993024 Ry
     estimated scf accuracy    <          3.4E-11 Ry

     The total energy is the sum of the following terms:

     one-electron contribution =   -2708.12327878 Ry
     hartree contribution      =    1401.63252490 Ry
     xc contribution           =    -210.33733196 Ry
     ewald contribution        =     825.56902270 Ry
     Dispersion Correction     =      -0.24274147 Ry
     smearing contrib. (-TS)   =      -0.23812563 Ry

     convergence has been achieved in  14 iterations

     Forces acting on atoms (Ry/au):

     atom    1 type  2   force =     0.00875352    0.00883199    0.00000000
     atom    2 type  2   force =    -0.00848179   -0.00944673    0.00000000
     atom    3 type  2   force =     0.01278505    0.01041364    0.00000000
     atom    4 type  2   force =    -0.00806897   -0.00819679    0.00000000
     atom    5 type  2   force =     0.00906162    0.00771628    0.00000000
     atom    6 type  2   force =    -0.01050043   -0.00177669    0.00000000
     atom    7 type  2   force =     0.00489661    0.00963128    0.00000000
     atom    8 type  2   force =    -0.00692504   -0.00186518    0.00000000
     atom    9 type  2   force =     0.00913334    0.00984086    0.00000000
     atom   10 type  2   force =    -0.00923904   -0.00887597    0.00000000
     atom   11 type  2   force =     0.00915240    0.00935775    0.00000000
     atom   12 type  2   force =    -0.00949287   -0.01010172    0.00000000
     atom   13 type  2   force =     0.00851607    0.01016214    0.00000000
     atom   14 type  2   force =    -0.00846281   -0.01023892    0.00000000
     atom   15 type  2   force =     0.00399394    0.00748069    0.00000000
     atom   16 type  2   force =    -0.00675912   -0.01030466    0.00000000
     atom   17 type  2   force =     0.00464310    0.00079746    0.00000000
     atom   18 type  2   force =    -0.00205628   -0.00539212    0.00000000
     atom   19 type  2   force =     0.00942736    0.00232383    0.00000000
     atom   20 type  2   force =    -0.00639779    0.00623203    0.00000000
     atom   21 type  2   force =     0.01326562    0.00828056    0.00000000
     atom   22 type  2   force =    -0.01425887   -0.00563096    0.00000000
     atom   23 type  2   force =     0.00859022    0.01024727    0.00000000
     atom   24 type  2   force =    -0.01088656   -0.01077393    0.00000000
     atom   25 type  2   force =     0.00861772    0.01100821    0.00000000
     atom   26 type  2   force =    -0.00932671   -0.01102535    0.00000000
     atom   27 type  2   force =     0.01138065    0.01339782    0.00000000
     atom   28 type  2   force =    -0.00793148   -0.01113291    0.00000000
     atom   29 type  2   force =    -0.00323231    0.01039650    0.00000000
     atom   30 type  2   force =    -0.00095636   -0.01562520    0.00000000
     atom   31 type  1   force =     0.00510418    0.00522493    0.00000000
     atom   32 type  2   force =     0.00539977   -0.01274883    0.00000000
     atom   33 type  2   force =     0.01931727    0.01181169    0.00000000
     atom   34 type  2   force =    -0.01749745   -0.01285700    0.00000000
     atom   35 type  2   force =     0.00636912    0.01311203    0.00000000
     atom   36 type  2   force =    -0.01818946   -0.01605209    0.00000000
     atom   37 type  2   force =     0.00897344    0.01073431    0.00000000
     atom   38 type  2   force =    -0.00834973   -0.00957591    0.00000000
     atom   39 type  2   force =     0.00902853    0.01088216    0.00000000
     atom   40 type  2   force =    -0.00875358   -0.01003893    0.00000000
     atom   41 type  2   force =     0.00665096    0.01126046    0.00000000
     atom   42 type  2   force =    -0.00951965   -0.00973756    0.00000000
     atom   43 type  2   force =     0.00234322    0.01272297    0.00000000
     atom   44 type  2   force =    -0.00028317   -0.01322814    0.00000000
     atom   45 type  2   force =     0.01489972    0.01492116    0.00000000
     atom   46 type  2   force =    -0.00815044   -0.01588034    0.00000000
     atom   47 type  2   force =     0.01187461    0.01159023    0.00000000
     atom   48 type  2   force =    -0.01816954   -0.01501586    0.00000000
     atom   49 type  2   force =     0.00961883    0.00960508    0.00000000
     atom   50 type  2   force =    -0.00946393   -0.00965711    0.00000000
     atom   51 type  2   force =     0.00961935    0.00988423    0.00000000
     atom   52 type  2   force =    -0.00926203   -0.00849959    0.00000000
     atom   53 type  2   force =     0.00829507    0.00963919    0.00000000
     atom   54 type  2   force =    -0.00912363   -0.01056342    0.00000000
     atom   55 type  2   force =     0.00649791    0.00683525    0.00000000
     atom   56 type  2   force =    -0.00719218   -0.00902964    0.00000000
     atom   57 type  2   force =     0.00942397    0.01384409    0.00000000
     atom   58 type  2   force =    -0.00822983   -0.01060712    0.00000000
     atom   59 type  2   force =     0.01004387    0.00662670    0.00000000
     atom   60 type  2   force =    -0.01051600   -0.01093412    0.00000000

     Total force =     0.109550     Total SCF correction =     0.000013

     number of scf cycles    =   2
     number of bfgs steps    =   1

     energy   old            =    -691.7397543827 Ry
     energy   new            =    -691.7399302448 Ry

     CASE: energy  _new < energy  _old

     new trust radius        =       0.0118731023 bohr
     new conv_thr            =            1.0E-10 Ry


ATOMIC_POSITIONS (crystal)
C        0.110891778   0.066413185   0.500000000
C        0.055784428   0.133580995   0.500000000
C        0.277650605   0.066534338   0.500000000
C        0.222448520   0.133555193   0.500000000
C        0.444221101   0.066403799   0.500000000
C        0.389371480   0.133689101   0.500000000
C        0.610908438   0.066514593   0.500000000
C        0.555640516   0.133699802   0.500000000
C        0.777511457   0.066381544   0.500000000
C        0.722420205   0.133551080   0.500000000
C        0.944237704   0.066438463   0.500000000
C        0.889109064   0.133578359   0.500000000
C        0.110895973   0.266417019   0.500000000
C        0.055776995   0.333597245   0.500000000
C        0.277600283   0.266432598   0.500000000
C        0.222452869   0.333627233   0.500000000
C        0.444568892   0.267047491   0.500000000
C        0.388970143   0.333518192   0.500000000
C        0.611049134   0.267022909   0.500000000
C        0.555735463   0.333557293   0.500000000
C        0.777491084   0.266400582   0.500000000
C        0.722536443   0.333501078   0.500000000
C        0.944227248   0.266410699   0.500000000
C        0.889126399   0.333632759   0.500000000
C        0.110893665   0.466418742   0.500000000
C        0.055757011   0.533599391   0.500000000
C        0.277654337   0.466409476   0.500000000
C        0.222466407   0.533594913   0.500000000
C        0.444607187   0.466230783   0.500000000
C        0.389407621   0.533849435   0.500000000
C_h      0.610877525   0.466395331   0.500000000
C        0.555720151   0.533511857   0.500000000
C        0.777021456   0.466271711   0.500000000
C        0.722412424   0.533529119   0.500000000
C        0.944142555   0.466423235   0.500000000
C        0.889025252   0.533857130   0.500000000
C        0.110887445   0.666426133   0.500000000
C        0.055864941   0.733645546   0.500000000
C        0.277586497   0.666430076   0.500000000
C        0.222449173   0.733592726   0.500000000
C        0.444204324   0.666411664   0.500000000
C        0.389098991   0.733640956   0.500000000
C        0.610995115   0.665950294   0.500000000
C        0.555632805   0.733276001   0.500000000
C        0.777051487   0.665911882   0.500000000
C        0.722543306   0.733826663   0.500000000
C        0.944241946   0.666413467   0.500000000
C        0.889002294   0.733230661   0.500000000
C        0.110899208   0.866410353   0.500000000
C        0.055745482   0.933533397   0.500000000
C        0.277575003   0.866438807   0.500000000
C        0.222472367   0.933610410   0.500000000
C        0.444207765   0.866408169   0.500000000
C        0.389101126   0.933529917   0.500000000
C        0.610899016   0.866342160   0.500000000
C        0.555754996   0.933570051   0.500000000
C        0.777478871   0.866336292   0.500000000
C        0.722412178   0.933588076   0.500000000
C        0.944153210   0.866315911   0.500000000
C        0.889130636   0.933563714   0.500000000



     Writing output data file graphene.save
     Check: negative starting charge=   -0.002591
     NEW-OLD atomic charge density approx. for the potential
     Check: negative starting charge=   -0.002596

     negative rho (up, down):  4.154E-06 0.000E+00

     total cpu time spent up to now is       53.0 secs

     Self-consistent Calculation

     iteration #  1     ecut=    40.00 Ry     beta=0.70
     Davidson diagonalization with overlap
     ethr =  1.00E-06,  avg # of iterations =  4.0

     total cpu time spent up to now is       55.0 secs

     total energy              =    -691.74273841 Ry
     Harris-Foulkes estimate   =    -691.74318547 Ry
     estimated scf accuracy    <       0.00079945 Ry

     iteration #  2     ecut=    40.00 Ry     beta=0.70
     Davidson diagonalization with overlap
     ethr =  3.33E-07,  avg # of iterations =  2.0

     total cpu time spent up to now is       56.2 secs

     total energy              =    -691.74282964 Ry
     Harris-Foulkes estimate   =    -691.74293365 Ry
     estimated scf accuracy    <       0.00016118 Ry

     iteration #  3     ecut=    40.00 Ry     beta=0.70
     Davidson diagonalization with overlap
     ethr =  6.72E-08,  avg # of iterations =  4.0

     total cpu time spent up to now is       57.7 secs

     total energy              =    -691.74283936 Ry
     Harris-Foulkes estimate   =    -691.74296081 Ry
     estimated scf accuracy    <       0.00031876 Ry

     iteration #  4     ecut=    40.00 Ry     beta=0.70
     Davidson diagonalization with overlap
     ethr =  6.72E-08,  avg # of iterations =  4.0

     total cpu time spent up to now is       59.0 secs

     total energy              =    -691.74289615 Ry
     Harris-Foulkes estimate   =    -691.74291257 Ry
     estimated scf accuracy    <       0.00004694 Ry

     iteration #  5     ecut=    40.00 Ry     beta=0.70
     Davidson diagonalization with overlap
     ethr =  1.96E-08,  avg # of iterations =  4.0

     total cpu time spent up to now is       60.2 secs

     total energy              =    -691.74290417 Ry
     Harris-Foulkes estimate   =    -691.74290527 Ry
     estimated scf accuracy    <       0.00000277 Ry

     iteration #  6     ecut=    40.00 Ry     beta=0.70
     Davidson diagonalization with overlap
     ethr =  1.15E-09,  avg # of iterations =  4.0

     total cpu time spent up to now is       61.5 secs

     total energy              =    -691.74290490 Ry
     Harris-Foulkes estimate   =    -691.74290515 Ry
     estimated scf accuracy    <       0.00000072 Ry

     iteration #  7     ecut=    40.00 Ry     beta=0.70
     Davidson diagonalization with overlap
     ethr =  3.02E-10,  avg # of iterations =  4.0

     total cpu time spent up to now is       63.0 secs

     total energy              =    -691.74290501 Ry
     Harris-Foulkes estimate   =    -691.74290518 Ry
     estimated scf accuracy    <       0.00000052 Ry

     iteration #  8     ecut=    40.00 Ry     beta=0.70
     Davidson diagonalization with overlap
     ethr =  2.17E-10,  avg # of iterations =  4.0

     total cpu time spent up to now is       64.2 secs

     total energy              =    -691.74290509 Ry
     Harris-Foulkes estimate   =    -691.74290510 Ry
     estimated scf accuracy    <       0.00000001 Ry

     iteration #  9     ecut=    40.00 Ry     beta=0.70
     Davidson diagonalization with overlap
     ethr =  6.09E-12,  avg # of iterations =  4.0

     total cpu time spent up to now is       65.6 secs

     total energy              =    -691.74290509 Ry
     Harris-Foulkes estimate   =    -691.74290510 Ry
     estimated scf accuracy    <          5.8E-09 Ry

     iteration # 10     ecut=    40.00 Ry     beta=0.70
     Davidson diagonalization with overlap
     ethr =  2.40E-12,  avg # of iterations =  4.0

     total cpu time spent up to now is       66.8 secs

     total energy              =    -691.74290509 Ry
     Harris-Foulkes estimate   =    -691.74290509 Ry
     estimated scf accuracy    <          1.4E-09 Ry

     iteration # 11     ecut=    40.00 Ry     beta=0.70
     Davidson diagonalization with overlap
     ethr =  5.67E-13,  avg # of iterations =  4.0

     total cpu time spent up to now is       68.0 secs

     total energy              =    -691.74290509 Ry
     Harris-Foulkes estimate   =    -691.74290509 Ry
     estimated scf accuracy    <          1.1E-10 Ry

     iteration # 12     ecut=    40.00 Ry     beta=0.70
     Davidson diagonalization with overlap
     ethr =  1.00E-13,  avg # of iterations =  3.0

     total cpu time spent up to now is       69.1 secs

     End of self-consistent calculation

          k = 0.0000 0.0000 0.0000 ( 46005 PWs)   bands (ev):

   -21.2898 -20.1095 -19.7203 -19.6258 -19.5548 -19.4283 -19.4249 -18.6561
   -18.4122 -18.1813 -18.1287 -17.8250 -17.7736 -17.7090 -17.6846 -17.3002
   -17.2666 -16.9656 -16.8876 -16.0966 -16.0051 -15.6523 -15.5966 -15.5448
   -15.5027 -15.2302 -15.1245 -14.8446 -14.7728 -14.7235 -14.2136 -13.8908
   -13.6093 -13.5576 -13.3397 -12.8441 -12.7830 -12.5970 -12.5079 -12.3878
   -12.3560 -12.0056 -11.9572 -11.4486 -11.3171 -11.1325 -10.9394 -10.4633
   -10.4361 -10.3746 -10.1498 -10.0696  -9.9513  -9.6692  -9.6272  -9.5874
    -9.5498  -9.2698  -9.0774  -8.9560  -8.9028  -8.8006  -8.4632  -8.2304
    -8.0937  -8.0840  -7.9807  -7.9411  -7.7327  -7.6553  -7.6475  -7.6115
    -7.5241  -7.5038  -7.4406  -7.3724  -7.3576  -7.3509  -7.3329  -7.2283
    -7.1611  -7.1011  -7.0877  -6.9182  -6.7279  -6.6749  -6.6417  -6.3982
    -6.2198  -6.1015  -6.0814  -5.8946  -5.7755  -5.6029  -5.5371  -5.5101
    -5.4820  -5.4257  -5.3872  -5.3718  -5.3424  -5.2342  -5.2001  -4.9649
    -4.8789  -4.6625  -4.5334  -4.2896  -3.9158  -3.7648  -3.4744  -3.3283
    -3.2813  -3.1911  -3.0631  -2.9526  -2.8983  -2.8676  -2.2425  -2.1679
    -0.2189   0.1973   0.4086   0.5994   0.6587   0.9092   1.0463   1.0761
     1.1113   1.5689   1.6315   1.9621   2.1087   2.6970   2.8678   3.0179
     3.5906   3.6213   3.6283   3.7762   3.7791   3.7958   3.9284   3.9342

     the Fermi energy is    -1.1279 ev

!    total energy              =    -691.74290509 Ry
     Harris-Foulkes estimate   =    -691.74290509 Ry
     estimated scf accuracy    <          4.0E-11 Ry

     The total energy is the sum of the following terms:

     one-electron contribution =   -2708.34044231 Ry
     hartree contribution      =    1401.73444583 Ry
     xc contribution           =    -210.35464377 Ry
     ewald contribution        =     825.69490065 Ry
     Dispersion Correction     =      -0.24288518 Ry
     smearing contrib. (-TS)   =      -0.23428031 Ry

     convergence has been achieved in  12 iterations

     Forces acting on atoms (Ry/au):

     atom    1 type  2   force =    -0.00022634    0.00005974    0.00000000
     atom    2 type  2   force =     0.00059238   -0.00032425    0.00000000
     atom    3 type  2   force =     0.00123413    0.00203261    0.00000000
     atom    4 type  2   force =     0.00083635   -0.00047695    0.00000000
     atom    5 type  2   force =    -0.00017385    0.00163331    0.00000000
     atom    6 type  2   force =     0.00049587    0.00138706    0.00000000
     atom    7 type  2   force =    -0.00157980    0.00164865    0.00000000
     atom    8 type  2   force =     0.00002778    0.00139504    0.00000000
     atom    9 type  2   force =    -0.00064825    0.00020616    0.00000000
     atom   10 type  2   force =    -0.00013384   -0.00061480    0.00000000
     atom   11 type  2   force =    -0.00035779    0.00010724    0.00000000
     atom   12 type  2   force =     0.00025062   -0.00049245    0.00000000
     atom   13 type  2   force =    -0.00026482    0.00071914    0.00000000
     atom   14 type  2   force =     0.00042431   -0.00028803    0.00000000
     atom   15 type  2   force =    -0.00034792    0.00043304    0.00000000
     atom   16 type  2   force =     0.00068672    0.00009265    0.00000000
     atom   17 type  2   force =     0.00044250    0.00137845    0.00000000
     atom   18 type  2   force =     0.00016637   -0.00022984    0.00000000
     atom   19 type  2   force =    -0.00094349    0.00160198    0.00000000
     atom   20 type  2   force =    -0.00016151    0.00232766    0.00000000
     atom   21 type  2   force =    -0.00042931    0.00039221    0.00000000
     atom   22 type  2   force =    -0.00002917   -0.00006218    0.00000000
     atom   23 type  2   force =    -0.00070249    0.00057851    0.00000000
     atom   24 type  2   force =     0.00012842    0.00007050    0.00000000
     atom   25 type  2   force =    -0.00038491    0.00030928    0.00000000
     atom   26 type  2   force =    -0.00066042   -0.00016145    0.00000000
     atom   27 type  2   force =     0.00197305    0.00129326    0.00000000
     atom   28 type  2   force =     0.00152646   -0.00014864    0.00000000
     atom   29 type  2   force =     0.00063625    0.00085238    0.00000000
     atom   30 type  2   force =     0.00180794   -0.00112308    0.00000000
     atom   31 type  1   force =     0.00010636    0.00032382    0.00000000
     atom   32 type  2   force =     0.00216976   -0.00234772    0.00000000
     atom   33 type  2   force =    -0.00121208    0.00090779    0.00000000
     atom   34 type  2   force =    -0.00221823   -0.00232282    0.00000000
     atom   35 type  2   force =    -0.00297569    0.00120956    0.00000000
     atom   36 type  2   force =    -0.00120467   -0.00084035    0.00000000
     atom   37 type  2   force =    -0.00009693    0.00041079    0.00000000
     atom   38 type  2   force =     0.00079533   -0.00011279    0.00000000
     atom   39 type  2   force =    -0.00069654    0.00029636    0.00000000
     atom   40 type  2   force =     0.00058364   -0.00023105    0.00000000
     atom   41 type  2   force =     0.00089268    0.00012913    0.00000000
     atom   42 type  2   force =     0.00042330   -0.00012789    0.00000000
     atom   43 type  2   force =     0.00065702   -0.00067906    0.00000000
     atom   44 type  2   force =     0.00147016   -0.00198738    0.00000000
     atom   45 type  2   force =    -0.00085471   -0.00070820    0.00000000
     atom   46 type  2   force =     0.00023831   -0.00161368    0.00000000
     atom   47 type  2   force =    -0.00158482   -0.00008417    0.00000000
     atom   48 type  2   force =    -0.00060654   -0.00211978    0.00000000
     atom   49 type  2   force =    -0.00011971    0.00096491    0.00000000
     atom   50 type  2   force =     0.00009587   -0.00139821    0.00000000
     atom   51 type  2   force =    -0.00065973    0.00028458    0.00000000
     atom   52 type  2   force =     0.00107361    0.00050603    0.00000000
     atom   53 type  2   force =    -0.00018748    0.00052770    0.00000000
     atom   54 type  2   force =     0.00054570   -0.00036651    0.00000000
     atom   55 type  2   force =     0.00013940   -0.00137153    0.00000000
     atom   56 type  2   force =     0.00012295   -0.00056959    0.00000000
     atom   57 type  2   force =    -0.00041025    0.00047567    0.00000000
     atom   58 type  2   force =    -0.00021631   -0.00086353    0.00000000
     atom   59 type  2   force =    -0.00113616   -0.00202756    0.00000000
     atom   60 type  2   force =     0.00068054   -0.00086174    0.00000000

     Total force =     0.010988     Total SCF correction =     0.000014

     number of scf cycles    =   3
     number of bfgs steps    =   2

     energy   old            =    -691.7399302448 Ry
     energy   new            =    -691.7429050942 Ry

     CASE: energy  _new < energy  _old

     new trust radius        =       0.0033194815 bohr
     new conv_thr            =            1.0E-10 Ry


ATOMIC_POSITIONS (crystal)
C        0.110883887   0.066414833   0.500000000
C        0.055800330   0.133566103   0.500000000
C        0.277740702   0.066635125   0.500000000
C        0.222470300   0.133532651   0.500000000
C        0.444248839   0.066483153   0.500000000
C        0.389423252   0.133761083   0.500000000
C        0.610884166   0.066596059   0.500000000
C        0.555671500   0.133772273   0.500000000
C        0.777490666   0.066390269   0.500000000
C        0.722402546   0.133521577   0.500000000
C        0.944226144   0.066442785   0.500000000
C        0.889108435   0.133555021   0.500000000
C        0.110900892   0.266451549   0.500000000
C        0.055787312   0.333584201   0.500000000
C        0.277595735   0.266452747   0.500000000
C        0.222481361   0.333633334   0.500000000
C        0.444616644   0.267119641   0.500000000
C        0.388971673   0.333507904   0.500000000
C        0.611048922   0.267106096   0.500000000
C        0.555780883   0.333675648   0.500000000
C        0.777482543   0.266418501   0.500000000
C        0.722535356   0.333498894   0.500000000
C        0.944212882   0.266438212   0.500000000
C        0.889133296   0.333637754   0.500000000
C        0.110885368   0.466433100   0.500000000
C        0.055729413   0.533592532   0.500000000
C        0.277756096   0.466472807   0.500000000
C        0.222520887   0.533588630   0.500000000
C        0.444650995   0.466270107   0.500000000
C        0.389454811   0.533796789   0.500000000
C_h      0.610886938   0.466409399   0.500000000
C        0.555751831   0.533395603   0.500000000
C        0.776991076   0.466314374   0.500000000
C        0.722279544   0.533414254   0.500000000
C        0.944056378   0.466482518   0.500000000
C        0.888961037   0.533818507   0.500000000
C        0.110891982   0.666445555   0.500000000
C        0.055893720   0.733641749   0.500000000
C        0.277566637   0.666443889   0.500000000
C        0.222466668   0.733582486   0.500000000
C        0.444239219   0.666417062   0.500000000
C        0.389112516   0.733636343   0.500000000
C        0.611004795   0.665911301   0.500000000
C        0.555644756   0.733175203   0.500000000
C        0.776999752   0.665871362   0.500000000
C        0.722518964   0.733749456   0.500000000
C        0.944181142   0.666408362   0.500000000
C        0.888932695   0.733122615   0.500000000
C        0.110914900   0.866456917   0.500000000
C        0.055719405   0.933464807   0.500000000
C        0.277556146   0.866451989   0.500000000
C        0.222524144   0.933637065   0.500000000
C        0.444211185   0.866433058   0.500000000
C        0.389114093   0.933512277   0.500000000
C        0.610873740   0.866271939   0.500000000
C        0.555748060   0.933542954   0.500000000
C        0.777472645   0.866358461   0.500000000
C        0.722386042   0.933546383   0.500000000
C        0.944066038   0.866212905   0.500000000
C        0.889138118   0.933521826   0.500000000



     Writing output data file graphene.save
     Check: negative starting charge=   -0.002596
     NEW-OLD atomic charge density approx. for the potential
     Check: negative starting charge=   -0.002595

     total cpu time spent up to now is       69.9 secs

     Self-consistent Calculation

     iteration #  1     ecut=    40.00 Ry     beta=0.70
     Davidson diagonalization with overlap
     ethr =  1.00E-06,  avg # of iterations =  2.0

     Threshold (ethr) on eigenvalues was too large:
     Diagonalizing with lowered threshold

     Davidson diagonalization with overlap
     ethr =  2.88E-08,  avg # of iterations =  4.0

     total cpu time spent up to now is       72.4 secs

     total energy              =    -691.74291841 Ry
     Harris-Foulkes estimate   =    -691.74299849 Ry
     estimated scf accuracy    <       0.00010351 Ry

     iteration #  2     ecut=    40.00 Ry     beta=0.70
     Davidson diagonalization with overlap
     ethr =  4.31E-08,  avg # of iterations =  4.0

     total cpu time spent up to now is       74.0 secs

     total energy              =    -691.74286404 Ry
     Harris-Foulkes estimate   =    -691.74310468 Ry
     estimated scf accuracy    <       0.00075963 Ry

     iteration #  3     ecut=    40.00 Ry     beta=0.70
     Davidson diagonalization with overlap
     ethr =  4.31E-08,  avg # of iterations =  4.0

     total cpu time spent up to now is       75.4 secs

     total energy              =    -691.74297724 Ry
     Harris-Foulkes estimate   =    -691.74298106 Ry
     estimated scf accuracy    <       0.00000865 Ry

     iteration #  4     ecut=    40.00 Ry     beta=0.70
     Davidson diagonalization with overlap
     ethr =  3.60E-09,  avg # of iterations =  4.0

     total cpu time spent up to now is       76.8 secs

     total energy              =    -691.74297878 Ry
     Harris-Foulkes estimate   =    -691.74298078 Ry
     estimated scf accuracy    <       0.00000507 Ry

     iteration #  5     ecut=    40.00 Ry     beta=0.70
     Davidson diagonalization with overlap
     ethr =  2.11E-09,  avg # of iterations =  4.0

     total cpu time spent up to now is       78.0 secs

     total energy              =    -691.74297971 Ry
     Harris-Foulkes estimate   =    -691.74298014 Ry
     estimated scf accuracy    <       0.00000121 Ry

     iteration #  6     ecut=    40.00 Ry     beta=0.70
     Davidson diagonalization with overlap
     ethr =  5.02E-10,  avg # of iterations =  4.0

     total cpu time spent up to now is       79.2 secs

     total energy              =    -691.74297991 Ry
     Harris-Foulkes estimate   =    -691.74297994 Ry
     estimated scf accuracy    <       0.00000006 Ry

     iteration #  7     ecut=    40.00 Ry     beta=0.70
     Davidson diagonalization with overlap
     ethr =  2.47E-11,  avg # of iterations =  4.0

     total cpu time spent up to now is       80.6 secs

     total energy              =    -691.74297992 Ry
     Harris-Foulkes estimate   =    -691.74297993 Ry
     estimated scf accuracy    <       0.00000003 Ry

     iteration #  8     ecut=    40.00 Ry     beta=0.70
     Davidson diagonalization with overlap
     ethr =  1.05E-11,  avg # of iterations =  4.0

     total cpu time spent up to now is       81.9 secs

     total energy              =    -691.74297993 Ry
     Harris-Foulkes estimate   =    -691.74297993 Ry
     estimated scf accuracy    <       0.00000001 Ry

     iteration #  9     ecut=    40.00 Ry     beta=0.70
     Davidson diagonalization with overlap
     ethr =  5.40E-12,  avg # of iterations =  4.0

     total cpu time spent up to now is       83.1 secs

     total energy              =    -691.74297993 Ry
     Harris-Foulkes estimate   =    -691.74297993 Ry
     estimated scf accuracy    <          9.4E-10 Ry

     iteration # 10     ecut=    40.00 Ry     beta=0.70
     Davidson diagonalization with overlap
     ethr =  3.91E-13,  avg # of iterations =  4.0

     total cpu time spent up to now is       84.4 secs

     total energy              =    -691.74297993 Ry
     Harris-Foulkes estimate   =    -691.74297993 Ry
     estimated scf accuracy    <          2.2E-10 Ry

     iteration # 11     ecut=    40.00 Ry     beta=0.70
     Davidson diagonalization with overlap
     ethr =  1.00E-13,  avg # of iterations =  4.0

     total cpu time spent up to now is       85.6 secs

     End of self-consistent calculation

          k = 0.0000 0.0000 0.0000 ( 46005 PWs)   bands (ev):

   -21.3086 -20.1093 -19.7216 -19.6271 -19.5527 -19.4268 -19.4232 -18.6603
   -18.4130 -18.1808 -18.1294 -17.8232 -17.7749 -17.7082 -17.6839 -17.2998
   -17.2659 -16.9662 -16.8875 -16.0970 -16.0084 -15.6523 -15.5967 -15.5445
   -15.5035 -15.2307 -15.1253 -14.8451 -14.7724 -14.7230 -14.2138 -13.8905
   -13.6097 -13.5563 -13.3422 -12.8475 -12.7865 -12.5980 -12.5062 -12.3847
   -12.3537 -12.0066 -11.9586 -11.4528 -11.3191 -11.1345 -10.9384 -10.4630
   -10.4377 -10.3743 -10.1478 -10.0669  -9.9527  -9.6667  -9.6252  -9.5839
    -9.5452  -9.2746  -9.0815  -8.9586  -8.9142  -8.8041  -8.4642  -8.2324
    -8.0948  -8.0856  -7.9786  -7.9401  -7.7366  -7.6595  -7.6480  -7.6079
    -7.5245  -7.5021  -7.4365  -7.3686  -7.3563  -7.3500  -7.3274  -7.2259
    -7.1577  -7.0975  -7.0845  -6.9234  -6.7308  -6.6799  -6.6429  -6.4020
    -6.2176  -6.1007  -6.0795  -5.8942  -5.7764  -5.6035  -5.5343  -5.5088
    -5.4765  -5.4264  -5.3878  -5.3714  -5.3420  -5.2386  -5.2029  -4.9637
    -4.8768  -4.6642  -4.5346  -4.2851  -3.9196  -3.7640  -3.4734  -3.3262
    -3.2770  -3.1934  -3.0654  -2.9551  -2.8996  -2.8675  -2.2404  -2.1659
    -0.2168   0.1948   0.4093   0.6034   0.6613   0.9063   1.0459   1.0782
     1.1070   1.5685   1.6296   1.9656   2.1118   2.6968   2.8659   3.0144
     3.5900   3.6213   3.6282   3.7761   3.7792   3.7963   3.9296   3.9345

     the Fermi energy is    -1.1272 ev

!    total energy              =    -691.74297993 Ry
     Harris-Foulkes estimate   =    -691.74297993 Ry
     estimated scf accuracy    <          6.8E-11 Ry

     The total energy is the sum of the following terms:

     one-electron contribution =   -2708.37744482 Ry
     hartree contribution      =    1401.75095861 Ry
     xc contribution           =    -210.35535636 Ry
     ewald contribution        =     825.71601525 Ry
     Dispersion Correction     =      -0.24289233 Ry
     smearing contrib. (-TS)   =      -0.23426028 Ry

     convergence has been achieved in  11 iterations

     Forces acting on atoms (Ry/au):

     atom    1 type  2   force =     0.00061067   -0.00084174    0.00000000
     atom    2 type  2   force =    -0.00030905    0.00030308    0.00000000
     atom    3 type  2   force =     0.00069399    0.00035695    0.00000000
     atom    4 type  2   force =    -0.00010083    0.00034498    0.00000000
     atom    5 type  2   force =     0.00034972    0.00033834    0.00000000
     atom    6 type  2   force =     0.00072566    0.00168864    0.00000000
     atom    7 type  2   force =     0.00011178   -0.00015767    0.00000000
     atom    8 type  2   force =    -0.00100346    0.00154573    0.00000000
     atom    9 type  2   force =    -0.00005592   -0.00060857    0.00000000
     atom   10 type  2   force =    -0.00076670    0.00051637    0.00000000
     atom   11 type  2   force =     0.00071122   -0.00041309    0.00000000
     atom   12 type  2   force =    -0.00069125    0.00014660    0.00000000
     atom   13 type  2   force =     0.00070650    0.00000663    0.00000000
     atom   14 type  2   force =    -0.00057416    0.00039048    0.00000000
     atom   15 type  2   force =     0.00044791   -0.00030105    0.00000000
     atom   16 type  2   force =    -0.00003304    0.00070865    0.00000000
     atom   17 type  2   force =     0.00022556    0.00116387    0.00000000
     atom   18 type  2   force =    -0.00009167    0.00052314    0.00000000
     atom   19 type  2   force =    -0.00015142    0.00121584    0.00000000
     atom   20 type  2   force =    -0.00016768    0.00070522    0.00000000
     atom   21 type  2   force =     0.00014669   -0.00024300    0.00000000
     atom   22 type  2   force =    -0.00052942    0.00070700    0.00000000
     atom   23 type  2   force =     0.00033897   -0.00006146    0.00000000
     atom   24 type  2   force =    -0.00111144    0.00067912    0.00000000
     atom   25 type  2   force =     0.00054461    0.00004050    0.00000000
     atom   26 type  2   force =    -0.00122044    0.00022175    0.00000000
     atom   27 type  2   force =     0.00095634   -0.00039803    0.00000000
     atom   28 type  2   force =     0.00002621    0.00025353    0.00000000
     atom   29 type  2   force =     0.00143329   -0.00105700    0.00000000
     atom   30 type  2   force =     0.00121148    0.00100139    0.00000000
     atom   31 type  1   force =    -0.00036554   -0.00090207    0.00000000
     atom   32 type  2   force =     0.00022352    0.00022160    0.00000000
     atom   33 type  2   force =    -0.00116780   -0.00087115    0.00000000
     atom   34 type  2   force =    -0.00013924    0.00044854    0.00000000
     atom   35 type  2   force =    -0.00007673   -0.00016670    0.00000000
     atom   36 type  2   force =    -0.00189618    0.00092363    0.00000000
     atom   37 type  2   force =     0.00029436   -0.00022586    0.00000000
     atom   38 type  2   force =    -0.00110424    0.00014701    0.00000000
     atom   39 type  2   force =     0.00100096   -0.00013793    0.00000000
     atom   40 type  2   force =    -0.00052632    0.00027980    0.00000000
     atom   41 type  2   force =     0.00058204   -0.00077613    0.00000000
     atom   42 type  2   force =     0.00019603   -0.00003926    0.00000000
     atom   43 type  2   force =     0.00103956   -0.00199020    0.00000000
     atom   44 type  2   force =     0.00054505   -0.00067184    0.00000000
     atom   45 type  2   force =    -0.00064667   -0.00193952    0.00000000
     atom   46 type  2   force =    -0.00007659    0.00015635    0.00000000
     atom   47 type  2   force =     0.00066760   -0.00043310    0.00000000
     atom   48 type  2   force =    -0.00114723   -0.00100555    0.00000000
     atom   49 type  2   force =     0.00085327    0.00001252    0.00000000
     atom   50 type  2   force =    -0.00106197   -0.00057908    0.00000000
     atom   51 type  2   force =     0.00079430    0.00003970    0.00000000
     atom   52 type  2   force =    -0.00007361    0.00122687    0.00000000
     atom   53 type  2   force =     0.00038444   -0.00031151    0.00000000
     atom   54 type  2   force =    -0.00052771    0.00103319    0.00000000
     atom   55 type  2   force =     0.00015778   -0.00090574    0.00000000
     atom   56 type  2   force =    -0.00010484    0.00035727    0.00000000
     atom   57 type  2   force =     0.00026419   -0.00082949    0.00000000
     atom   58 type  2   force =    -0.00037594   -0.00017951    0.00000000
     atom   59 type  2   force =     0.00040072   -0.00123715    0.00000000
     atom   60 type  2   force =    -0.00054733   -0.00042086    0.00000000

     Total force =     0.007926     Total SCF correction =     0.000018

     number of scf cycles    =   4
     number of bfgs steps    =   3

     energy   old            =    -691.7429050942 Ry
     energy   new            =    -691.7429799318 Ry

     CASE: energy  _new < energy  _old

     new trust radius        =       0.0036805704 bohr
     new conv_thr            =            7.5E-11 Ry


ATOMIC_POSITIONS (crystal)
C        0.110885576   0.066366336   0.500000000
C        0.055804268   0.133572054   0.500000000
C        0.277853013   0.066734571   0.500000000
C        0.222489428   0.133535667   0.500000000
C        0.444295804   0.066562712   0.500000000
C        0.389540455   0.133919644   0.500000000
C        0.610868052   0.066649633   0.500000000
C        0.555687910   0.133922708   0.500000000
C        0.777458541   0.066361099   0.500000000
C        0.722365926   0.133529352   0.500000000
C        0.944241170   0.066422566   0.500000000
C        0.889078218   0.133544965   0.500000000
C        0.110938717   0.266479102   0.500000000
C        0.055777189   0.333596620   0.500000000
C        0.277605295   0.266450117   0.500000000
C        0.222518077   0.333679444   0.500000000
C        0.444695848   0.267248278   0.500000000
C        0.388981553   0.333531535   0.500000000
C        0.611076413   0.267246444   0.500000000
C        0.555826744   0.333811613   0.500000000
C        0.777478998   0.266417660   0.500000000
C        0.722527088   0.333539276   0.500000000
C        0.944218053   0.266456416   0.500000000
C        0.889103216   0.333681126   0.500000000
C        0.110907120   0.466448081   0.500000000
C        0.055656897   0.533599095   0.500000000
C        0.277869422   0.466498845   0.500000000
C        0.222567384   0.533597426   0.500000000
C        0.444723600   0.466235156   0.500000000
C        0.389573584   0.533817138   0.500000000
C_h      0.610853861   0.466364679   0.500000000
C        0.555792605   0.533318915   0.500000000
C        0.776892656   0.466294209   0.500000000
C        0.722180054   0.533352393   0.500000000
C        0.943985427   0.466519477   0.500000000
C        0.888844337   0.533844523   0.500000000
C        0.110905076   0.666448278   0.500000000
C        0.055868382   0.733647323   0.500000000
C        0.277596139   0.666447834   0.500000000
C        0.222461171   0.733590380   0.500000000
C        0.444272663   0.666376365   0.500000000
C        0.389127894   0.733629996   0.500000000
C        0.611008888   0.665759619   0.500000000
C        0.555659018   0.733053230   0.500000000
C        0.776880625   0.665722098   0.500000000
C        0.722499621   0.733700391   0.500000000
C        0.944158449   0.666380620   0.500000000
C        0.888795479   0.732973848   0.500000000
C        0.110967806   0.866493444   0.500000000
C        0.055634413   0.933377153   0.500000000
C        0.277581568   0.866465791   0.500000000
C        0.222589580   0.933730187   0.500000000
C        0.444224675   0.866433991   0.500000000
C        0.389124346   0.933558893   0.500000000
C        0.610839377   0.866164356   0.500000000
C        0.555745764   0.933543130   0.500000000
C        0.777460500   0.866327262   0.500000000
C        0.722342523   0.933502984   0.500000000
C        0.943988124   0.866060613   0.500000000
C        0.889105424   0.933463339   0.500000000



     Writing output data file graphene.save
     Check: negative starting charge=   -0.002595
     NEW-OLD atomic charge density approx. for the potential
     Check: negative starting charge=   -0.002595

     total cpu time spent up to now is       86.5 secs

     Self-consistent Calculation

     iteration #  1     ecut=    40.00 Ry     beta=0.70
     Davidson diagonalization with overlap
     ethr =  1.00E-06,  avg # of iterations =  3.0

     Threshold (ethr) on eigenvalues was too large:
     Diagonalizing with lowered threshold

     Davidson diagonalization with overlap
     ethr =  8.68E-08,  avg # of iterations =  3.0

     total cpu time spent up to now is       88.8 secs

     total energy              =    -691.74289171 Ry
     Harris-Foulkes estimate   =    -691.74307150 Ry
     estimated scf accuracy    <       0.00022361 Ry

     iteration #  2     ecut=    40.00 Ry     beta=0.70
     Davidson diagonalization with overlap
     ethr =  9.32E-08,  avg # of iterations =  5.0

     total cpu time spent up to now is       90.5 secs

     total energy              =    -691.74276382 Ry
     Harris-Foulkes estimate   =    -691.74333957 Ry
     estimated scf accuracy    <       0.00186113 Ry

     iteration #  3     ecut=    40.00 Ry     beta=0.70
     Davidson diagonalization with overlap
     ethr =  9.32E-08,  avg # of iterations =  4.0

     total cpu time spent up to now is       92.0 secs

     total energy              =    -691.74303159 Ry
     Harris-Foulkes estimate   =    -691.74303596 Ry
     estimated scf accuracy    <       0.00000959 Ry

     iteration #  4     ecut=    40.00 Ry     beta=0.70
     Davidson diagonalization with overlap
     ethr =  3.99E-09,  avg # of iterations =  4.0

     total cpu time spent up to now is       93.3 secs

     total energy              =    -691.74303326 Ry
     Harris-Foulkes estimate   =    -691.74303697 Ry
     estimated scf accuracy    <       0.00001082 Ry

     iteration #  5     ecut=    40.00 Ry     beta=0.70
     Davidson diagonalization with overlap
     ethr =  3.99E-09,  avg # of iterations =  4.0

     total cpu time spent up to now is       94.5 secs

     total energy              =    -691.74303502 Ry
     Harris-Foulkes estimate   =    -691.74303536 Ry
     estimated scf accuracy    <       0.00000085 Ry

     iteration #  6     ecut=    40.00 Ry     beta=0.70
     Davidson diagonalization with overlap
     ethr =  3.55E-10,  avg # of iterations =  4.0

     total cpu time spent up to now is       95.8 secs

     total energy              =    -691.74303519 Ry
     Harris-Foulkes estimate   =    -691.74303524 Ry
     estimated scf accuracy    <       0.00000011 Ry

     iteration #  7     ecut=    40.00 Ry     beta=0.70
     Davidson diagonalization with overlap
     ethr =  4.59E-11,  avg # of iterations =  4.0

     total cpu time spent up to now is       97.2 secs

     total energy              =    -691.74303521 Ry
     Harris-Foulkes estimate   =    -691.74303524 Ry
     estimated scf accuracy    <       0.00000006 Ry

     iteration #  8     ecut=    40.00 Ry     beta=0.70
     Davidson diagonalization with overlap
     ethr =  2.32E-11,  avg # of iterations =  4.0

     total cpu time spent up to now is       98.4 secs

     total energy              =    -691.74303522 Ry
     Harris-Foulkes estimate   =    -691.74303523 Ry
     estimated scf accuracy    <       0.00000002 Ry

     iteration #  9     ecut=    40.00 Ry     beta=0.70
     Davidson diagonalization with overlap
     ethr =  7.87E-12,  avg # of iterations =  4.0

     total cpu time spent up to now is       99.6 secs

     total energy              =    -691.74303523 Ry
     Harris-Foulkes estimate   =    -691.74303523 Ry
     estimated scf accuracy    <          9.4E-10 Ry

     iteration # 10     ecut=    40.00 Ry     beta=0.70
     Davidson diagonalization with overlap
     ethr =  3.93E-13,  avg # of iterations =  4.0

     total cpu time spent up to now is      101.0 secs

     total energy              =    -691.74303523 Ry
     Harris-Foulkes estimate   =    -691.74303523 Ry
     estimated scf accuracy    <          4.6E-10 Ry

     iteration # 11     ecut=    40.00 Ry     beta=0.70
     Davidson diagonalization with overlap
     ethr =  1.91E-13,  avg # of iterations =  4.0

     total cpu time spent up to now is      102.2 secs

     total energy              =    -691.74303523 Ry
     Harris-Foulkes estimate   =    -691.74303523 Ry
     estimated scf accuracy    <          9.3E-11 Ry

     iteration # 12     ecut=    40.00 Ry     beta=0.70
     Davidson diagonalization with overlap
     ethr =  1.00E-13,  avg # of iterations =  3.0

     total cpu time spent up to now is      103.2 secs

     End of self-consistent calculation

          k = 0.0000 0.0000 0.0000 ( 46005 PWs)   bands (ev):

   -21.3275 -20.1078 -19.7238 -19.6297 -19.5500 -19.4243 -19.4205 -18.6630
   -18.4146 -18.1807 -18.1313 -17.8226 -17.7759 -17.7070 -17.6827 -17.2983
   -17.2647 -16.9652 -16.8881 -16.0995 -16.0112 -15.6511 -15.5970 -15.5451
   -15.5043 -15.2298 -15.1237 -14.8434 -14.7735 -14.7228 -14.2156 -13.8943
   -13.6107 -13.5574 -13.3392 -12.8476 -12.7872 -12.6003 -12.5065 -12.3843
   -12.3536 -12.0063 -11.9582 -11.4535 -11.3169 -11.1384 -10.9405 -10.4644
   -10.4401 -10.3749 -10.1474 -10.0669  -9.9534  -9.6624  -9.6255  -9.5845
    -9.5466  -9.2742  -9.0794  -8.9565  -8.9259  -8.8037  -8.4671  -8.2320
    -8.0939  -8.0859  -7.9807  -7.9417  -7.7353  -7.6573  -7.6491  -7.6080
    -7.5257  -7.4999  -7.4383  -7.3690  -7.3540  -7.3483  -7.3280  -7.2249
    -7.1585  -7.0968  -7.0847  -6.9234  -6.7292  -6.6765  -6.6386  -6.4047
    -6.2184  -6.1013  -6.0812  -5.8939  -5.7767  -5.6042  -5.5346  -5.5080
    -5.4793  -5.4239  -5.3883  -5.3706  -5.3409  -5.2371  -5.2017  -4.9634
    -4.8766  -4.6632  -4.5345  -4.2844  -3.9194  -3.7664  -3.4759  -3.3258
    -3.2767  -3.1932  -3.0659  -2.9534  -2.8974  -2.8639  -2.2414  -2.1670
    -0.2154   0.1964   0.4096   0.6025   0.6599   0.9077   1.0447   1.0764
     1.1091   1.5680   1.6296   1.9644   2.1112   2.6964   2.8681   3.0162
     3.5894   3.6211   3.6287   3.7759   3.7794   3.7966   3.9290   3.9348

     the Fermi energy is    -1.1269 ev

!    total energy              =    -691.74303523 Ry
     Harris-Foulkes estimate   =    -691.74303523 Ry
     estimated scf accuracy    <          4.0E-12 Ry

     The total energy is the sum of the following terms:

     one-electron contribution =   -2708.41801014 Ry
     hartree contribution      =    1401.76929069 Ry
     xc contribution           =    -210.35546427 Ry
     ewald contribution        =     825.73828756 Ry
     Dispersion Correction     =      -0.24289284 Ry
     smearing contrib. (-TS)   =      -0.23424622 Ry

     convergence has been achieved in  12 iterations

     Forces acting on atoms (Ry/au):

     atom    1 type  2   force =    -0.00020591   -0.00061496    0.00000000
     atom    2 type  2   force =     0.00050918    0.00011659    0.00000000
     atom    3 type  2   force =    -0.00010704    0.00012060    0.00000000
     atom    4 type  2   force =    -0.00002034    0.00018339    0.00000000
     atom    5 type  2   force =    -0.00009061    0.00045486    0.00000000
     atom    6 type  2   force =     0.00024585    0.00061467    0.00000000
     atom    7 type  2   force =     0.00006997   -0.00033821    0.00000000
     atom    8 type  2   force =     0.00013223    0.00030686    0.00000000
     atom    9 type  2   force =    -0.00038459   -0.00040904    0.00000000
     atom   10 type  2   force =    -0.00004001    0.00037762    0.00000000
     atom   11 type  2   force =    -0.00023695   -0.00042866    0.00000000
     atom   12 type  2   force =    -0.00000288    0.00004045    0.00000000
     atom   13 type  2   force =    -0.00003176   -0.00005492    0.00000000
     atom   14 type  2   force =     0.00022931    0.00043025    0.00000000
     atom   15 type  2   force =     0.00019210   -0.00004057    0.00000000
     atom   16 type  2   force =     0.00044637    0.00015806    0.00000000
     atom   17 type  2   force =    -0.00016857    0.00024590    0.00000000
[...]
     atom   51 type  2   force =    -0.00002411   -0.00001730    0.00000000
     atom   52 type  2   force =     0.00000288    0.00000627    0.00000000
     atom   53 type  2   force =     0.00000319   -0.00000695    0.00000000
     atom   54 type  2   force =    -0.00000737    0.00000262    0.00000000
     atom   55 type  2   force =     0.00000526   -0.00001023    0.00000000
     atom   56 type  2   force =    -0.00003536   -0.00000406    0.00000000
     atom   57 type  2   force =    -0.00001781   -0.00000722    0.00000000
     atom   58 type  2   force =     0.00000547   -0.00001021    0.00000000
     atom   59 type  2   force =    -0.00000344    0.00000531    0.00000000
     atom   60 type  2   force =     0.00003317   -0.00000622    0.00000000

     Total force =     0.000154     Total SCF correction =     0.000001

     number of scf cycles    =  13
     number of bfgs steps    =  12

     energy   old            =    -691.7430475482 Ry
     energy   new            =    -691.7430475635 Ry

     CASE: energy  _new < energy  _old

     Message from routine bfgs:
     history already reset at previous step: stopping
     small trust_radius: resetting bfgs history

     new trust radius        =       0.0000482166 bohr
     new conv_thr            =            1.0E-12 Ry


ATOMIC_POSITIONS (crystal)
C        0.110844396   0.066305062   0.500000000
C        0.055776724   0.133524782   0.500000000
C        0.277880517   0.066798408   0.500000000
C        0.222471768   0.133537766   0.500000000
C        0.444363048   0.066685425   0.500000000
C        0.389584847   0.134012689   0.500000000
C        0.610884505   0.066661270   0.500000000
C        0.555741522   0.133991136   0.500000000
C        0.777416171   0.066308149   0.500000000
C        0.722369010   0.133549560   0.500000000
C        0.944183255   0.066342254   0.500000000
C        0.889042846   0.133506631   0.500000000
C        0.110918435   0.266461255   0.500000000
C        0.055772664   0.333618599   0.500000000
C        0.277597846   0.266441971   0.500000000
C        0.222517157   0.333672376   0.500000000
C        0.444702631   0.267290200   0.500000000
C        0.388976217   0.333532226   0.500000000
C        0.611090651   0.267283092   0.500000000
C        0.555816423   0.333801189   0.500000000
C        0.777448984   0.266446147   0.500000000
C        0.722525921   0.333578601   0.500000000
C        0.944181157   0.266448983   0.500000000
C        0.889082069   0.333699312   0.500000000
C        0.110916490   0.466492616   0.500000000
C        0.055685643   0.533647642   0.500000000
C        0.277853532   0.466488863   0.500000000
C        0.222587488   0.533628581   0.500000000
C        0.444695934   0.466187671   0.500000000
C        0.389574120   0.533798001   0.500000000
C_h      0.610832443   0.466334627   0.500000000
C        0.555749417   0.533283285   0.500000000
C        0.776882591   0.466287822   0.500000000
C        0.722175100   0.533326093   0.500000000
C        0.943992320   0.466533089   0.500000000
C        0.888848937   0.533859453   0.500000000
C        0.110922053   0.666506216   0.500000000
C        0.055879180   0.733682959   0.500000000
C        0.277663310   0.666494153   0.500000000
C        0.222530998   0.733672416   0.500000000
C        0.444299183   0.666348337   0.500000000
C        0.389200106   0.733655562   0.500000000
C        0.610972486   0.665680612   0.500000000
C        0.555666954   0.733020747   0.500000000
C        0.776833420   0.665635217   0.500000000
C        0.722448736   0.733590539   0.500000000
C        0.944142782   0.666374519   0.500000000
C        0.888755975   0.732913569   0.500000000
C        0.110982847   0.866505545   0.500000000
C        0.055611457   0.933329625   0.500000000
C        0.277673415   0.866584876   0.500000000
C        0.222640709   0.933810616   0.500000000
C        0.444272186   0.866483736   0.500000000
C        0.389224700   0.933692434   0.500000000
C        0.610834770   0.866136570   0.500000000
C        0.555780956   0.933564591   0.500000000
C        0.777384950   0.866181101   0.500000000
C        0.722319232   0.933427951   0.500000000
C        0.943935134   0.865982820   0.500000000
C        0.889041679   0.933360467   0.500000000



     Writing output data file graphene.save
     Check: negative starting charge=   -0.002595
     NEW-OLD atomic charge density approx. for the potential
     Check: negative starting charge=   -0.002595

     total cpu time spent up to now is      218.5 secs

     Self-consistent Calculation

     iteration #  1     ecut=    40.00 Ry     beta=0.70
     Davidson diagonalization with overlap
     ethr =  1.00E-06,  avg # of iterations =  1.0

     Threshold (ethr) on eigenvalues was too large:
     Diagonalizing with lowered threshold

     Davidson diagonalization with overlap
     ethr =  1.03E-12,  avg # of iterations =  5.0

     total cpu time spent up to now is      221.2 secs

     total energy              =    -691.74304757 Ry
     Harris-Foulkes estimate   =    -691.74304757 Ry
     estimated scf accuracy    <       0.00000001 Ry

     iteration #  2     ecut=    40.00 Ry     beta=0.70
     Davidson diagonalization with overlap
     ethr =  5.56E-12,  avg # of iterations =  4.0

     total cpu time spent up to now is      222.8 secs

     total energy              =    -691.74304756 Ry
     Harris-Foulkes estimate   =    -691.74304758 Ry
     estimated scf accuracy    <       0.00000005 Ry

     iteration #  3     ecut=    40.00 Ry     beta=0.70
     Davidson diagonalization with overlap
     ethr =  5.56E-12,  avg # of iterations =  4.0

     total cpu time spent up to now is      224.2 secs

     total energy              =    -691.74304757 Ry
     Harris-Foulkes estimate   =    -691.74304757 Ry
     estimated scf accuracy    <          5.0E-09 Ry

     iteration #  4     ecut=    40.00 Ry     beta=0.70
     Davidson diagonalization with overlap
     ethr =  2.08E-12,  avg # of iterations =  4.0

     total cpu time spent up to now is      225.4 secs

     total energy              =    -691.74304757 Ry
     Harris-Foulkes estimate   =    -691.74304757 Ry
     estimated scf accuracy    <          5.2E-10 Ry

     iteration #  5     ecut=    40.00 Ry     beta=0.70
     Davidson diagonalization with overlap
     ethr =  2.16E-13,  avg # of iterations =  4.0

     total cpu time spent up to now is      226.7 secs

     total energy              =    -691.74304757 Ry
     Harris-Foulkes estimate   =    -691.74304757 Ry
     estimated scf accuracy    <          3.9E-10 Ry

     iteration #  6     ecut=    40.00 Ry     beta=0.70
     Davidson diagonalization with overlap
     ethr =  1.62E-13,  avg # of iterations =  4.0

     total cpu time spent up to now is      227.8 secs

     total energy              =    -691.74304757 Ry
     Harris-Foulkes estimate   =    -691.74304757 Ry
     estimated scf accuracy    <          1.7E-11 Ry

     iteration #  7     ecut=    40.00 Ry     beta=0.70
     Davidson diagonalization with overlap
     ethr =  1.00E-13,  avg # of iterations =  1.0

     total cpu time spent up to now is      228.6 secs

     total energy              =    -691.74304757 Ry
     Harris-Foulkes estimate   =    -691.74304757 Ry
     estimated scf accuracy    <          2.3E-12 Ry

     iteration #  8     ecut=    40.00 Ry     beta=0.70
     Davidson diagonalization with overlap
     ethr =  1.00E-13,  avg # of iterations =  1.0

     total cpu time spent up to now is      229.4 secs

     total energy              =    -691.74304757 Ry
     Harris-Foulkes estimate   =    -691.74304757 Ry
     estimated scf accuracy    <          2.0E-12 Ry

     iteration #  9     ecut=    40.00 Ry     beta=0.70
     Davidson diagonalization with overlap
     ethr =  1.00E-13,  avg # of iterations =  1.0

     total cpu time spent up to now is      230.3 secs

     End of self-consistent calculation

          k = 0.0000 0.0000 0.0000 ( 46005 PWs)   bands (ev):

   -21.3283 -20.1064 -19.7251 -19.6317 -19.5501 -19.4225 -19.4193 -18.6624
   -18.4147 -18.1815 -18.1319 -17.8235 -17.7768 -17.7062 -17.6826 -17.2973
   -17.2639 -16.9643 -16.8881 -16.1000 -16.0112 -15.6507 -15.5970 -15.5451
   -15.5054 -15.2294 -15.1237 -14.8427 -14.7736 -14.7227 -14.2148 -13.8944
   -13.6109 -13.5581 -13.3389 -12.8484 -12.7875 -12.6003 -12.5065 -12.3846
   -12.3531 -12.0058 -11.9576 -11.4529 -11.3171 -11.1383 -10.9408 -10.4639
   -10.4404 -10.3744 -10.1483 -10.0679  -9.9549  -9.6613  -9.6256  -9.5849
    -9.5471  -9.2737  -9.0790  -8.9571  -8.9269  -8.8031  -8.4679  -8.2312
    -8.0936  -8.0846  -7.9818  -7.9420  -7.7349  -7.6568  -7.6499  -7.6080
    -7.5270  -7.5000  -7.4387  -7.3689  -7.3532  -7.3469  -7.3290  -7.2252
    -7.1591  -7.0974  -7.0849  -6.9225  -6.7296  -6.6764  -6.6379  -6.4041
    -6.2179  -6.1015  -6.0802  -5.8946  -5.7770  -5.6042  -5.5348  -5.5085
    -5.4789  -5.4251  -5.3886  -5.3704  -5.3410  -5.2361  -5.2008  -4.9626
    -4.8762  -4.6624  -4.5342  -4.2860  -3.9177  -3.7672  -3.4764  -3.3257
    -3.2766  -3.1935  -3.0671  -2.9533  -2.8974  -2.8629  -2.2409  -2.1666
    -0.2159   0.1963   0.4090   0.6019   0.6599   0.9078   1.0447   1.0768
     1.1090   1.5686   1.6302   1.9641   2.1107   2.6964   2.8680   3.0162
     3.5893   3.6210   3.6279   3.7757   3.7793   3.7957   3.9294   3.9350

     the Fermi energy is    -1.1269 ev

!    total energy              =    -691.74304757 Ry
     Harris-Foulkes estimate   =    -691.74304757 Ry
     estimated scf accuracy    <          1.8E-13 Ry

     The total energy is the sum of the following terms:

     one-electron contribution =   -2708.42450366 Ry
     hartree contribution      =    1401.77244749 Ry
     xc contribution           =    -210.35517355 Ry
     ewald contribution        =     825.74139161 Ry
     Dispersion Correction     =      -0.24289051 Ry
     smearing contrib. (-TS)   =      -0.23431894 Ry

     convergence has been achieved in   9 iterations

     Forces acting on atoms (Ry/au):

     atom    1 type  2   force =     0.00000623   -0.00001624    0.00000000
     atom    2 type  2   force =     0.00000220    0.00002137    0.00000000
     atom    3 type  2   force =     0.00000720    0.00000463    0.00000000
     atom    4 type  2   force =    -0.00002188    0.00000853    0.00000000
     atom    5 type  2   force =    -0.00001791   -0.00001192    0.00000000
     atom    6 type  2   force =    -0.00001074    0.00001713    0.00000000
     atom    7 type  2   force =    -0.00002062   -0.00001038    0.00000000
     atom    8 type  2   force =     0.00002545    0.00001913    0.00000000
     atom    9 type  2   force =     0.00000583   -0.00000484    0.00000000
     atom   10 type  2   force =     0.00001722    0.00001035    0.00000000
     atom   11 type  2   force =     0.00000984   -0.00000941    0.00000000
     atom   12 type  2   force =     0.00000808    0.00000463    0.00000000
     atom   13 type  2   force =     0.00000630    0.00000577    0.00000000
     atom   14 type  2   force =     0.00001227    0.00000704    0.00000000
     atom   15 type  2   force =     0.00000858   -0.00000148    0.00000000
     atom   16 type  2   force =    -0.00002164    0.00000976    0.00000000
     atom   17 type  2   force =    -0.00001927   -0.00001317    0.00000000
     atom   18 type  2   force =    -0.00001754    0.00000832    0.00000000
     atom   19 type  2   force =    -0.00000523   -0.00001015    0.00000000
     atom   20 type  2   force =     0.00002067    0.00001257    0.00000000
     atom   21 type  2   force =     0.00001944    0.00000821    0.00000000
     atom   22 type  2   force =     0.00000210   -0.00000143    0.00000000
     atom   23 type  2   force =    -0.00000056    0.00000055    0.00000000
     atom   24 type  2   force =     0.00000943   -0.00000960    0.00000000
     atom   25 type  2   force =    -0.00001353    0.00000967    0.00000000
     atom   26 type  2   force =     0.00001291   -0.00000634    0.00000000
     atom   27 type  2   force =    -0.00000061    0.00000977    0.00000000
     atom   28 type  2   force =    -0.00000419   -0.00000827    0.00000000
     atom   29 type  2   force =    -0.00001814   -0.00001595    0.00000000
     atom   30 type  2   force =    -0.00000453   -0.00000212    0.00000000
     atom   31 type  1   force =     0.00000080   -0.00000499    0.00000000
     atom   32 type  2   force =     0.00001082    0.00000662    0.00000000
     atom   33 type  2   force =     0.00003484    0.00001572    0.00000000
     atom   34 type  2   force =    -0.00001680   -0.00001378    0.00000000
     atom   35 type  2   force =    -0.00000152    0.00000802    0.00000000
     atom   36 type  2   force =    -0.00000299   -0.00001702    0.00000000
     atom   37 type  2   force =    -0.00001113    0.00000321    0.00000000
     atom   38 type  2   force =     0.00000793    0.00000417    0.00000000
     atom   39 type  2   force =    -0.00000483    0.00000993    0.00000000
     atom   40 type  2   force =    -0.00001404   -0.00001809    0.00000000
     atom   41 type  2   force =    -0.00002346   -0.00000289    0.00000000
     atom   42 type  2   force =     0.00000302   -0.00001920    0.00000000
     atom   43 type  2   force =     0.00001283    0.00000660    0.00000000
     atom   44 type  2   force =     0.00001655   -0.00000437    0.00000000
     atom   45 type  2   force =     0.00004947    0.00000587    0.00000000
     atom   46 type  2   force =    -0.00003105   -0.00001285    0.00000000
     atom   47 type  2   force =     0.00000669    0.00000228    0.00000000
     atom   48 type  2   force =    -0.00002393   -0.00001239    0.00000000
     atom   49 type  2   force =     0.00000021   -0.00000542    0.00000000
     atom   50 type  2   force =     0.00000308    0.00001050    0.00000000
     atom   51 type  2   force =     0.00000542    0.00000537    0.00000000
     atom   52 type  2   force =    -0.00000813    0.00000763    0.00000000
     atom   53 type  2   force =    -0.00002773   -0.00000178    0.00000000
     atom   54 type  2   force =    -0.00001424   -0.00000481    0.00000000
     atom   55 type  2   force =    -0.00002112    0.00000254    0.00000000
     atom   56 type  2   force =     0.00002277    0.00000318    0.00000000
     atom   57 type  2   force =     0.00003547    0.00000451    0.00000000
     atom   58 type  2   force =    -0.00000648   -0.00000341    0.00000000
     atom   59 type  2   force =     0.00001737   -0.00001776    0.00000000
     atom   60 type  2   force =    -0.00001715    0.00000649    0.00000000

     Total force =     0.000151     Total SCF correction =     0.000001

     bfgs converged in  14 scf cycles and  13 bfgs steps
     (criteria: energy <  1.0E-06, force <  1.0E-05)

     End of BFGS Geometry Optimization

     Final energy   =    -691.7430475696 Ry
Begin final coordinates

ATOMIC_POSITIONS (crystal)
C        0.110844396   0.066305062   0.500000000
C        0.055776724   0.133524782   0.500000000
C        0.277880517   0.066798408   0.500000000
C        0.222471768   0.133537766   0.500000000
C        0.444363048   0.066685425   0.500000000
C        0.389584847   0.134012689   0.500000000
C        0.610884505   0.066661270   0.500000000
C        0.555741522   0.133991136   0.500000000
C        0.777416171   0.066308149   0.500000000
C        0.722369010   0.133549560   0.500000000
C        0.944183255   0.066342254   0.500000000
C        0.889042846   0.133506631   0.500000000
C        0.110918435   0.266461255   0.500000000
C        0.055772664   0.333618599   0.500000000
C        0.277597846   0.266441971   0.500000000
C        0.222517157   0.333672376   0.500000000
C        0.444702631   0.267290200   0.500000000
C        0.388976217   0.333532226   0.500000000
C        0.611090651   0.267283092   0.500000000
C        0.555816423   0.333801189   0.500000000
C        0.777448984   0.266446147   0.500000000
C        0.722525921   0.333578601   0.500000000
C        0.944181157   0.266448983   0.500000000
C        0.889082069   0.333699312   0.500000000
C        0.110916490   0.466492616   0.500000000
C        0.055685643   0.533647642   0.500000000
C        0.277853532   0.466488863   0.500000000
C        0.222587488   0.533628581   0.500000000
C        0.444695934   0.466187671   0.500000000
C        0.389574120   0.533798001   0.500000000
C_h      0.610832443   0.466334627   0.500000000
C        0.555749417   0.533283285   0.500000000
C        0.776882591   0.466287822   0.500000000
C        0.722175100   0.533326093   0.500000000
C        0.943992320   0.466533089   0.500000000
C        0.888848937   0.533859453   0.500000000
C        0.110922053   0.666506216   0.500000000
C        0.055879180   0.733682959   0.500000000
C        0.277663310   0.666494153   0.500000000
C        0.222530998   0.733672416   0.500000000
C        0.444299183   0.666348337   0.500000000
C        0.389200106   0.733655562   0.500000000
C        0.610972486   0.665680612   0.500000000
C        0.555666954   0.733020747   0.500000000
C        0.776833420   0.665635217   0.500000000
C        0.722448736   0.733590539   0.500000000
C        0.944142782   0.666374519   0.500000000
C        0.888755975   0.732913569   0.500000000
C        0.110982847   0.866505545   0.500000000
C        0.055611457   0.933329625   0.500000000
C        0.277673415   0.866584876   0.500000000
C        0.222640709   0.933810616   0.500000000
C        0.444272186   0.866483736   0.500000000
C        0.389224700   0.933692434   0.500000000
C        0.610834770   0.866136570   0.500000000
C        0.555780956   0.933564591   0.500000000
C        0.777384950   0.866181101   0.500000000
C        0.722319232   0.933427951   0.500000000
C        0.943935134   0.865982820   0.500000000
C        0.889041679   0.933360467   0.500000000
End final coordinates



     Writing output data file graphene.save
 
     init_run     :      2.18s CPU      3.11s WALL (       1 calls)
     electrons    :    206.07s CPU    217.22s WALL (      14 calls)
     update_pot   :      3.49s CPU      3.85s WALL (      13 calls)
     forces       :      2.41s CPU      2.45s WALL (      14 calls)

     Called by init_run:
     wfcinit      :      1.18s CPU      1.72s WALL (       1 calls)
     potinit      :      0.11s CPU      0.12s WALL (       1 calls)

     Called by electrons:
     c_bands      :    180.42s CPU    190.10s WALL (     166 calls)
     sum_band     :     19.19s CPU     19.62s WALL (     166 calls)
     v_of_rho     :      4.13s CPU      4.58s WALL (     169 calls)
     mix_rho      :      0.91s CPU      0.97s WALL (     166 calls)

     Called by c_bands:
     init_us_2    :      0.09s CPU      0.14s WALL (     333 calls)
     cegterg      :    180.25s CPU    189.67s WALL (     166 calls)

     Called by sum_band:

     Called by *egterg:
     h_psi        :     91.08s CPU     92.59s WALL (     797 calls)
     g_psi        :      0.30s CPU      0.30s WALL (     630 calls)
     cdiaghg      :     61.43s CPU     67.05s WALL (     772 calls)

     Called by h_psi:
     add_vuspsi   :      1.15s CPU      1.20s WALL (     797 calls)

     General routines
     calbec       :      1.89s CPU      2.15s WALL (     853 calls)
     fft          :      6.08s CPU      6.57s WALL (    2384 calls)
     ffts         :      0.53s CPU      0.58s WALL (     335 calls)
     fftw         :    100.40s CPU    101.87s WALL (  147158 calls)
     interpolate  :      1.15s CPU      1.33s WALL (     335 calls)
     davcio       :      0.00s CPU      0.18s WALL (      14 calls)
 
     Parallel routines
     fft_scatter  :     72.30s CPU     73.36s WALL (  149877 calls)
 
     PWSCF        :  3m35.74s CPU     3m51.45s WALL

 
   This run was terminated on:  23: 4:35   4Nov2016            

=------------------------------------------------------------------------------=
   JOB DONE.
=------------------------------------------------------------------------------=
