
     Program PWSCF v.5.4.0 starts on 20Apr2017 at 14:38: 6 

     This program is part of the open-source Quantum ESPRESSO suite
     for quantum simulation of materials; please cite
         "P. Giannozzi et al., J. Phys.:Condens. Matter 21 395502 (2009);
          URL http://www.quantum-espresso.org", 
     in publications or presentations arising from this work. More details at
     http://www.quantum-espresso.org/quote

     Parallel version (MPI & OpenMP), running on      56 processor cores
     Number of MPI processes:                56
     Threads/MPI process:                     1
     R & G space division:  proc/nbgrp/npool/nimage =      56
     Waiting for input...
     Reading input from standard input
Warning: card &IONS ignored
Warning: card / ignored

     Current dimensions of program PWSCF are:
     Max number of different atomic species (ntypx) = 10
     Max number of k-points (npk) =  40000
     Max angular momentum in pseudopotentials (lmaxx) =  3

     -------------------------------------
     Parameters for Dispersion Correction:
     -------------------------------------
       atom      VdW radius       C_6     

        Cu         2.952        374.666
        C_h        2.744         60.710
        C          2.744         60.710

     Subspace diagonalization in iterative solution of the eigenvalue problem:
     one sub-group per band group will be used
     scalapack distributed-memory algorithm (size of sub-group:  5*  5 procs)

 
     Parallelization info
     --------------------
     sticks:   dense  smooth     PW     G-vecs:    dense   smooth      PW
     Min         204     204     54                36612    36612    4962
     Max         205     205     55                36617    36617    4968
     Sum       11433   11433   3039              2050409  2050409  278033
 


     bravais-lattice index     =            0
     lattice parameter (alat)  =      13.9425  a.u.
     unit-cell volume          =   21209.0878 (a.u.)^3
     number of atoms/cell      =          156
     number of atomic types    =            3
     number of electrons       =      1380.00
     number of Kohn-Sham states=          828
     kinetic-energy cutoff     =      80.0000  Ry
     charge density cutoff     =     320.0000  Ry
     convergence threshold     =      1.0E-08
     mixing beta               =       0.7000
     number of iterations used =            8  local-TF  mixing
     Exchange-correlation      =  SLA  PW   PBX  PBC ( 1  4  3  4 0 0)

     celldm(1)=  13.942539  celldm(2)=   0.000000  celldm(3)=   0.000000
     celldm(4)=   0.000000  celldm(5)=   0.000000  celldm(6)=   0.000000

     crystal axes: (cart. coord. in units of alat)
               a(1) = (   1.000000   0.000000   0.000000 )  
               a(2) = (   0.000000   2.309401   0.000000 )  
               a(3) = (   0.000000   0.000000   3.388418 )  

     reciprocal axes: (cart. coord. in units 2 pi/alat)
               b(1) = (  1.000000  0.000000  0.000000 )  
               b(2) = (  0.000000  0.433013  0.000000 )  
               b(3) = (  0.000000  0.000000  0.295123 )  


     PseudoPot. # 1 for Cu read from file:
     /home/549/hxw549/Short/pseudopotentials/Cu.pbe-n-van_ak.UPF
     MD5 check sum: 601f7c30f7467666bec936e0661ce3e1
     Pseudo is Ultrasoft + core correction, Zval = 11.0
     Generated by new atomic code, or converted to UPF format
     Using radial grid of  867 points,  6 beta functions with: 
                l(1) =   0
                l(2) =   0
                l(3) =   1
                l(4) =   1
                l(5) =   2
                l(6) =   2
     Q(r) pseudized with  8 coefficients,  rinner =    1.400   1.400   1.400
                                                       1.400   1.400

     PseudoPot. # 2 for C  read from file:
     /home/549/hxw549/Short/pseudopotentials/C.star1s-pbe-mt_gipaw.UPF
     MD5 check sum: ef0cb3dee31bd9e4ba2a832a2c716264
     Pseudo is Norm-conserving, Zval =  5.0
     Generated by new atomic code, or converted to UPF format
     Using radial grid of 1073 points,  1 beta functions with: 
                l(1) =   0

     PseudoPot. # 3 for C  read from file:
     /home/549/hxw549/Short/pseudopotentials/C.pbe-mt_gipaw.UPF
     MD5 check sum: 5ac2f21f2c440b14befe521540822c15
     Pseudo is Norm-conserving, Zval =  4.0
     Generated by new atomic code, or converted to UPF format
     Using radial grid of 1073 points,  1 beta functions with: 
                l(1) =   0

     atomic species   valence    mass     pseudopotential
        Cu            11.00    63.54600     Cu( 1.00)
        C_h            5.00    12.01070     C ( 1.00)
        C              4.00    12.01070     C ( 1.00)

     No symmetry found



   Cartesian axes

     site n.     atom                  positions (alat units)
         1           Cu  tau(   1) = (  -0.0000549   0.0038944   0.8895039  )
         2           Cu  tau(   2) = (   0.2498561   0.2364069   0.8931545  )
         3           Cu  tau(   3) = (   0.4999834   0.0040272   0.8891076  )
         4           Cu  tau(   4) = (   0.7500655   0.2365774   0.8930538  )
         5           Cu  tau(   5) = (  -0.0000562   0.4680485   0.8986857  )
         6           Cu  tau(   6) = (   0.2499204   0.6979601   0.9023997  )
         7           Cu  tau(   7) = (   0.4999770   0.4680600   0.8986438  )
         8           Cu  tau(   8) = (   0.7499919   0.6979170   0.9024188  )
         9           Cu  tau(   9) = (  -0.0000103   0.9272203   0.9035556  )
        10           Cu  tau(  10) = (   0.2499589   1.1564729   0.9037066  )
        11           Cu  tau(  11) = (   0.4999145   0.9271629   0.9034395  )
        12           Cu  tau(  12) = (   0.7499463   1.1564243   0.9036188  )
        13           Cu  tau(  13) = (  -0.0001139   1.3860246   0.9027183  )
        14           Cu  tau(  14) = (   0.2498801   1.6163418   0.8986746  )
        15           Cu  tau(  15) = (   0.5000280   1.3859803   0.9024834  )
        16           Cu  tau(  16) = (   0.7500312   1.6160597   0.8985479  )
        17           Cu  tau(  17) = (   0.0000423   1.8478793   0.8927838  )
        18           Cu  tau(  18) = (   0.2500275   2.0802463   0.8891797  )
        19           Cu  tau(  19) = (   0.4998824   1.8476458   0.8930400  )
        20           Cu  tau(  20) = (   0.7499023   2.0802466   0.8892023  )
        21           Cu  tau(  21) = (  -0.0000006   0.2314407   1.1418707  )
        22           Cu  tau(  22) = (   0.2498892   0.0016921   1.1383038  )
        23           Cu  tau(  23) = (   0.4999305   0.2313254   1.1417344  )
        24           Cu  tau(  24) = (   0.7500314   0.0017233   1.1384329  )
        25           Cu  tau(  25) = (  -0.0000709   0.6957747   1.1517252  )
        26           Cu  tau(  26) = (   0.2500244   0.4632860   1.1474081  )
        27           Cu  tau(  27) = (   0.4999876   0.6957836   1.1516684  )
        28           Cu  tau(  28) = (   0.7498984   0.4632432   1.1473117  )
        29           Cu  tau(  29) = (  -0.0000630   1.1568679   1.1543012  )
        30           Cu  tau(  30) = (   0.2499277   0.9268448   1.1543638  )
        31           Cu  tau(  31) = (   0.4999724   1.1568693   1.1541867  )
        32           Cu  tau(  32) = (   0.7500027   0.9269784   1.1543223  )
        33           Cu  tau(  33) = (  -0.0000082   1.6210599   1.1470060  )
        34           Cu  tau(  34) = (   0.2498596   1.3881448   1.1514236  )
        35           Cu  tau(  35) = (   0.4999174   1.6209561   1.1473344  )
        36           Cu  tau(  36) = (   0.7500490   1.3882920   1.1514093  )
        37           Cu  tau(  37) = (  -0.0001368   2.0821940   1.1384383  )
        38           Cu  tau(  38) = (   0.2500917   1.8528039   1.1417247  )
        39           Cu  tau(  39) = (   0.5000439   2.0824138   1.1382179  )
        40           Cu  tau(  40) = (   0.7498259   1.8528944   1.1417626  )
        41           Cu  tau(  41) = (  -0.0001378   0.0006883   1.3919862  )
        42           Cu  tau(  42) = (   0.2499845   0.2287190   1.3929011  )
        43           Cu  tau(  43) = (   0.5000483   0.0010692   1.3920855  )
        44           Cu  tau(  44) = (   0.7499379   0.2286829   1.3928022  )
        45           Cu  tau(  45) = (   0.0000062   0.4584630   1.3955340  )
        46           Cu  tau(  46) = (   0.2499963   0.6914661   1.3999671  )
        47           Cu  tau(  47) = (   0.4999185   0.4580848   1.3951344  )
        48           Cu  tau(  48) = (   0.7499533   0.6912121   1.4000695  )
        49           Cu  tau(  49) = (  -0.0000360   0.9252124   1.4043059  )
        50           Cu  tau(  50) = (   0.2499282   1.1590389   1.4037961  )
        51           Cu  tau(  51) = (   0.4999469   0.9251753   1.4044409  )
        52           Cu  tau(  52) = (   0.7500253   1.1590458   1.4042624  )
        53           Cu  tau(  53) = (  -0.0000739   1.3928481   1.3993409  )
        54           Cu  tau(  54) = (   0.2500691   1.6257625   1.3946926  )
        55           Cu  tau(  55) = (   0.4999884   1.3926344   1.3994945  )
        56           Cu  tau(  56) = (   0.7498314   1.6259215   1.3947318  )
        57           Cu  tau(  57) = (  -0.0000489   1.8554057   1.3928460  )
        58           Cu  tau(  58) = (   0.2499235   2.0832681   1.3919605  )
        59           Cu  tau(  59) = (   0.4999390   1.8556516   1.3922941  )
        60           Cu  tau(  60) = (   0.7499778   2.0829845   1.3920999  )
        61           Cu  tau(  61) = (  -0.0000594   0.2275935   1.6471819  )
        62           Cu  tau(  62) = (   0.2501001   0.0001540   1.6468201  )
        63           Cu  tau(  63) = (   0.4999427   0.2275226   1.6475724  )
        64           Cu  tau(  64) = (   0.7498079   0.0002051   1.6469932  )
        65           Cu  tau(  65) = (   0.0000357   0.6849101   1.6488244  )
        66           Cu  tau(  66) = (   0.2501027   0.4550203   1.6471545  )
        67           Cu  tau(  67) = (   0.4999170   0.6842384   1.6480417  )
        68           Cu  tau(  68) = (   0.7498109   0.4548594   1.6471270  )
        69           Cu  tau(  69) = (  -0.0000527   1.1637303   1.6506847  )
        70           Cu  tau(  70) = (   0.2501509   0.9216146   1.6509466  )
        71           Cu  tau(  71) = (   0.5000517   1.1629157   1.6515761  )
        72           Cu  tau(  72) = (   0.7497688   0.9213551   1.6514686  )
        73           Cu  tau(  73) = (  -0.0001140   1.6285458   1.6471528  )
        74           Cu  tau(  74) = (   0.2500948   1.3996204   1.6478345  )
        75           Cu  tau(  75) = (   0.5000089   1.6292832   1.6462570  )
        76           Cu  tau(  76) = (   0.7498648   1.4001992   1.6480762  )
        77           Cu  tau(  77) = (  -0.0001698   2.0839327   1.6471420  )
        78           Cu  tau(  78) = (   0.2497414   1.8566981   1.6467677  )
        79           Cu  tau(  79) = (   0.5001041   2.0836196   1.6465065  )
        80           Cu  tau(  80) = (   0.7501418   1.8567086   1.6473694  )
        81           Cu  tau(  81) = (   0.0000606   0.0005566   1.9026502  )
        82           Cu  tau(  82) = (   0.2503732   0.2248242   1.9015096  )
        83           Cu  tau(  83) = (   0.4998202  -0.0005144   1.9024713  )
        84           Cu  tau(  84) = (   0.7495713   0.2246990   1.9014783  )
        85           Cu  tau(  85) = (   0.0000338   0.4467760   1.9043256  )
        86           Cu  tau(  86) = (   0.2493514   0.6728710   1.9029509  )
        87           Cu  tau(  87) = (   0.4998802   0.4455824   1.9021670  )
        88           Cu  tau(  88) = (   0.7505658   0.6721677   1.9028605  )
        89           Cu  tau(  89) = (   0.0006263   0.9184138   1.8867044  )
        90           Cu  tau(  90) = (   0.2497779   1.1671666   1.8871488  )
        91           Cu  tau(  91) = (   0.4991665   0.9167096   1.8870412  )
        92           Cu  tau(  92) = (   0.7501328   1.1676623   1.8863851  )
        93           Cu  tau(  93) = (   0.0000031   1.4129974   1.9041958  )
        94           Cu  tau(  94) = (   0.2501514   1.6381240   1.9026581  )
        95           Cu  tau(  95) = (   0.4998962   1.4122563   1.9006415  )
        96           Cu  tau(  96) = (   0.7497848   1.6384651   1.9031469  )
        97           Cu  tau(  97) = (  -0.0000327   1.8590214   1.9016926  )
        98           Cu  tau(  98) = (   0.2493588   2.0836751   1.9022804  )
        99           Cu  tau(  99) = (   0.4999181   1.8599112   1.9009201  )
       100           Cu  tau( 100) = (   0.7504827   2.0840516   1.9026399  )
       101           Cu  tau( 101) = (   0.2536675   1.3944837   2.1357621  )
       102           Cu  tau( 102) = (   0.7464037   1.3942318   2.1363374  )
       103           Cu  tau( 103) = (  -0.0004629   1.1583394   2.1209052  )
       104           Cu  tau( 104) = (   0.2505084   0.9288428   2.1206185  )
       105           Cu  tau( 105) = (   0.5002771   1.1562048   2.1193217  )
       106           Cu  tau( 106) = (   0.7495267   0.9280549   2.1199382  )
       107           Cu  tau( 107) = (  -0.0000193   0.6948418   2.1354509  )
       108           Cu  tau( 108) = (   0.4998810   0.6882222   2.1355829  )
       109           C   tau( 109) = (   0.0000991   0.0901428   2.4031502  )
       110           C   tau( 110) = (   0.0000930   0.2823830   2.4180114  )
       111           C   tau( 111) = (   0.1666773  -0.0064510   2.3996578  )
       112           C   tau( 112) = (   0.1668787   0.3782408   2.4277671  )
       113           C   tau( 113) = (   0.3333089   0.0900211   2.4026227  )
       114           C   tau( 114) = (   0.3334028   0.2822316   2.4161361  )
       115           C   tau( 115) = (   0.5000830  -0.0063283   2.3982863  )
       116           C   tau( 116) = (   0.5000767   0.3780919   2.4227795  )
       117           C   tau( 117) = (   0.6669041   0.0900346   2.4025061  )
       118           C   tau( 118) = (   0.6667952   0.2822435   2.4160878  )
       119           C   tau( 119) = (   0.8334865  -0.0064471   2.3995724  )
       120           C   tau( 120) = (   0.8332736   0.3782539   2.4277003  )
       121           C   tau( 121) = (   0.0000735   0.6670179   2.4604097  )
       122           C   tau( 122) = (   0.0001050   0.8588633   2.4907114  )
       123           C   tau( 123) = (   0.1672571   0.5698504   2.4498428  )
       124           C   tau( 124) = (   0.1665971   0.9552497   2.4963875  )
       125           C   tau( 125) = (   0.3330385   0.6665151   2.4637668  )
       126           C   tau( 126) = (   0.3335343   0.8585536   2.4894103  )
       127           C_h tau( 127) = (   0.5001160   0.5707969   2.4446470  )
       128           C   tau( 128) = (   0.5000868   0.9548012   2.4981070  )
       129           C   tau( 129) = (   0.6671111   0.6664905   2.4640110  )
       130           C   tau( 130) = (   0.6666802   0.8585370   2.4895177  )
       131           C   tau( 131) = (   0.8329626   0.5698624   2.4498385  )
       132           C   tau( 132) = (   0.8335464   0.9552517   2.4962856  )
       133           C   tau( 133) = (   0.0000911   1.2451825   2.4876213  )
       134           C   tau( 134) = (   0.0001131   1.4371710   2.4617966  )
       135           C   tau( 135) = (   0.1670675   1.1488169   2.4970265  )
       136           C   tau( 136) = (   0.1662741   1.5330753   2.4437487  )
       137           C   tau( 137) = (   0.3332653   1.2449196   2.4879988  )
       138           C   tau( 138) = (   0.3337767   1.4368407   2.4576005  )
       139           C   tau( 139) = (   0.5001230   1.1482862   2.4940804  )
       140           C   tau( 140) = (   0.5000809   1.5342903   2.4464359  )
       141           C   tau( 141) = (   0.6669118   1.2449151   2.4881715  )
       142           C   tau( 142) = (   0.6664409   1.4368275   2.4575860  )
       143           C   tau( 143) = (   0.8331701   1.1488111   2.4971678  )
       144           C   tau( 144) = (   0.8339073   1.5330595   2.4436703  )
       145           C   tau( 145) = (   0.0001003   1.8211673   2.4126494  )
       146           C   tau( 146) = (   0.0000762   2.0135533   2.4010454  )
       147           C   tau( 147) = (   0.1666886   1.7253778   2.4216854  )
       148           C   tau( 148) = (   0.1666494   2.1103073   2.3983956  )
       149           C   tau( 149) = (   0.3333114   1.8216121   2.4144844  )
       150           C   tau( 150) = (   0.3333631   2.0140026   2.4017749  )
       151           C   tau( 151) = (   0.5000809   1.7256607   2.4249251  )
       152           C   tau( 152) = (   0.5001229   2.1104737   2.3992384  )
       153           C   tau( 153) = (   0.6668851   1.8216063   2.4144419  )
       154           C   tau( 154) = (   0.6667882   2.0139890   2.4016302  )
       155           C   tau( 155) = (   0.8334653   1.7253669   2.4216510  )
       156           C   tau( 156) = (   0.8335837   2.1103089   2.3982893  )

     number of k points=     6  gaussian smearing, width (Ry)=  0.1000
                       cart. coord. in units 2pi/alat
        k(    1) = (   0.0000000   0.0000000   0.0000000), wk =   0.2500000
        k(    2) = (   0.0000000  -0.2165064   0.0000000), wk =   0.2500000
        k(    3) = (   0.2500000   0.0000000   0.0000000), wk =   0.5000000
        k(    4) = (   0.2500000  -0.2165064   0.0000000), wk =   0.5000000
        k(    5) = (  -0.5000000   0.0000000   0.0000000), wk =   0.2500000
        k(    6) = (  -0.5000000  -0.2165064   0.0000000), wk =   0.2500000

     Dense  grid:  2050409 G-vectors     FFT dimensions: (  80, 192, 270)

     Largest allocated arrays     est. size (Mb)     dimensions
        Kohn-Sham Wavefunctions        58.17 Mb     (    4604,  828)
        NL pseudopotentials           139.94 Mb     (    4604, 1992)
        Each V/rho on FFT grid          1.17 Mb     (   76800)
        Each G-vector array             0.28 Mb     (   36616)
        G-vector shells                 0.14 Mb     (   17932)
     Largest temporary arrays     est. size (Mb)     dimensions
        Auxiliary wavefunctions       232.67 Mb     (    4604, 3312)
        Each subspace H/S matrix        6.69 Mb     (     662,  662)
        Each <psi_i|beta_j> matrix     25.17 Mb     (    1992,  828)
        Arrays for rho mixing           9.38 Mb     (   76800,    8)

     Initial potential from superposition of free atoms
     Check: negative starting charge=   -0.001552

     starting charge 1354.72292, renormalised to 1380.00000

     negative rho (up, down):  1.581E-03 0.000E+00
     Starting wfc are 1356 randomized atomic wfcs

     total cpu time spent up to now is      117.2 secs

     Self-consistent Calculation

     iteration #  1     ecut=    80.00 Ry     beta=0.70
     Davidson diagonalization with overlap
     c_bands:  5 eigenvalues not converged
     c_bands:  3 eigenvalues not converged
     c_bands:  3 eigenvalues not converged
     c_bands:  3 eigenvalues not converged
     c_bands:  5 eigenvalues not converged
     ethr =  1.00E-04,  avg # of iterations = 40.7

     negative rho (up, down):  2.540E+01 0.000E+00

     total cpu time spent up to now is     2533.2 secs

     total energy              =  -10766.53889865 Ry
     Harris-Foulkes estimate   =  -19020.95235785 Ry
     estimated scf accuracy    <  214502.28808590 Ry

     iteration #  2     ecut=    80.00 Ry     beta=0.70
     Davidson diagonalization with overlap
     ethr =  1.00E-02,  avg # of iterations = 14.5

     negative rho (up, down):  3.116E+01 0.000E+00

     total cpu time spent up to now is     3682.4 secs

     total energy              =  -13079.16569688 Ry
     Harris-Foulkes estimate   =  -14667.45234315 Ry
     estimated scf accuracy    <   24936.57383428 Ry

     iteration #  3     ecut=    80.00 Ry     beta=0.70
     Davidson diagonalization with overlap
     ethr =  1.00E-02,  avg # of iterations =  6.5

     negative rho (up, down):  3.295E+01 0.000E+00

     total cpu time spent up to now is     4264.0 secs

     total energy              =  -13426.42234634 Ry
     Harris-Foulkes estimate   =  -14416.91384630 Ry
     estimated scf accuracy    <    7765.11729467 Ry

     iteration #  4     ecut=    80.00 Ry     beta=0.70
     Davidson diagonalization with overlap
     ethr =  1.00E-02,  avg # of iterations =  4.8

     negative rho (up, down):  2.653E+01 0.000E+00

     total cpu time spent up to now is     4806.0 secs

     total energy              =  -13742.23666445 Ry
     Harris-Foulkes estimate   =  -14095.39586829 Ry
     estimated scf accuracy    <    3627.47759171 Ry

     iteration #  5     ecut=    80.00 Ry     beta=0.70
     Davidson diagonalization with overlap
     ethr =  1.00E-02,  avg # of iterations =  4.0

     negative rho (up, down):  1.689E+01 0.000E+00

     total cpu time spent up to now is     5149.6 secs

     total energy              =  -13813.01029678 Ry
     Harris-Foulkes estimate   =  -13959.32598877 Ry
     estimated scf accuracy    <    1051.38219832 Ry

     iteration #  6     ecut=    80.00 Ry     beta=0.70
     Davidson diagonalization with overlap
     ethr =  1.00E-02,  avg # of iterations =  2.3

     negative rho (up, down):  1.182E+01 0.000E+00

     total cpu time spent up to now is     5382.6 secs

     total energy              =  -13796.18449455 Ry
     Harris-Foulkes estimate   =  -13845.36133762 Ry
     estimated scf accuracy    <     480.84564612 Ry

     iteration #  7     ecut=    80.00 Ry     beta=0.70
     Davidson diagonalization with overlap
     ethr =  1.00E-02,  avg # of iterations =  2.0

     negative rho (up, down):  8.240E+00 0.000E+00

     total cpu time spent up to now is     5581.4 secs

     total energy              =  -13776.97183881 Ry
     Harris-Foulkes estimate   =  -13809.39840473 Ry
     estimated scf accuracy    <     318.85435931 Ry

     iteration #  8     ecut=    80.00 Ry     beta=0.70
     Davidson diagonalization with overlap
     ethr =  1.00E-02,  avg # of iterations =  1.0

     negative rho (up, down):  6.210E+00 0.000E+00

     total cpu time spent up to now is     5766.2 secs

     total energy              =  -13759.33819701 Ry
     Harris-Foulkes estimate   =  -13781.41335172 Ry
     estimated scf accuracy    <     245.90241293 Ry

     iteration #  9     ecut=    80.00 Ry     beta=0.70
     Davidson diagonalization with overlap
     ethr =  1.00E-02,  avg # of iterations =  1.7

     negative rho (up, down):  4.189E+00 0.000E+00

     total cpu time spent up to now is     5959.1 secs

     total energy              =  -13743.68800778 Ry
     Harris-Foulkes estimate   =  -13763.74490127 Ry
     estimated scf accuracy    <     195.75340262 Ry

     iteration # 10     ecut=    80.00 Ry     beta=0.70
     Davidson diagonalization with overlap
     ethr =  1.00E-02,  avg # of iterations =  1.0

     negative rho (up, down):  8.993E-01 0.000E+00

     total cpu time spent up to now is     6144.0 secs

     total energy              =  -13708.28894306 Ry
     Harris-Foulkes estimate   =  -13746.97464480 Ry
     estimated scf accuracy    <     137.31813220 Ry

     iteration # 11     ecut=    80.00 Ry     beta=0.70
     Davidson diagonalization with overlap
     ethr =  9.95E-03,  avg # of iterations =  1.0

     negative rho (up, down):  2.114E+00 0.000E+00

     total cpu time spent up to now is     6329.0 secs

     total energy              =  -13697.26079803 Ry
     Harris-Foulkes estimate   =  -13714.66053310 Ry
     estimated scf accuracy    <     117.51963850 Ry

     iteration # 12     ecut=    80.00 Ry     beta=0.70
     Davidson diagonalization with overlap
     ethr =  8.52E-03,  avg # of iterations =  1.0

     negative rho (up, down):  2.114E+00 0.000E+00

     total cpu time spent up to now is     6514.0 secs

     total energy              =  -13691.79786759 Ry
     Harris-Foulkes estimate   =  -13701.68117706 Ry
     estimated scf accuracy    <      77.83965925 Ry

     iteration # 13     ecut=    80.00 Ry     beta=0.70
     Davidson diagonalization with overlap
     ethr =  5.64E-03,  avg # of iterations =  2.5

     negative rho (up, down):  7.591E+00 0.000E+00

     total cpu time spent up to now is     6717.3 secs

     total energy              =  -13686.50389737 Ry
     Harris-Foulkes estimate   =  -13696.55017972 Ry
     estimated scf accuracy    <      49.02397961 Ry

     iteration # 14     ecut=    80.00 Ry     beta=0.70
     Davidson diagonalization with overlap
     ethr =  3.55E-03,  avg # of iterations =  3.8

     negative rho (up, down):  6.905E+00 0.000E+00

     total cpu time spent up to now is     6942.0 secs

     total energy              =  -13687.05410497 Ry
     Harris-Foulkes estimate   =  -13690.28989657 Ry
     estimated scf accuracy    <      25.10729694 Ry

     iteration # 15     ecut=    80.00 Ry     beta=0.70
     Davidson diagonalization with overlap
     ethr =  1.82E-03,  avg # of iterations =  4.7

     negative rho (up, down):  5.695E+00 0.000E+00

     total cpu time spent up to now is     7186.9 secs

     total energy              =  -13686.36858496 Ry
     Harris-Foulkes estimate   =  -13688.04446057 Ry
     estimated scf accuracy    <      12.55929736 Ry

     iteration # 16     ecut=    80.00 Ry     beta=0.70
     Davidson diagonalization with overlap
     ethr =  9.10E-04,  avg # of iterations =  4.7

     negative rho (up, down):  4.379E+00 0.000E+00

     total cpu time spent up to now is     7421.8 secs

     total energy              =  -13685.34537460 Ry
     Harris-Foulkes estimate   =  -13686.72386323 Ry
     estimated scf accuracy    <      11.03548183 Ry

     iteration # 17     ecut=    80.00 Ry     beta=0.70
     Davidson diagonalization with overlap
     ethr =  8.00E-04,  avg # of iterations =  5.2

     negative rho (up, down):  2.362E+00 0.000E+00

     total cpu time spent up to now is     7660.9 secs

     total energy              =  -13683.91696140 Ry
     Harris-Foulkes estimate   =  -13685.66835601 Ry
     estimated scf accuracy    <      11.13120421 Ry

     iteration # 18     ecut=    80.00 Ry     beta=0.70
     Davidson diagonalization with overlap
     ethr =  8.00E-04,  avg # of iterations =  1.2

     negative rho (up, down):  8.613E-01 0.000E+00

     total cpu time spent up to now is     7848.5 secs

     total energy              =  -13681.93825702 Ry
     Harris-Foulkes estimate   =  -13684.08624279 Ry
     estimated scf accuracy    <      11.76106929 Ry

     iteration # 19     ecut=    80.00 Ry     beta=0.70
     Davidson diagonalization with overlap
     ethr =  8.00E-04,  avg # of iterations =  3.5

     negative rho (up, down):  8.930E-01 0.000E+00

     total cpu time spent up to now is     8064.9 secs

     total energy              =  -13681.18755885 Ry
     Harris-Foulkes estimate   =  -13682.47278806 Ry
     estimated scf accuracy    <       6.64319919 Ry

     iteration # 20     ecut=    80.00 Ry     beta=0.70
     Davidson diagonalization with overlap
     ethr =  4.81E-04,  avg # of iterations =  8.5

     negative rho (up, down):  5.455E-01 0.000E+00

     total cpu time spent up to now is     8355.2 secs

     total energy              =  -13680.35583745 Ry
     Harris-Foulkes estimate   =  -13681.37657456 Ry
     estimated scf accuracy    <       3.81772159 Ry

     iteration # 21     ecut=    80.00 Ry     beta=0.70
     Davidson diagonalization with overlap
     ethr =  2.77E-04,  avg # of iterations =  8.0

     negative rho (up, down):  4.604E-01 0.000E+00

     total cpu time spent up to now is     8637.0 secs

     total energy              =  -13679.76410079 Ry
     Harris-Foulkes estimate   =  -13680.46665412 Ry
     estimated scf accuracy    <       3.21487856 Ry

     iteration # 22     ecut=    80.00 Ry     beta=0.70
     Davidson diagonalization with overlap
     ethr =  2.33E-04,  avg # of iterations =  4.5

     negative rho (up, down):  8.145E-01 0.000E+00

     total cpu time spent up to now is     8870.2 secs

     total energy              =  -13679.35460353 Ry
     Harris-Foulkes estimate   =  -13679.94792325 Ry
     estimated scf accuracy    <       5.04147527 Ry

     iteration # 23     ecut=    80.00 Ry     beta=0.70
     Davidson diagonalization with overlap
     ethr =  2.33E-04,  avg # of iterations =  7.7

     negative rho (up, down):  9.831E-01 0.000E+00

     total cpu time spent up to now is     9148.4 secs

     total energy              =  -13679.40690628 Ry
     Harris-Foulkes estimate   =  -13679.58400311 Ry
     estimated scf accuracy    <       2.43979089 Ry

     iteration # 24     ecut=    80.00 Ry     beta=0.70
     Davidson diagonalization with overlap
     ethr =  1.77E-04,  avg # of iterations =  6.5

     negative rho (up, down):  6.814E-01 0.000E+00

     total cpu time spent up to now is     9410.3 secs

     total energy              =  -13679.28498547 Ry
     Harris-Foulkes estimate   =  -13679.46330406 Ry
     estimated scf accuracy    <       0.83293059 Ry

     iteration # 25     ecut=    80.00 Ry     beta=0.70
     Davidson diagonalization with overlap
     ethr =  6.04E-05,  avg # of iterations =  8.0

     negative rho (up, down):  3.525E-01 0.000E+00

     total cpu time spent up to now is     9709.1 secs

     total energy              =  -13679.25446171 Ry
     Harris-Foulkes estimate   =  -13679.33196838 Ry
     estimated scf accuracy    <       0.48655472 Ry

     iteration # 26     ecut=    80.00 Ry     beta=0.70
     Davidson diagonalization with overlap
     ethr =  3.53E-05,  avg # of iterations =  4.8

     negative rho (up, down):  1.116E-01 0.000E+00

     total cpu time spent up to now is     9950.0 secs

     total energy              =  -13679.25071308 Ry
     Harris-Foulkes estimate   =  -13679.28682928 Ry
     estimated scf accuracy    <       0.27324347 Ry

     iteration # 27     ecut=    80.00 Ry     beta=0.70
     Davidson diagonalization with overlap
     ethr =  1.98E-05,  avg # of iterations =  7.7

     negative rho (up, down):  9.721E-02 0.000E+00

     total cpu time spent up to now is    10240.1 secs

     total energy              =  -13679.25445090 Ry
     Harris-Foulkes estimate   =  -13679.26686345 Ry
     estimated scf accuracy    <       0.09653912 Ry

     iteration # 28     ecut=    80.00 Ry     beta=0.70
     Davidson diagonalization with overlap
     ethr =  7.00E-06,  avg # of iterations =  9.5

     negative rho (up, down):  5.058E-02 0.000E+00

     total cpu time spent up to now is    10567.9 secs

     total energy              =  -13679.25938560 Ry
     Harris-Foulkes estimate   =  -13679.26160312 Ry
     estimated scf accuracy    <       0.02549247 Ry

     iteration # 29     ecut=    80.00 Ry     beta=0.70
     Davidson diagonalization with overlap
     c_bands:  1 eigenvalues not converged
     c_bands:  1 eigenvalues not converged
     ethr =  1.85E-06,  avg # of iterations = 14.2

     negative rho (up, down):  5.836E-02 0.000E+00

     total cpu time spent up to now is    10962.9 secs

     total energy              =  -13679.26075645 Ry
     Harris-Foulkes estimate   =  -13679.26085098 Ry
     estimated scf accuracy    <       0.01126923 Ry

     iteration # 30     ecut=    80.00 Ry     beta=0.70
     Davidson diagonalization with overlap
     ethr =  8.17E-07,  avg # of iterations = 10.8

     negative rho (up, down):  4.212E-02 0.000E+00

     total cpu time spent up to now is    11308.5 secs

     total energy              =  -13679.26104938 Ry
     Harris-Foulkes estimate   =  -13679.26147571 Ry
     estimated scf accuracy    <       0.00190838 Ry

     iteration # 31     ecut=    80.00 Ry     beta=0.70
     Davidson diagonalization with overlap
     c_bands:  1 eigenvalues not converged
     ethr =  1.38E-07,  avg # of iterations = 11.7

     negative rho (up, down):  3.949E-02 0.000E+00

     total cpu time spent up to now is    11657.6 secs

     total energy              =  -13679.26103526 Ry
     Harris-Foulkes estimate   =  -13679.26127080 Ry
     estimated scf accuracy    <       0.00127772 Ry

     iteration # 32     ecut=    80.00 Ry     beta=0.70
     Davidson diagonalization with overlap
     ethr =  9.26E-08,  avg # of iterations =  5.2

     negative rho (up, down):  2.694E-02 0.000E+00

     total cpu time spent up to now is    11912.4 secs

     total energy              =  -13679.26083863 Ry
     Harris-Foulkes estimate   =  -13679.26116688 Ry
     estimated scf accuracy    <       0.00055727 Ry

     iteration # 33     ecut=    80.00 Ry     beta=0.70
     Davidson diagonalization with overlap
     c_bands:  1 eigenvalues not converged
     ethr =  4.04E-08,  avg # of iterations = 11.5

     negative rho (up, down):  1.353E-02 0.000E+00

     total cpu time spent up to now is    12258.3 secs

     total energy              =  -13679.26064199 Ry
     Harris-Foulkes estimate   =  -13679.26089276 Ry
     estimated scf accuracy    <       0.00033200 Ry

     iteration # 34     ecut=    80.00 Ry     beta=0.70
     Davidson diagonalization with overlap
     c_bands:  1 eigenvalues not converged
     ethr =  2.41E-08,  avg # of iterations = 14.0

     negative rho (up, down):  6.016E-03 0.000E+00

     total cpu time spent up to now is    12656.2 secs

     total energy              =  -13679.26052269 Ry
     Harris-Foulkes estimate   =  -13679.26066537 Ry
     estimated scf accuracy    <       0.00005477 Ry

     iteration # 35     ecut=    80.00 Ry     beta=0.70
     Davidson diagonalization with overlap
     ethr =  3.97E-09,  avg # of iterations =  9.5

     negative rho (up, down):  2.685E-03 0.000E+00

     total cpu time spent up to now is    12982.0 secs

     total energy              =  -13679.26047095 Ry
     Harris-Foulkes estimate   =  -13679.26052912 Ry
     estimated scf accuracy    <       0.00003308 Ry

     iteration # 36     ecut=    80.00 Ry     beta=0.70
     Davidson diagonalization with overlap
     c_bands:  1 eigenvalues not converged
     ethr =  2.40E-09,  avg # of iterations = 12.2

     negative rho (up, down):  1.671E-03 0.000E+00

     total cpu time spent up to now is    13330.6 secs

     total energy              =  -13679.26046620 Ry
     Harris-Foulkes estimate   =  -13679.26047411 Ry
     estimated scf accuracy    <       0.00001025 Ry

     iteration # 37     ecut=    80.00 Ry     beta=0.70
     Davidson diagonalization with overlap
     c_bands:  1 eigenvalues not converged
     ethr =  7.43E-10,  avg # of iterations =  6.5

     negative rho (up, down):  1.549E-03 0.000E+00

     total cpu time spent up to now is    13592.4 secs

     total energy              =  -13679.26046844 Ry
     Harris-Foulkes estimate   =  -13679.26046719 Ry
     estimated scf accuracy    <       0.00000228 Ry

     iteration # 38     ecut=    80.00 Ry     beta=0.70
     Davidson diagonalization with overlap
     ethr =  1.65E-10,  avg # of iterations =  2.8

     negative rho (up, down):  1.562E-03 0.000E+00

     total cpu time spent up to now is    13822.1 secs

     total energy              =  -13679.26046918 Ry
     Harris-Foulkes estimate   =  -13679.26046876 Ry
     estimated scf accuracy    <       0.00000123 Ry

     iteration # 39     ecut=    80.00 Ry     beta=0.70
     Davidson diagonalization with overlap
     ethr =  8.94E-11,  avg # of iterations =  2.2

     negative rho (up, down):  1.698E-03 0.000E+00

     total cpu time spent up to now is    14031.2 secs

     total energy              =  -13679.26046995 Ry
     Harris-Foulkes estimate   =  -13679.26046931 Ry
     estimated scf accuracy    <       0.00000043 Ry

     iteration # 40     ecut=    80.00 Ry     beta=0.70
     Davidson diagonalization with overlap
     ethr =  3.15E-11,  avg # of iterations =  3.2

     negative rho (up, down):  1.707E-03 0.000E+00

     total cpu time spent up to now is    14262.3 secs

     total energy              =  -13679.26047000 Ry
     Harris-Foulkes estimate   =  -13679.26047000 Ry
     estimated scf accuracy    <       0.00000010 Ry

     iteration # 41     ecut=    80.00 Ry     beta=0.70
     Davidson diagonalization with overlap
     ethr =  7.38E-12,  avg # of iterations =  2.0

     negative rho (up, down):  1.718E-03 0.000E+00

     total cpu time spent up to now is    14468.0 secs

     total energy              =  -13679.26047000 Ry
     Harris-Foulkes estimate   =  -13679.26047001 Ry
     estimated scf accuracy    <       0.00000003 Ry

     iteration # 42     ecut=    80.00 Ry     beta=0.70
     Davidson diagonalization with overlap
     ethr =  2.12E-12,  avg # of iterations =  2.7

     negative rho (up, down):  1.704E-03 0.000E+00

     total cpu time spent up to now is    14687.8 secs

     total energy              =  -13679.26046998 Ry
     Harris-Foulkes estimate   =  -13679.26047000 Ry
     estimated scf accuracy    <       0.00000001 Ry

     iteration # 43     ecut=    80.00 Ry     beta=0.70
     Davidson diagonalization with overlap
     ethr =  7.87E-13,  avg # of iterations =  3.2

     negative rho (up, down):  1.709E-03 0.000E+00

     total cpu time spent up to now is    14919.9 secs

     End of self-consistent calculation

          k = 0.0000 0.0000 0.0000 (256287 PWs)   bands (ev):

   -16.7667 -15.6439 -15.3706 -14.8168 -14.4011 -14.1921 -14.1074 -13.6377
   -13.6080 -13.4218 -13.4099 -12.8220 -12.6986 -12.5031 -12.4834 -12.4538
   -12.4340 -11.0406 -10.9102 -10.8648 -10.7657 -10.6160  -9.7113  -9.1831
    -9.1428  -9.0244  -8.9172  -8.3628  -8.1733  -8.0549  -7.9388  -7.4104
    -7.2758  -7.1435  -7.0112  -6.9444  -6.9332  -6.9071  -6.8610  -5.7437
    -5.7301  -5.5033  -5.4103  -5.3938  -5.3468  -5.2703  -5.2419  -5.2401
    -4.9824  -4.8653  -4.8176  -4.4373  -4.2445  -4.2016  -4.1132  -4.0191
    -3.9153  -3.8584  -3.7967  -3.5157  -3.3762  -3.3711  -3.3631  -3.3589
    -3.0544  -3.0364  -2.9811  -2.9495  -2.9407  -2.8213  -2.8135  -2.7923
    -2.7828  -2.6476  -2.5481  -2.4984  -2.4388  -2.4174  -2.4001  -2.3818
    -2.3811  -2.3643  -2.3062  -2.3045  -2.3011  -2.2492  -2.2240  -2.1212
    -2.1018  -2.0684  -2.0226  -1.9354  -1.8236  -1.8095  -1.7432  -1.7416
    -1.6925  -1.6761  -1.6694  -1.5843  -1.5786  -1.5261  -1.5255  -1.5156
    -1.5150  -1.5085  -1.4496  -1.4255  -1.4243  -1.3891  -1.3887  -1.3766
    -1.3723  -1.3043  -1.2884  -1.2496  -1.2336  -1.2331  -1.1556  -1.1545
    -1.1509  -1.1498  -1.1359  -1.1083  -1.1080  -1.0884  -1.0402  -1.0359
    -1.0340  -1.0317  -1.0183  -0.9774  -0.9553  -0.9550  -0.9525  -0.9319
    -0.9288  -0.9133  -0.9091  -0.8994  -0.8606  -0.8591  -0.8032  -0.7944
    -0.7892  -0.7876  -0.7671  -0.7372  -0.7061  -0.6839  -0.6678  -0.6556
    -0.6396  -0.6361  -0.6343  -0.6036  -0.5973  -0.5951  -0.5783  -0.5705
    -0.5672  -0.5628  -0.5557  -0.5279  -0.5191  -0.4885  -0.4863  -0.4759
    -0.4572  -0.4555  -0.4482  -0.4478  -0.4438  -0.4350  -0.4300  -0.4264
    -0.4250  -0.4225  -0.3947  -0.3833  -0.3777  -0.3736  -0.3563  -0.3520
    -0.3511  -0.3490  -0.3350  -0.3265  -0.3230  -0.3193  -0.3189  -0.3162
    -0.3057  -0.2801  -0.2781  -0.2768  -0.2659  -0.2609  -0.2514  -0.2509
    -0.2301  -0.2299  -0.2284  -0.2256  -0.2207  -0.2189  -0.2171  -0.2070
    -0.2017  -0.1894  -0.1521  -0.1427  -0.1340  -0.1165  -0.1084  -0.0949
    -0.0668  -0.0633  -0.0620  -0.0534  -0.0513  -0.0482  -0.0419  -0.0337
    -0.0211  -0.0187  -0.0057  -0.0036  -0.0034   0.0053   0.0133   0.0267
     0.0271   0.0292   0.0432   0.0444   0.0444   0.0818   0.0828   0.0894
     0.1137   0.1300   0.1392   0.1402   0.1449   0.1464   0.1675   0.1683
     0.1731   0.1782   0.1983   0.1990   0.1994   0.2097   0.2102   0.2119
     0.2125   0.2147   0.2184   0.2327   0.2432   0.2456   0.2535   0.2584
     0.2589   0.2630   0.2631   0.2814   0.2856   0.2944   0.2952   0.3027
     0.3186   0.3187   0.3308   0.3316   0.3318   0.3360   0.3373   0.3495
     0.3507   0.3540   0.3605   0.3638   0.3712   0.3718   0.3772   0.3772
     0.3902   0.3904   0.4119   0.4138   0.4177   0.4188   0.4227   0.4235
     0.4248   0.4250   0.4318   0.4320   0.4601   0.4647   0.4655   0.4686
     0.4889   0.4902   0.5130   0.5147   0.5154   0.5186   0.5233   0.5317
     0.5405   0.5424   0.5469   0.5536   0.5538   0.5569   0.5576   0.5793
     0.5853   0.5856   0.5906   0.5925   0.5930   0.6013   0.6130   0.6162
     0.6164   0.6237   0.6238   0.6316   0.6398   0.6442   0.6459   0.6492
     0.6503   0.6530   0.6531   0.6599   0.6727   0.6730   0.6775   0.6776
     0.6801   0.6826   0.6851   0.6949   0.7225   0.7226   0.7384   0.7545
     0.7547   0.7690   0.7740   0.7779   0.7791   0.7813   0.7854   0.8069
     0.8097   0.8285   0.8294   0.8391   0.8421   0.8440   0.8450   0.8559
     0.8564   0.8676   0.8935   0.8981   0.8992   0.8996   0.9024   0.9057
     0.9086   0.9332   0.9351   0.9408   0.9481   0.9494   0.9547   0.9618
     0.9642   0.9887   0.9937   1.0020   1.0082   1.0113   1.0164   1.0182
     1.0200   1.0223   1.0248   1.0375   1.0381   1.0411   1.0416   1.0484
     1.0701   1.0721   1.0753   1.0790   1.0836   1.0947   1.0983   1.1036
     1.1442   1.1445   1.1484   1.1560   1.1591   1.1611   1.1650   1.1658
     1.1675   1.1747   1.1753   1.1812   1.1872   1.1908   1.1926   1.1938
     1.2040   1.2042   1.2075   1.2096   1.2162   1.2232   1.2302   1.2316
     1.2360   1.2387   1.2428   1.2491   1.2522   1.2561   1.2656   1.2659
     1.2723   1.2823   1.2864   1.2866   1.2870   1.2886   1.2892   1.2918
     1.2999   1.3032   1.3179   1.3240   1.3260   1.3314   1.3333   1.3339
     1.3350   1.3373   1.3453   1.3492   1.3497   1.3571   1.3612   1.3617
     1.3627   1.3710   1.3778   1.3797   1.3813   1.3864   1.3888   1.4003
     1.4049   1.4057   1.4284   1.4336   1.4361   1.4395   1.4474   1.4536
     1.4547   1.4659   1.4722   1.4760   1.4783   1.4800   1.4851   1.4873
     1.4929   1.4933   1.4947   1.5074   1.5121   1.5163   1.5213   1.5292
     1.5352   1.5366   1.5390   1.5419   1.5459   1.5487   1.5541   1.5614
     1.5629   1.5691   1.5706   1.5717   1.5836   1.5873   1.5896   1.6004
     1.6013   1.6019   1.6114   1.6138   1.6186   1.6211   1.6247   1.6359
     1.6399   1.6409   1.6415   1.6540   1.6554   1.6620   1.6726   1.6733
     1.6774   1.6805   1.6835   1.6863   1.6885   1.6891   1.6899   1.6963
     1.6979   1.7071   1.7079   1.7083   1.7173   1.7229   1.7241   1.7257
     1.7261   1.7280   1.7350   1.7419   1.7449   1.7505   1.7506   1.7546
     1.7572   1.7630   1.7658   1.7719   1.7819   1.7926   1.7967   1.8009
     1.8014   1.8024   1.8114   1.8120   1.8238   1.8307   1.8369   1.8380
     1.8423   1.8432   1.8457   1.8508   1.8538   1.8623   1.8624   1.8737
     1.8779   1.8796   1.8818   1.8836   1.8847   1.8877   1.8918   1.8998
     1.9031   1.9066   1.9071   1.9126   1.9168   1.9182   1.9202   1.9284
     1.9299   1.9478   1.9479   1.9497   1.9513   1.9517   1.9561   1.9583
     1.9606   1.9614   1.9646   1.9737   1.9806   1.9871   1.9918   1.9942
     1.9955   1.9962   1.9978   1.9999   2.0037   2.0069   2.0088   2.0096
     2.0101   2.0105   2.0155   2.0171   2.0177   2.0293   2.0311   2.0333
     2.0370   2.0401   2.0412   2.0413   2.0450   2.0550   2.0587   2.0700
     2.0713   2.0720   2.0729   2.0756   2.0874   2.0904   2.0906   2.1150
     2.1188   2.1199   2.1355   2.1390   2.1402   2.1581   2.1635   2.1679
     2.1691   2.1942   2.1949   2.1956   2.2229   2.2258   2.2327   2.2341
     2.2354   2.2388   2.2445   2.2574   2.3049   2.4060   2.4852   2.5564
     2.5864   2.6499   2.6619   2.6658   2.7487   2.7509   2.7768   2.7801
     2.8070   2.8073   2.8197   2.8198   2.8886   2.8918   2.9238   2.9438
     2.9439   2.9935   2.9946   3.1711   3.1712   3.2326   3.2332   3.3102
     3.4080   3.5185   3.5704   3.5759   3.6285   3.8027   3.8100   3.9748
     4.0233   4.0343   4.0705   4.2093   4.2136   4.2839   4.2885   4.4710
     4.4902   4.5092   4.5095   4.5447   4.5464   4.5834   4.6085   4.6092
     4.6128   4.6129   4.9191   5.0107   5.0155   5.0252   5.0779   5.2149
     5.3252   5.4233   5.4455   5.5195   5.5307   5.5543   5.6549   5.6659
     5.7831   5.9076   6.0996   6.1169   6.2749   6.3014   6.3669   6.4730
     6.5121   6.8090   6.8098   6.8254   6.8427   6.8620   7.0449   7.0465
     7.0581   7.1883   7.2651   7.2669   7.3173   7.3819   7.3931   7.4088
     7.4097   7.4201   7.4259   7.4504   7.5136   7.6819   7.6940   7.7202
     7.8510   7.8880   7.9492   8.0049   8.0799   8.1137   8.1613   8.2774
     8.2899   8.3037   8.3065   8.5720   8.5801   8.5816   8.6625   8.6628
     8.6840   8.7104   8.7316   8.7965   8.8233   8.8359   8.9024   8.9058
     8.9275   9.0081   9.0608   9.1063   9.1338   9.1385   9.1491   9.2008
     9.2011   9.2928   9.2966   9.3035   9.3044   9.3233   9.3435   9.3463
     9.3790   9.5192   9.5676   9.7017   9.7048   9.7662   9.8008   9.8207
     9.8403   9.9650  10.0144  10.0412  10.0551  10.0853  10.0900  10.2434
    10.3784  10.4205  10.4925  10.4953  10.4964  10.5375  10.5762  10.5861
    10.6035  10.6235  10.6354  10.6436

          k = 0.0000-0.2165 0.0000 (256176 PWs)   bands (ev):

   -16.7664 -15.6803 -15.2185 -15.0063 -14.4969 -14.1003 -13.7217 -13.6946
   -13.6429 -13.5683 -13.1573 -13.1175 -13.0567 -13.0334 -11.9772 -11.7965
   -11.7709 -11.6589 -11.5579 -11.4350 -10.0559  -9.9211  -9.9118  -9.7763
    -8.8588  -8.8335  -8.7056  -8.5155  -8.3337  -8.3321  -7.7473  -7.6652
    -7.5542  -7.5023  -6.8448  -6.7575  -6.3845  -6.3041  -6.2967  -6.2711
    -6.1959  -6.1876  -5.6078  -5.4956  -5.3002  -5.2518  -4.9327  -4.9242
    -4.7846  -4.6259  -4.4683  -4.4479  -4.2750  -4.2375  -4.1917  -4.1715
    -4.1513  -4.0427  -4.0325  -4.0202  -3.4266  -3.3746  -3.2419  -3.2342
    -3.1088  -3.0630  -2.9229  -2.7594  -2.7199  -2.7034  -2.6721  -2.6705
    -2.6531  -2.6108  -2.5584  -2.5206  -2.4781  -2.4076  -2.4068  -2.3010
    -2.2826  -2.2655  -2.2469  -2.1663  -2.1635  -2.1541  -2.0747  -2.0393
    -2.0022  -1.9930  -1.9754  -1.9561  -1.9551  -1.9395  -1.9359  -1.9033
    -1.8653  -1.8584  -1.7877  -1.7454  -1.7335  -1.6408  -1.5899  -1.5663
    -1.5617  -1.5520  -1.5234  -1.5194  -1.4499  -1.3689  -1.3589  -1.3585
    -1.3399  -1.3398  -1.2354  -1.2345  -1.1935  -1.1854  -1.1732  -1.1683
    -1.1527  -1.1345  -1.1102  -1.1099  -1.0971  -1.0940  -1.0665  -1.0578
    -1.0560  -1.0467  -1.0307  -1.0259  -1.0225  -0.9606  -0.9588  -0.9467
    -0.9234  -0.9117  -0.8837  -0.8711  -0.8698  -0.8136  -0.7896  -0.7608
    -0.7506  -0.7178  -0.7124  -0.7059  -0.7051  -0.6969  -0.6902  -0.6893
    -0.6731  -0.6655  -0.6520  -0.6517  -0.6487  -0.6467  -0.6384  -0.6317
    -0.6212  -0.6086  -0.6070  -0.5830  -0.5340  -0.5317  -0.5137  -0.5135
    -0.4875  -0.4714  -0.4679  -0.4506  -0.4484  -0.4472  -0.4314  -0.4279
    -0.4251  -0.4115  -0.4035  -0.3834  -0.3717  -0.3695  -0.3633  -0.3564
    -0.3501  -0.3489  -0.3429  -0.3204  -0.3153  -0.3116  -0.3101  -0.2989
    -0.2955  -0.2616  -0.2612  -0.2606  -0.2474  -0.2395  -0.2342  -0.2303
    -0.2235  -0.2096  -0.2021  -0.1909  -0.1712  -0.1699  -0.1690  -0.1343
    -0.1103  -0.1000  -0.0839  -0.0813  -0.0806  -0.0567  -0.0543  -0.0500
    -0.0494  -0.0258  -0.0232  -0.0212  -0.0212  -0.0126  -0.0112  -0.0023
     0.0083   0.0097   0.0187   0.0187   0.0225   0.0273   0.0315   0.0397
     0.0506   0.0535   0.0559   0.0653   0.0755   0.0815   0.0840   0.1019
     0.1082   0.1257   0.1263   0.1267   0.1280   0.1294   0.1417   0.1423
     0.1552   0.1561   0.1668   0.2009   0.2088   0.2091   0.2259   0.2291
     0.2352   0.2471   0.2506   0.2507   0.2636   0.2647   0.2683   0.2746
     0.2788   0.2867   0.2957   0.2965   0.2975   0.3043   0.3111   0.3177
     0.3199   0.3215   0.3221   0.3255   0.3278   0.3296   0.3302   0.3439
     0.3489   0.3576   0.3594   0.3691   0.3706   0.3711   0.3874   0.3877
     0.3972   0.3985   0.4020   0.4097   0.4125   0.4137   0.4182   0.4198
     0.4296   0.4307   0.4424   0.4541   0.4569   0.4705   0.4773   0.4801
     0.4805   0.4883   0.4924   0.5027   0.5061   0.5100   0.5218   0.5258
     0.5268   0.5278   0.5298   0.5333   0.5409   0.5453   0.5637   0.5673
     0.5745   0.5769   0.5774   0.5832   0.5834   0.5899   0.5929   0.5993
     0.6050   0.6188   0.6195   0.6310   0.6344   0.6390   0.6398   0.6497
     0.6568   0.6604   0.6610   0.6746   0.6840   0.6843   0.6941   0.6947
     0.6985   0.7004   0.7077   0.7100   0.7119   0.7194   0.7257   0.7258
     0.7274   0.7338   0.7375   0.7511   0.7561   0.7571   0.7599   0.7748
     0.7758   0.7762   0.7857   0.8039   0.8169   0.8224   0.8356   0.8499
     0.8510   0.8550   0.8555   0.8681   0.8844   0.8908   0.8929   0.8940
     0.9007   0.9127   0.9169   0.9260   0.9317   0.9339   0.9539   0.9554
     0.9557   0.9752   0.9765   0.9931   0.9932   0.9999   1.0110   1.0232
     1.0252   1.0258   1.0391   1.0392   1.0508   1.0560   1.0564   1.0723
     1.0727   1.0888   1.0902   1.0944   1.0964   1.1054   1.1061   1.1220
     1.1309   1.1315   1.1357   1.1366   1.1402   1.1415   1.1514   1.1519
     1.1551   1.1602   1.1695   1.1723   1.1739   1.1753   1.1772   1.1806
     1.1833   1.1944   1.1948   1.2134   1.2136   1.2199   1.2217   1.2246
     1.2251   1.2308   1.2355   1.2356   1.2406   1.2474   1.2477   1.2593
     1.2611   1.2721   1.2724   1.2725   1.2759   1.2810   1.2918   1.2932
     1.2949   1.2950   1.2967   1.2983   1.3052   1.3084   1.3174   1.3186
     1.3261   1.3280   1.3304   1.3314   1.3327   1.3404   1.3414   1.3580
     1.3588   1.3590   1.3642   1.3760   1.3904   1.4034   1.4044   1.4092
     1.4110   1.4128   1.4195   1.4204   1.4358   1.4610   1.4628   1.4830
     1.4860   1.4936   1.4967   1.4981   1.4990   1.4995   1.5095   1.5115
     1.5129   1.5169   1.5175   1.5202   1.5287   1.5299   1.5306   1.5371
     1.5382   1.5401   1.5486   1.5643   1.5646   1.5663   1.5678   1.5755
     1.5766   1.5797   1.5801   1.5845   1.5888   1.5888   1.5892   1.5895
     1.5911   1.5941   1.6066   1.6083   1.6097   1.6108   1.6112   1.6166
     1.6185   1.6214   1.6224   1.6236   1.6324   1.6460   1.6462   1.6468
     1.6537   1.6606   1.6732   1.6745   1.6775   1.6823   1.6829   1.6863
     1.6945   1.6982   1.6995   1.7121   1.7154   1.7223   1.7304   1.7322
     1.7324   1.7341   1.7436   1.7566   1.7639   1.7679   1.7782   1.7785
     1.7789   1.7835   1.7846   1.7933   1.7935   1.7946   1.8028   1.8043
     1.8048   1.8071   1.8108   1.8122   1.8139   1.8226   1.8241   1.8275
     1.8281   1.8337   1.8354   1.8501   1.8521   1.8563   1.8621   1.8651
     1.8683   1.8710   1.8771   1.8793   1.8805   1.8809   1.8870   1.8900
     1.8910   1.8954   1.9046   1.9099   1.9105   1.9200   1.9209   1.9217
     1.9235   1.9292   1.9320   1.9329   1.9384   1.9392   1.9474   1.9505
     1.9595   1.9597   1.9683   1.9716   1.9756   1.9788   1.9842   1.9946
     1.9950   1.9973   1.9983   2.0004   2.0009   2.0042   2.0096   2.0124
     2.0251   2.0252   2.0318   2.0336   2.0419   2.0427   2.0489   2.0489
     2.0529   2.0550   2.0551   2.0562   2.0738   2.0761   2.0798   2.0800
     2.0853   2.0955   2.1086   2.1090   2.1163   2.1227   2.1262   2.1273
     2.1289   2.1300   2.1306   2.1353   2.1410   2.1451   2.1465   2.1536
     2.1775   2.2058   2.2316   2.2489   2.2492   2.3227   2.3462   2.3468
     2.3483   2.3663   2.3734   2.3806   2.3936   2.3996   2.4263   2.4389
     2.4573   2.4581   2.4652   2.6229   2.6232   2.6464   2.6944   2.7193
     2.7440   2.8213   2.8706   2.8718   2.9852   2.9875   3.0050   3.0315
     3.0373   3.0884   3.1620   3.1781   3.1795   3.2682   3.2702   3.2704
     3.3132   3.5147   3.5147   3.5620   3.5778   3.5870   3.7714   3.7714
     3.7972   3.8037   4.0601   4.0800   4.1481   4.1613   4.2050   4.2695
     4.3082   4.4807   4.5000   4.5311   4.5590   4.6096   4.6347   4.6577
     4.6666   4.7887   4.9981   5.0224   5.1416   5.1621   5.3553   5.5064
     5.6005   5.6059   5.6553   5.6817   5.6924   5.8187   5.8679   5.8765
     5.9755   5.9791   6.0053   6.0492   6.1297   6.1504   6.2855   6.3264
     6.3440   6.4099   6.5049   6.5489   6.5570   6.7018   6.8311   6.9597
     7.0324   7.0501   7.2005   7.2006   7.2118   7.2990   7.4952   7.5436
     7.5485   7.5855   7.6182   7.6207   7.6715   7.7191   7.7332   7.7521
     7.7536   7.7689   7.8628   8.0201   8.0216   8.1091   8.1616   8.1798
     8.1876   8.2368   8.3074   8.3162   8.4581   8.5528   8.5951   8.5972
     8.7639   8.8012   8.8731   8.8757   8.9073   8.9224   8.9326   8.9926
     8.9938   9.0397   9.0409   9.0512   9.1081   9.1197   9.1255   9.2321
     9.2841   9.2983   9.3097   9.4021   9.4767   9.4894   9.4990   9.5289
     9.7198   9.7209   9.7355   9.7365   9.8638   9.8695   9.9161   9.9277
     9.9278   9.9307   9.9338   9.9403   9.9689  10.0396  10.1013  10.1083
    10.2316  10.2776  10.2925  10.3003  10.3950  10.4592  10.4680  10.4864
    10.5429  10.5719  10.6590  10.6889

          k = 0.2500 0.0000 0.0000 (256240 PWs)   bands (ev):

   -16.7190 -15.5397 -15.2481 -15.0746 -14.5383 -14.3273 -14.2985 -14.2240
   -13.4802 -13.3098 -13.1737 -12.6261 -12.5579 -12.4707 -12.3366 -11.7160
   -11.6181 -11.5004 -11.4349 -10.6417 -10.5573 -10.1767  -9.9668  -9.7699
    -9.5855  -9.3877  -9.2528  -8.8626  -8.6029  -8.5131  -8.0722  -7.3955
    -7.1752  -7.1350  -6.9551  -6.9280  -6.8282  -6.4626  -6.3569  -5.6584
    -5.6476  -5.4215  -5.2955  -5.2498  -5.2304  -4.8545  -4.8502  -4.6962
    -4.6952  -4.6640  -4.3132  -4.2854  -4.0209  -4.0147  -3.9487  -3.8746
    -3.8535  -3.7725  -3.7373  -3.6557  -3.6162  -3.4546  -3.3790  -3.3683
    -3.3271  -3.3016  -3.2144  -3.2126  -3.1922  -3.0414  -3.0357  -2.9959
    -2.9685  -2.8488  -2.8148  -2.7827  -2.7471  -2.7426  -2.5963  -2.5765
    -2.5365  -2.5140  -2.4518  -2.3555  -2.2691  -2.2379  -2.2113  -2.1908
    -2.1714  -2.1704  -2.0202  -1.8587  -1.8349  -1.7960  -1.7900  -1.7514
    -1.6971  -1.5821  -1.5801  -1.5026  -1.4956  -1.4863  -1.4768  -1.4628
    -1.4399  -1.4174  -1.3972  -1.3225  -1.2999  -1.2849  -1.2613  -1.2335
    -1.2126  -1.1789  -1.1757  -1.1742  -1.1690  -1.1673  -1.1554  -1.1519
    -1.0988  -1.0924  -1.0781  -1.0499  -1.0467  -1.0430  -1.0262  -0.9938
    -0.9686  -0.9648  -0.9627  -0.9466  -0.9355  -0.9275  -0.9107  -0.9048
    -0.8943  -0.8827  -0.8807  -0.8404  -0.8336  -0.7919  -0.7684  -0.7423
    -0.7285  -0.6995  -0.6904  -0.6865  -0.6713  -0.6559  -0.6393  -0.6294
    -0.6247  -0.6175  -0.6156  -0.6077  -0.5978  -0.5903  -0.5745  -0.5707
    -0.5702  -0.5565  -0.5483  -0.5354  -0.5259  -0.5253  -0.5228  -0.5127
    -0.5084  -0.5032  -0.4977  -0.4859  -0.4795  -0.4639  -0.4482  -0.4469
    -0.4387  -0.4334  -0.4261  -0.4194  -0.4126  -0.4106  -0.4069  -0.4056
    -0.4044  -0.3936  -0.3852  -0.3770  -0.3716  -0.3704  -0.3662  -0.3645
    -0.3591  -0.3577  -0.3530  -0.3442  -0.3269  -0.2987  -0.2870  -0.2849
    -0.2739  -0.2724  -0.2639  -0.2496  -0.2284  -0.1938  -0.1926  -0.1841
    -0.1765  -0.1725  -0.1649  -0.1643  -0.1492  -0.1482  -0.1337  -0.1260
    -0.1247  -0.1179  -0.1088  -0.0958  -0.0674  -0.0221  -0.0156  -0.0083
    -0.0009   0.0154   0.0207   0.0225   0.0291   0.0460   0.0559   0.0589
     0.0650   0.0661   0.0747   0.0789   0.0924   0.0989   0.1045   0.1088
     0.1123   0.1156   0.1209   0.1372   0.1417   0.1435   0.1449   0.1603
     0.1613   0.1723   0.1799   0.1953   0.2061   0.2104   0.2131   0.2161
     0.2218   0.2250   0.2314   0.2352   0.2385   0.2425   0.2449   0.2543
     0.2684   0.2728   0.2815   0.2839   0.2885   0.2896   0.2996   0.3015
     0.3074   0.3107   0.3200   0.3263   0.3283   0.3292   0.3328   0.3396
     0.3489   0.3600   0.3617   0.3703   0.3791   0.3807   0.3911   0.4045
     0.4127   0.4145   0.4172   0.4203   0.4262   0.4341   0.4411   0.4426
     0.4502   0.4579   0.4644   0.4767   0.4797   0.4810   0.4932   0.4965
     0.4980   0.5049   0.5111   0.5142   0.5157   0.5282   0.5299   0.5443
     0.5514   0.5562   0.5571   0.5614   0.5716   0.5745   0.5896   0.5923
     0.5960   0.6028   0.6044   0.6054   0.6098   0.6125   0.6142   0.6188
     0.6255   0.6303   0.6312   0.6347   0.6537   0.6578   0.6597   0.6641
     0.6671   0.6697   0.6788   0.6818   0.6840   0.6848   0.6865   0.6938
     0.7009   0.7117   0.7259   0.7283   0.7441   0.7480   0.7509   0.7559
     0.7599   0.7626   0.7651   0.7833   0.7930   0.7982   0.8026   0.8061
     0.8204   0.8256   0.8342   0.8473   0.8605   0.8658   0.8706   0.8726
     0.8789   0.8816   0.8884   0.8989   0.9027   0.9050   0.9086   0.9132
     0.9191   0.9225   0.9255   0.9276   0.9299   0.9356   0.9375   0.9418
     0.9439   0.9534   0.9577   0.9586   0.9631   0.9668   0.9705   0.9728
     0.9769   0.9955   1.0021   1.0125   1.0184   1.0366   1.0397   1.0427
     1.0478   1.0516   1.0594   1.0601   1.0631   1.0666   1.0699   1.0739
     1.0801   1.0905   1.1031   1.1055   1.1057   1.1198   1.1208   1.1248
     1.1304   1.1335   1.1427   1.1477   1.1501   1.1607   1.1631   1.1679
     1.1712   1.1738   1.1864   1.1893   1.1920   1.1986   1.2008   1.2048
     1.2061   1.2175   1.2194   1.2244   1.2289   1.2327   1.2345   1.2421
     1.2463   1.2465   1.2579   1.2587   1.2614   1.2635   1.2695   1.2715
     1.2865   1.2868   1.2881   1.2936   1.2954   1.3141   1.3185   1.3189
     1.3263   1.3408   1.3454   1.3459   1.3501   1.3590   1.3607   1.3672
     1.3680   1.3792   1.3828   1.3864   1.3888   1.3929   1.4059   1.4081
     1.4159   1.4168   1.4188   1.4216   1.4367   1.4402   1.4530   1.4548
     1.4556   1.4576   1.4627   1.4654   1.4690   1.4770   1.4839   1.4870
     1.4896   1.4907   1.4960   1.5034   1.5085   1.5122   1.5154   1.5208
     1.5230   1.5257   1.5278   1.5356   1.5466   1.5562   1.5605   1.5636
     1.5738   1.5800   1.5826   1.5865   1.5930   1.5942   1.5955   1.6030
     1.6095   1.6100   1.6133   1.6183   1.6203   1.6230   1.6304   1.6330
     1.6350   1.6381   1.6445   1.6462   1.6495   1.6521   1.6528   1.6575
     1.6616   1.6649   1.6666   1.6687   1.6692   1.6720   1.6767   1.6837
     1.6916   1.6971   1.6979   1.7015   1.7064   1.7090   1.7116   1.7152
     1.7222   1.7263   1.7284   1.7307   1.7347   1.7418   1.7510   1.7533
     1.7581   1.7638   1.7715   1.7739   1.7800   1.7907   1.7974   1.7986
     1.8005   1.8038   1.8075   1.8156   1.8188   1.8199   1.8230   1.8266
     1.8331   1.8408   1.8463   1.8492   1.8518   1.8578   1.8600   1.8626
     1.8715   1.8750   1.8757   1.8785   1.8791   1.8833   1.8837   1.8858
     1.8933   1.8967   1.9020   1.9027   1.9040   1.9101   1.9163   1.9175
     1.9185   1.9233   1.9297   1.9320   1.9406   1.9529   1.9552   1.9649
     1.9658   1.9697   1.9722   1.9754   1.9767   1.9793   1.9811   1.9859
     1.9899   1.9949   1.9972   2.0001   2.0128   2.0136   2.0143   2.0179
     2.0187   2.0256   2.0281   2.0286   2.0295   2.0328   2.0388   2.0389
     2.0431   2.0472   2.0490   2.0529   2.0540   2.0585   2.0630   2.0666
     2.0704   2.0725   2.0754   2.0792   2.0839   2.0880   2.0946   2.1005
     2.1032   2.1049   2.1088   2.1108   2.1258   2.1305   2.1325   2.1497
     2.1607   2.1649   2.1686   2.1804   2.1872   2.1936   2.2062   2.2163
     2.2231   2.2367   2.2395   2.3275   2.3384   2.3440   2.3779   2.4014
     2.4090   2.4362   2.4552   2.4600   2.5254   2.5970   2.6101   2.6312
     2.6405   2.6804   2.7044   2.9788   3.0455   3.0644   3.0769   3.1108
     3.1880   3.3317   3.4808   3.5193   3.5749   3.5761   3.6124   3.7019
     3.7376   3.7712   3.8187   3.8231   3.8534   4.0019   4.0644   4.0734
     4.1728   4.2074   4.2339   4.2393   4.2522   4.2712   4.2799   4.2869
     4.2900   4.3554   4.5208   4.7151   4.7730   4.7896   4.8812   4.8859
     4.9616   5.0090   5.0988   5.1574   5.1790   5.1873   5.2080   5.3683
     5.4028   5.5554   5.6001   5.6567   5.6696   5.7212   5.7689   5.7965
     5.8142   5.8853   5.9352   5.9732   5.9895   6.1028   6.1847   6.1894
     6.2333   6.3670   6.4794   6.5180   6.5247   6.5521   6.5644   6.5889
     6.8111   6.8952   6.9102   7.0745   7.1360   7.2234   7.2424   7.3040
     7.3319   7.3395   7.3695   7.3841   7.4111   7.4351   7.4663   7.5169
     7.5260   7.5554   7.6297   7.6494   7.7751   7.8633   7.9049   7.9353
     8.0998   8.1131   8.1645   8.2026   8.2807   8.3235   8.3693   8.3914
     8.4625   8.4879   8.5203   8.6022   8.6292   8.6485   8.7420   8.7584
     8.8396   8.9652   8.9695   8.9815   9.0231   9.0406   9.0972   9.1210
     9.2152   9.3141   9.3645   9.3869   9.4021   9.4628   9.4789   9.4796
     9.5307   9.5396   9.5721   9.6129   9.6837   9.7457   9.7626   9.7751
     9.8354   9.8630   9.9425   9.9690   9.9997  10.0448  10.0740  10.0762
    10.1909  10.2317  10.2717  10.3163  10.3271  10.3645  10.3750  10.4275
    10.5304  10.5439  10.5478  10.5893

          k = 0.2500-0.2165 0.0000 (256316 PWs)   bands (ev):

   -16.7188 -15.5639 -15.2214 -14.8927 -14.8412 -14.5442 -14.0451 -13.9090
   -13.6346 -13.4653 -13.1399 -12.6661 -12.5912 -12.5080 -12.0946 -12.0064
   -11.5706 -11.3790 -10.9024 -10.8098 -10.6799 -10.4744 -10.3630  -9.9412
    -9.2581  -9.1620  -8.7910  -8.7340  -8.4842  -8.4052  -8.0648  -7.9977
    -7.8470  -7.7767  -6.7281  -6.4317  -6.2466  -6.0086  -5.9653  -5.9008
    -5.7566  -5.6878  -5.4837  -5.4419  -5.1238  -5.0737  -4.8245  -4.7924
    -4.6241  -4.4381  -4.3541  -4.2975  -4.0762  -4.0290  -4.0061  -3.9509
    -3.9045  -3.8726  -3.7554  -3.7140  -3.5852  -3.5723  -3.5286  -3.4391
    -3.2294  -3.2218  -3.1648  -3.0921  -3.0678  -2.9854  -2.9324  -2.8949
    -2.8467  -2.8075  -2.7771  -2.7727  -2.7287  -2.6822  -2.6518  -2.5428
    -2.4900  -2.4809  -2.4200  -2.3264  -2.2861  -2.2854  -2.1915  -2.1731
    -2.1413  -2.0833  -2.0093  -1.9263  -1.9037  -1.8909  -1.7697  -1.7112
    -1.6900  -1.6774  -1.5806  -1.5510  -1.5406  -1.5380  -1.5237  -1.5000
    -1.4832  -1.4046  -1.4029  -1.3514  -1.3479  -1.3289  -1.3188  -1.2733
    -1.2594  -1.2483  -1.1850  -1.1817  -1.1422  -1.1397  -1.1320  -1.0978
    -1.0934  -1.0873  -1.0793  -1.0753  -1.0725  -1.0685  -1.0598  -1.0530
    -1.0425  -0.9907  -0.9857  -0.9556  -0.9547  -0.9470  -0.9360  -0.8827
    -0.8651  -0.8501  -0.8320  -0.7779  -0.7745  -0.7464  -0.7439  -0.7160
    -0.7132  -0.6989  -0.6680  -0.6667  -0.6656  -0.6594  -0.6444  -0.6325
    -0.6304  -0.6180  -0.6154  -0.6102  -0.6089  -0.5904  -0.5867  -0.5858
    -0.5849  -0.5775  -0.5753  -0.5440  -0.5358  -0.5202  -0.5043  -0.5022
    -0.5001  -0.4967  -0.4905  -0.4888  -0.4619  -0.4544  -0.4492  -0.4433
    -0.4402  -0.4371  -0.4311  -0.4278  -0.4175  -0.4136  -0.3996  -0.3956
    -0.3844  -0.3763  -0.3731  -0.3631  -0.3599  -0.3579  -0.3554  -0.3526
    -0.3427  -0.3401  -0.3287  -0.3093  -0.2946  -0.2920  -0.2728  -0.2703
    -0.2543  -0.2497  -0.2475  -0.2357  -0.2257  -0.2202  -0.2060  -0.1969
    -0.1850  -0.1724  -0.1593  -0.1545  -0.1322  -0.1280  -0.1222  -0.1048
    -0.0941  -0.0813  -0.0788  -0.0663  -0.0633  -0.0518  -0.0399  -0.0172
    -0.0003   0.0076   0.0118   0.0189   0.0354   0.0361   0.0389   0.0440
     0.0504   0.0538   0.0588   0.0689   0.0763   0.0842   0.0975   0.1108
     0.1114   0.1183   0.1325   0.1356   0.1466   0.1502   0.1535   0.1588
     0.1602   0.1605   0.1735   0.1786   0.1853   0.1872   0.1984   0.2073
     0.2136   0.2177   0.2252   0.2318   0.2329   0.2354   0.2475   0.2505
     0.2520   0.2529   0.2627   0.2630   0.2641   0.2752   0.2804   0.2842
     0.2895   0.2987   0.3066   0.3269   0.3329   0.3350   0.3395   0.3496
     0.3599   0.3612   0.3692   0.3721   0.3784   0.3880   0.3934   0.3976
     0.4024   0.4067   0.4172   0.4207   0.4239   0.4350   0.4387   0.4448
     0.4573   0.4755   0.4837   0.4897   0.4923   0.4939   0.4955   0.4985
     0.5093   0.5133   0.5138   0.5272   0.5337   0.5351   0.5408   0.5473
     0.5490   0.5568   0.5599   0.5637   0.5686   0.5693   0.5826   0.5839
     0.5930   0.5967   0.5984   0.6002   0.6032   0.6090   0.6136   0.6302
     0.6318   0.6370   0.6392   0.6412   0.6422   0.6541   0.6615   0.6734
     0.6914   0.6943   0.6947   0.6968   0.6991   0.7006   0.7027   0.7117
     0.7180   0.7367   0.7414   0.7460   0.7507   0.7547   0.7561   0.7643
     0.7665   0.7696   0.7704   0.7808   0.7877   0.7916   0.7935   0.7947
     0.8072   0.8086   0.8119   0.8204   0.8257   0.8355   0.8485   0.8563
     0.8631   0.8716   0.8824   0.8868   0.8934   0.8973   0.9048   0.9107
     0.9165   0.9202   0.9261   0.9292   0.9307   0.9322   0.9338   0.9451
     0.9507   0.9584   0.9605   0.9633   0.9671   0.9718   0.9822   0.9903
     0.9924   0.9969   0.9995   1.0049   1.0129   1.0195   1.0283   1.0320
     1.0358   1.0371   1.0427   1.0464   1.0548   1.0606   1.0823   1.0975
     1.1040   1.1076   1.1084   1.1145   1.1150   1.1168   1.1248   1.1283
     1.1337   1.1446   1.1533   1.1558   1.1576   1.1716   1.1819   1.1863
     1.1875   1.1906   1.2004   1.2015   1.2020   1.2067   1.2079   1.2139
     1.2212   1.2231   1.2265   1.2352   1.2429   1.2440   1.2511   1.2539
     1.2631   1.2651   1.2661   1.2725   1.2739   1.2832   1.2857   1.2912
     1.2951   1.2995   1.3027   1.3048   1.3100   1.3110   1.3127   1.3200
     1.3251   1.3315   1.3426   1.3440   1.3467   1.3479   1.3504   1.3516
     1.3568   1.3588   1.3644   1.3677   1.3707   1.3822   1.3828   1.3959
     1.3977   1.4002   1.4093   1.4136   1.4271   1.4322   1.4338   1.4350
     1.4477   1.4488   1.4507   1.4557   1.4593   1.4602   1.4743   1.4776
     1.4806   1.4888   1.4915   1.4923   1.4925   1.4955   1.4969   1.5043
     1.5187   1.5212   1.5258   1.5277   1.5310   1.5323   1.5387   1.5491
     1.5540   1.5585   1.5669   1.5698   1.5723   1.5764   1.5787   1.5902
     1.5946   1.5966   1.5992   1.6068   1.6115   1.6289   1.6367   1.6377
     1.6452   1.6545   1.6587   1.6602   1.6666   1.6702   1.6738   1.6803
     1.6868   1.6877   1.6924   1.6948   1.6968   1.7007   1.7043   1.7064
     1.7074   1.7107   1.7113   1.7160   1.7233   1.7249   1.7279   1.7316
     1.7496   1.7514   1.7571   1.7604   1.7625   1.7671   1.7688   1.7703
     1.7714   1.7739   1.7760   1.7782   1.7823   1.7835   1.7862   1.7868
     1.7986   1.8016   1.8037   1.8069   1.8093   1.8099   1.8112   1.8152
     1.8180   1.8284   1.8326   1.8428   1.8444   1.8481   1.8499   1.8554
     1.8613   1.8625   1.8644   1.8700   1.8736   1.8759   1.8853   1.8939
     1.8978   1.8986   1.9050   1.9111   1.9115   1.9141   1.9183   1.9239
     1.9304   1.9340   1.9390   1.9420   1.9461   1.9514   1.9561   1.9595
     1.9631   1.9664   1.9695   1.9713   1.9746   1.9783   1.9791   1.9841
     1.9861   1.9875   1.9933   1.9984   2.0017   2.0029   2.0099   2.0157
     2.0192   2.0235   2.0263   2.0273   2.0328   2.0334   2.0351   2.0361
     2.0397   2.0471   2.0480   2.0527   2.0539   2.0554   2.0636   2.0678
     2.0731   2.0745   2.0772   2.0782   2.0796   2.0867   2.0882   2.0966
     2.0988   2.1012   2.1076   2.1100   2.1146   2.1240   2.1257   2.1400
     2.1421   2.1488   2.1499   2.1550   2.1644   2.1767   2.1922   2.2235
     2.2378   2.2618   2.2667   2.3067   2.3120   2.3273   2.3295   2.3344
     2.3510   2.3546   2.3681   2.4571   2.7025   2.7107   2.7292   2.7399
     2.7690   2.8298   2.8446   2.8529   2.9614   3.0764   3.1568   3.1580
     3.1761   3.2195   3.2840   3.3754   3.3833   3.4236   3.4611   3.4938
     3.5217   3.6793   3.7627   3.7663   3.7862   3.9818   4.1866   4.2154
     4.2473   4.3177   4.3846   4.4050   4.4208   4.4374   4.4578   4.5593
     4.6140   4.6757   4.7424   4.7430   4.7624   4.8449   4.8536   4.9020
     4.9311   4.9425   4.9909   5.0527   5.1133   5.1781   5.1856   5.2541
     5.2810   5.3279   5.3717   5.4350   5.4885   5.5763   5.5876   5.7630
     5.7933   5.8023   5.9797   6.0138   6.0398   6.0570   6.1364   6.1891
     6.3172   6.3230   6.3725   6.4316   6.5653   6.6111   6.6367   6.6531
     6.8192   6.8385   7.0100   7.0248   7.0439   7.0957   7.1435   7.3310
     7.3665   7.3874   7.4316   7.5136   7.5844   7.6065   7.6593   7.6975
     7.7070   7.7156   7.7337   7.7550   7.7833   7.8942   7.9243   7.9733
     8.0188   8.0895   8.0942   8.1217   8.3380   8.3680   8.4139   8.4959
     8.5191   8.5628   8.5998   8.6292   8.6858   8.7342   8.7948   8.8157
     8.8287   8.8709   8.8840   8.9681   9.0016   9.0866   9.0938   9.1013
     9.1573   9.1876   9.2350   9.2829   9.3194   9.3212   9.3293   9.3445
     9.4377   9.4995   9.5833   9.6095   9.6326   9.6601   9.6986   9.7077
     9.7641   9.8066   9.8412   9.8831   9.9136   9.9476  10.0280  10.0653
    10.0957  10.1045  10.1372  10.2188  10.2287  10.2939  10.3411  10.4207
    10.4475  10.4688  10.5085  10.5400

          k =-0.5000 0.0000 0.0000 (256496 PWs)   bands (ev):

   -16.6632 -15.4301 -15.1529 -15.0035 -14.9077 -14.8466 -14.1588 -13.9759
   -13.8692 -13.8396 -12.5896 -12.2842 -12.1475 -12.0767 -11.8860 -11.8405
   -11.3170 -11.2793 -11.0972 -11.0829 -10.5875 -10.5118 -10.3868 -10.1681
    -9.7433  -9.6739  -9.4300  -9.1144  -8.5419  -8.5122  -8.3356  -8.3246
    -7.2390  -7.0278  -6.9606  -6.8053  -6.7688  -6.7464  -5.7472  -5.5891
    -5.2244  -4.7580  -4.7114  -4.6949  -4.6150  -4.5502  -4.3355  -4.2762
    -4.2269  -4.2016  -4.1744  -4.1730  -4.1538  -4.1088  -4.0651  -4.0544
    -4.0291  -3.9614  -3.9528  -3.9128  -3.8187  -3.7814  -3.7592  -3.6086
    -3.5321  -3.4244  -3.2931  -3.2844  -3.1967  -3.1435  -3.0610  -2.9833
    -2.9465  -2.9136  -2.8131  -2.7970  -2.7931  -2.7911  -2.7893  -2.7888
    -2.7584  -2.7543  -2.4464  -2.4241  -2.3000  -2.2859  -2.2680  -2.2087
    -2.2007  -2.1719  -2.1614  -2.1026  -2.0696  -1.9175  -1.9148  -1.8910
    -1.8901  -1.8807  -1.8751  -1.8191  -1.3403  -1.3370  -1.3331  -1.3294
    -1.2936  -1.2632  -1.2607  -1.2567  -1.2555  -1.2509  -1.2506  -1.2490
    -1.2063  -1.2006  -1.0444  -1.0437  -1.0416  -1.0400  -1.0262  -0.9920
    -0.9906  -0.9881  -0.9851  -0.9772  -0.9721  -0.9555  -0.9220  -0.9151
    -0.8761  -0.8757  -0.8626  -0.8502  -0.8490  -0.8353  -0.8346  -0.8191
    -0.8165  -0.8014  -0.7747  -0.7708  -0.7461  -0.7445  -0.7373  -0.7356
    -0.7132  -0.7115  -0.7004  -0.6988  -0.6858  -0.6853  -0.6797  -0.6781
    -0.6713  -0.6670  -0.6641  -0.6608  -0.6176  -0.6031  -0.6003  -0.5913
    -0.5886  -0.5787  -0.5715  -0.5652  -0.5604  -0.5462  -0.5415  -0.5391
    -0.5387  -0.5163  -0.5005  -0.4985  -0.4920  -0.4912  -0.4774  -0.4762
    -0.4711  -0.4679  -0.4626  -0.4416  -0.4370  -0.4242  -0.4233  -0.4208
    -0.3980  -0.3951  -0.3741  -0.3735  -0.3706  -0.3592  -0.3589  -0.3585
    -0.3574  -0.3491  -0.3475  -0.3327  -0.3325  -0.3260  -0.3225  -0.3059
    -0.3005  -0.2963  -0.2950  -0.2907  -0.2904  -0.2797  -0.2775  -0.2313
    -0.2254  -0.1613  -0.1581  -0.1308  -0.1271  -0.1143  -0.1128  -0.0889
    -0.0875  -0.0828  -0.0717  -0.0694  -0.0582  -0.0537  -0.0507  -0.0484
    -0.0360  -0.0351  -0.0144  -0.0111  -0.0079  -0.0009   0.0027   0.0064
     0.0133   0.0155   0.0182   0.0293   0.0354   0.0498   0.0533   0.0848
     0.0968   0.0989   0.1103   0.1207   0.1252   0.1333   0.1447   0.1461
     0.1474   0.1485   0.1744   0.1782   0.1861   0.1878   0.2006   0.2031
     0.2291   0.2336   0.2346   0.2364   0.2523   0.2536   0.2575   0.2628
     0.2698   0.2714   0.2801   0.2824   0.3034   0.3042   0.3117   0.3132
     0.3228   0.3295   0.3380   0.3424   0.3456   0.3536   0.3567   0.3583
     0.3640   0.3652   0.3657   0.3816   0.4011   0.4027   0.4222   0.4277
     0.4351   0.4387   0.4451   0.4567   0.4577   0.4628   0.4655   0.4698
     0.4805   0.4818   0.4910   0.4996   0.5020   0.5058   0.5365   0.5392
     0.5403   0.5423   0.5529   0.5540   0.5600   0.5682   0.5709   0.5717
     0.5748   0.5791   0.5885   0.5896   0.5904   0.5932   0.5967   0.5990
     0.6141   0.6158   0.6236   0.6251   0.6387   0.6410   0.6510   0.6587
     0.6790   0.6807   0.6839   0.6862   0.6972   0.6985   0.6995   0.7006
     0.7008   0.7055   0.7068   0.7110   0.7152   0.7160   0.7181   0.7222
     0.7338   0.7342   0.7360   0.7366   0.7409   0.7422   0.7460   0.7473
     0.7515   0.7518   0.7552   0.7579   0.7707   0.7716   0.7741   0.7769
     0.8025   0.8033   0.8165   0.8170   0.8317   0.8351   0.8699   0.8728
     0.8814   0.8864   0.8897   0.8948   0.9040   0.9044   0.9102   0.9120
     0.9309   0.9352   0.9383   0.9452   0.9491   0.9540   0.9557   0.9610
     0.9625   0.9638   0.9712   0.9715   0.9730   0.9879   0.9905   0.9930
     0.9932   0.9939   0.9982   0.9993   1.0000   1.0129   1.0137   1.0200
     1.0215   1.0260   1.0282   1.0529   1.0537   1.0625   1.0663   1.0752
     1.0769   1.0947   1.0961   1.0962   1.1046   1.1077   1.1087   1.1130
     1.1155   1.1254   1.1284   1.1428   1.1454   1.1465   1.1514   1.1540
     1.1554   1.1650   1.1670   1.1717   1.1734   1.1765   1.1795   1.1802
     1.1823   1.1937   1.2074   1.2127   1.2141   1.2176   1.2204   1.2209
     1.2266   1.2310   1.2336   1.2358   1.2465   1.2480   1.2500   1.2511
     1.2617   1.2649   1.2662   1.2678   1.2816   1.2830   1.2911   1.2913
     1.2953   1.2972   1.3066   1.3070   1.3330   1.3373   1.3413   1.3457
     1.3511   1.3516   1.3556   1.3604   1.3618   1.3656   1.3693   1.3695
     1.3816   1.3856   1.3882   1.3889   1.3977   1.3985   1.4158   1.4172
     1.4187   1.4369   1.4371   1.4401   1.4404   1.4452   1.4472   1.4605
     1.4610   1.4625   1.4656   1.4696   1.4703   1.4735   1.4742   1.4815
     1.4953   1.4984   1.5013   1.5036   1.5039   1.5045   1.5262   1.5287
     1.5339   1.5486   1.5539   1.5568   1.5618   1.5686   1.5692   1.5810
     1.5948   1.5971   1.6049   1.6084   1.6143   1.6178   1.6345   1.6372
     1.6392   1.6500   1.6608   1.6629   1.6645   1.6686   1.6764   1.6773
     1.6843   1.6846   1.6890   1.6894   1.6911   1.6955   1.7070   1.7075
     1.7092   1.7173   1.7228   1.7239   1.7298   1.7308   1.7322   1.7329
     1.7387   1.7434   1.7498   1.7538   1.7544   1.7561   1.7712   1.7729
     1.7758   1.7771   1.7773   1.7849   1.7864   1.7868   1.7910   1.8001
     1.8061   1.8094   1.8136   1.8142   1.8170   1.8200   1.8226   1.8265
     1.8271   1.8314   1.8320   1.8338   1.8396   1.8433   1.8440   1.8511
     1.8625   1.8692   1.8730   1.8763   1.8852   1.8892   1.8927   1.8937
     1.8951   1.8967   1.9006   1.9016   1.9081   1.9119   1.9140   1.9195
     1.9195   1.9227   1.9235   1.9246   1.9257   1.9277   1.9290   1.9305
     1.9325   1.9427   1.9431   1.9511   1.9542   1.9608   1.9631   1.9678
     1.9732   1.9737   1.9756   1.9769   1.9793   1.9897   1.9959   1.9976
     1.9997   2.0011   2.0013   2.0155   2.0177   2.0181   2.0192   2.0222
     2.0228   2.0235   2.0268   2.0329   2.0369   2.0426   2.0450   2.0458
     2.0479   2.0484   2.0602   2.0662   2.0707   2.0709   2.0801   2.0803
     2.0905   2.0957   2.0965   2.0973   2.1085   2.1095   2.1099   2.1101
     2.1129   2.1189   2.1227   2.1475   2.1497   2.1603   2.1644   2.1654
     2.1731   2.1769   2.2053   2.2054   2.2122   2.2169   2.3476   2.3493
     2.3787   2.3885   2.5323   2.5379   2.8027   2.8087   2.8509   2.8554
     2.8648   2.8661   2.8824   2.8841   2.9032   2.9054   3.3162   3.3201
     3.3609   3.3610   3.6584   3.6598   3.6764   3.6887   3.7400   3.7451
     3.7733   3.7739   3.8870   3.9015   3.9380   3.9435   4.3830   4.3868
     4.4030   4.4035   4.4608   4.5165   4.5295   4.5962   4.5981   4.6035
     4.6378   4.7288   4.7301   4.9942   5.0116   5.0318   5.2249   5.2667
     5.2681   5.2789   5.2984   5.3223   5.4201   5.4439   5.4571   5.4604
     5.4775   5.4965   5.5551   5.6054   5.6205   5.6253   5.6333   5.7052
     5.7112   5.7188   5.7371   5.7430   5.7851   5.8190   5.8706   5.9116
     5.9637   5.9668   6.3231   6.3394   6.3525   6.3938   6.4204   6.4648
     6.4684   6.5153   6.5175   6.5310   6.5743   6.6053   6.6389   6.6449
     6.8525   7.0380   7.0666   7.0913   7.0973   7.1200   7.2296   7.2343
     7.6358   7.7011   7.7065   7.7270   7.8132   7.8195   7.8334   7.8790
     8.1081   8.1249   8.1905   8.1945   8.2161   8.2246   8.2562   8.2571
     8.4090   8.4124   8.4679   8.4691   8.5044   8.5067   8.6369   8.6942
     8.7557   8.7699   8.8036   8.8453   8.8675   8.8687   9.1107   9.1439
     9.2215   9.2421   9.2629   9.2685   9.3198   9.3282   9.4197   9.4457
     9.4721   9.4748   9.5342   9.6160   9.6471   9.6659   9.6703   9.7569
     9.7701   9.8619   9.8698   9.9444   9.9625   9.9640   9.9706   9.9809
     9.9828  10.0241  10.1547  10.1627  10.1666  10.1822  10.2690  10.2718
    10.3177  10.3293  10.4424  10.4698

          k =-0.5000-0.2165 0.0000 (256328 PWs)   bands (ev):

   -16.6631 -15.4149 -15.1950 -15.1219 -14.7024 -14.5651 -14.5077 -14.4465
   -13.4333 -13.1925 -13.0919 -13.0225 -12.0818 -11.9144 -11.3751 -11.3428
   -11.3135 -11.1264 -11.0934 -10.9409 -10.9092 -10.8900 -10.7307 -10.7014
    -9.4791  -9.4155  -9.1295  -9.0401  -8.6230  -8.2920  -8.2002  -8.1269
    -7.7031  -7.6388  -7.3916  -7.3217  -5.9374  -5.7828  -5.5315  -5.3526
    -5.2558  -5.0087  -4.8215  -4.7296  -4.6834  -4.6302  -4.6098  -4.5870
    -4.5555  -4.5460  -4.5262  -4.3510  -4.3201  -4.0159  -3.8524  -3.8507
    -3.7186  -3.6380  -3.6189  -3.5996  -3.5738  -3.5651  -3.5531  -3.5362
    -3.5256  -3.5163  -3.4743  -3.4553  -3.3446  -3.3100  -3.1250  -3.1092
    -3.1003  -3.0740  -2.9374  -2.9266  -2.8423  -2.8105  -2.7962  -2.7858
    -2.6745  -2.5767  -2.5667  -2.4828  -2.3664  -2.3609  -2.0866  -2.0803
    -2.0419  -2.0055  -1.9547  -1.9540  -1.9523  -1.9511  -1.8158  -1.7763
    -1.6952  -1.6738  -1.6402  -1.6360  -1.5615  -1.5388  -1.4958  -1.4755
    -1.4634  -1.4614  -1.4144  -1.3892  -1.3588  -1.2302  -1.2266  -1.1952
    -1.1934  -1.1844  -1.1823  -1.1403  -1.1276  -1.1148  -1.0476  -0.9979
    -0.9777  -0.9709  -0.9677  -0.9030  -0.8724  -0.8699  -0.8669  -0.8652
    -0.8308  -0.8263  -0.8236  -0.8213  -0.8211  -0.8203  -0.8165  -0.8099
    -0.8090  -0.8078  -0.7816  -0.7786  -0.7750  -0.7744  -0.7549  -0.7541
    -0.7535  -0.7513  -0.7429  -0.7420  -0.7393  -0.7387  -0.7000  -0.6966
    -0.6765  -0.6310  -0.6303  -0.6238  -0.6177  -0.5994  -0.5949  -0.5862
    -0.5845  -0.5732  -0.5728  -0.5490  -0.5484  -0.5405  -0.5388  -0.5216
    -0.5209  -0.5193  -0.5179  -0.5162  -0.5064  -0.5054  -0.5008  -0.4993
    -0.4906  -0.4896  -0.4625  -0.4614  -0.4590  -0.4546  -0.4385  -0.4370
    -0.4336  -0.4324  -0.4162  -0.4142  -0.4137  -0.4124  -0.3927  -0.3785
    -0.3762  -0.3724  -0.3688  -0.3676  -0.3180  -0.3164  -0.3146  -0.3104
    -0.2567  -0.2555  -0.2329  -0.2313  -0.2150  -0.2080  -0.1994  -0.1980
    -0.1759  -0.1573  -0.1479  -0.1473  -0.1433  -0.1425  -0.1324  -0.1316
    -0.1277  -0.1240  -0.1115  -0.0965  -0.0951  -0.0816  -0.0779  -0.0776
    -0.0689  -0.0645  -0.0614  -0.0575  -0.0488  -0.0318   0.0191   0.0248
     0.0417   0.0430   0.0482   0.0619   0.0687   0.0715   0.0784   0.0796
     0.0840   0.0901   0.1182   0.1217   0.1222   0.1238   0.1329   0.1585
     0.1621   0.1690   0.1714   0.1716   0.1725   0.1744   0.1806   0.2005
     0.2075   0.2097   0.2180   0.2292   0.2362   0.2400   0.2422   0.2799
     0.2911   0.2950   0.3132   0.3178   0.3329   0.3417   0.3436   0.3443
     0.3471   0.3490   0.3531   0.3540   0.3600   0.3606   0.3660   0.3670
     0.3788   0.3791   0.4063   0.4163   0.4291   0.4345   0.4353   0.4357
     0.4428   0.4433   0.4539   0.4561   0.4766   0.4802   0.4843   0.4853
     0.4882   0.4889   0.4895   0.4917   0.4926   0.4943   0.4988   0.5148
     0.5184   0.5283   0.5382   0.5391   0.5465   0.5551   0.5659   0.5685
     0.5873   0.5878   0.6049   0.6063   0.6208   0.6240   0.6286   0.6372
     0.6382   0.6412   0.6415   0.6443   0.6506   0.6572   0.6658   0.6675
     0.6679   0.6771   0.6813   0.6839   0.6924   0.6968   0.6986   0.6989
     0.7009   0.7011   0.7089   0.7113   0.7124   0.7158   0.7173   0.7191
     0.7310   0.7334   0.7410   0.7431   0.7446   0.7448   0.7475   0.7481
     0.7571   0.7580   0.7723   0.7802   0.8072   0.8085   0.8105   0.8108
     0.8202   0.8220   0.8236   0.8241   0.8401   0.8516   0.8529   0.8539
     0.8565   0.8678   0.8721   0.8758   0.8849   0.8898   0.9001   0.9074
     0.9107   0.9237   0.9408   0.9449   0.9464   0.9609   0.9625   0.9642
     0.9648   0.9765   0.9785   0.9887   0.9925   0.9941   0.9944   0.9989
     1.0000   1.0098   1.0120   1.0167   1.0172   1.0248   1.0263   1.0294
     1.0374   1.0402   1.0416   1.0526   1.0555   1.0597   1.0630   1.0709
     1.0758   1.0807   1.0817   1.0865   1.0874   1.0979   1.0998   1.1048
     1.1088   1.1097   1.1163   1.1267   1.1376   1.1411   1.1436   1.1554
     1.1605   1.1642   1.1669   1.1728   1.1758   1.1784   1.1789   1.1955
     1.1962   1.2027   1.2069   1.2076   1.2097   1.2112   1.2238   1.2257
     1.2275   1.2285   1.2334   1.2354   1.2360   1.2381   1.2531   1.2596
     1.2666   1.2681   1.2770   1.2777   1.2858   1.2872   1.2899   1.2971
     1.3021   1.3071   1.3129   1.3156   1.3177   1.3236   1.3270   1.3294
     1.3332   1.3371   1.3392   1.3428   1.3431   1.3513   1.3621   1.3630
     1.3706   1.3766   1.3814   1.3833   1.3888   1.3901   1.3905   1.3929
     1.3981   1.4090   1.4100   1.4151   1.4197   1.4285   1.4287   1.4487
     1.4505   1.4587   1.4645   1.4680   1.4776   1.4797   1.4868   1.4982
     1.5095   1.5166   1.5296   1.5332   1.5530   1.5562   1.5676   1.5722
     1.5734   1.5772   1.5805   1.5815   1.6031   1.6069   1.6090   1.6172
     1.6220   1.6230   1.6241   1.6252   1.6258   1.6295   1.6323   1.6348
     1.6368   1.6383   1.6413   1.6415   1.6453   1.6466   1.6501   1.6504
     1.6514   1.6517   1.6592   1.6629   1.6812   1.6851   1.6889   1.6899
     1.6922   1.6978   1.6999   1.7035   1.7046   1.7125   1.7162   1.7172
     1.7289   1.7293   1.7351   1.7364   1.7387   1.7390   1.7404   1.7415
     1.7447   1.7458   1.7520   1.7644   1.7788   1.7810   1.7811   1.7844
     1.8008   1.8025   1.8063   1.8083   1.8180   1.8198   1.8224   1.8232
     1.8244   1.8316   1.8390   1.8457   1.8565   1.8572   1.8628   1.8647
     1.8691   1.8806   1.8808   1.8812   1.8841   1.8900   1.8911   1.8922
     1.8958   1.9065   1.9103   1.9116   1.9252   1.9259   1.9273   1.9287
     1.9381   1.9391   1.9397   1.9428   1.9430   1.9434   1.9479   1.9480
     1.9529   1.9544   1.9551   1.9596   1.9608   1.9653   1.9700   1.9723
     1.9737   1.9742   1.9761   1.9779   1.9814   1.9834   1.9907   1.9928
     1.9956   2.0057   2.0073   2.0080   2.0099   2.0145   2.0177   2.0179
     2.0266   2.0269   2.0294   2.0344   2.0352   2.0392   2.0497   2.0503
     2.0520   2.0552   2.0669   2.0680   2.0753   2.0760   2.0939   2.0946
     2.0975   2.0992   2.1023   2.1078   2.1099   2.1100   2.1214   2.1247
     2.1270   2.1311   2.1345   2.1420   2.1737   2.1748   2.1763   2.1769
     2.1819   2.1834   2.2025   2.2034   2.2174   2.2211   2.2232   2.2396
     2.3916   2.3934   2.3964   2.4014   2.4437   2.4483   2.7050   2.7110
     2.9937   3.0008   3.0248   3.0304   3.1243   3.1289   3.1466   3.1472
     3.3485   3.3508   3.3887   3.3906   3.8505   3.8553   4.0114   4.0228
     4.0346   4.0370   4.0441   4.0520   4.1782   4.1789   4.2614   4.2658
     4.4244   4.4452   4.5092   4.5248   4.5254   4.5324   4.6013   4.6059
     4.6230   4.8128   4.8151   4.8212   4.8233   4.9767   5.0335   5.0836
     5.0897   5.1381   5.2240   5.2369   5.2398   5.2866   5.3226   5.3722
     5.3997   5.5052   5.5243   5.5441   5.6013   5.6225   5.6306   5.6341
     5.6510   5.6958   5.7346   5.7389   5.8192   5.8573   6.0326   6.0506
     6.0567   6.0680   6.1158   6.1509   6.1678   6.1726   6.3517   6.3815
     6.3943   6.3991   6.4411   6.4772   6.7837   6.7890   6.8211   6.8262
     7.1383   7.1904   7.2687   7.2733   7.4576   7.4996   7.5008   7.5200
     7.5720   7.5896   7.7266   7.7313   7.7362   7.7405   7.9389   7.9400
     7.9409   7.9426   8.0540   8.1244   8.1490   8.1931   8.1960   8.3556
     8.3985   8.4978   8.5010   8.5485   8.5889   8.6296   8.6362   8.6382
     8.6636   8.6781   8.8611   8.8870   8.9365   8.9699   9.0093   9.0205
     9.2201   9.2299   9.2736   9.3042   9.4141   9.4145   9.4167   9.4175
     9.5027   9.5052   9.5177   9.5203   9.5874   9.5934   9.6049   9.6057
     9.6167   9.6305   9.6547   9.6697   9.7110   9.7294   9.9206   9.9822
    10.0297  10.0510  10.2635  10.2722  10.2792  10.2829  10.3570  10.3593
    10.4880  10.5172  10.5250  10.5326

     the Fermi energy is     3.9181 ev

!    total energy              =  -13679.26046996 Ry
     Harris-Foulkes estimate   =  -13679.26046998 Ry
     estimated scf accuracy    <          5.6E-09 Ry

     The total energy is the sum of the following terms:

     one-electron contribution = -106325.53692576 Ry
     hartree contribution      =   54658.14862706 Ry
     xc contribution           =   -4789.51161183 Ry
     ewald contribution        =   42784.35110335 Ry
     Dispersion Correction     =      -3.10053462 Ry
     smearing contrib. (-TS)   =      -3.61112816 Ry

     convergence has been achieved in  43 iterations

     Writing output data file gc.save
 
     init_run     :    109.93s CPU    116.99s WALL (       1 calls)
     electrons    :  13905.69s CPU  14802.90s WALL (       1 calls)

     Called by init_run:
     wfcinit      :    107.67s CPU    114.43s WALL (       1 calls)
     potinit      :      0.35s CPU      0.37s WALL (       1 calls)

     Called by electrons:
     c_bands      :  12868.33s CPU  13666.16s WALL (      43 calls)
     sum_band     :    873.54s CPU    947.57s WALL (      43 calls)
     v_of_rho     :      2.82s CPU      3.45s WALL (      44 calls)
     newd         :      8.78s CPU     13.85s WALL (      44 calls)
     mix_rho      :    152.10s CPU    171.80s WALL (      43 calls)

     Called by c_bands:
     init_us_2    :     38.96s CPU     39.43s WALL (     522 calls)
     cegterg      :  12695.53s CPU  13486.61s WALL (     265 calls)

     Called by sum_band:
     sum_band:bec :      5.35s CPU      5.91s WALL (     258 calls)
     addusdens    :      8.35s CPU     13.48s WALL (      43 calls)

     Called by *egterg:
     h_psi        :   4418.80s CPU   4765.43s WALL (    1967 calls)
     s_psi        :   1091.70s CPU   1104.53s WALL (    1967 calls)
     g_psi        :     11.03s CPU     11.05s WALL (    1696 calls)
     cdiaghg      :   3929.29s CPU   4077.62s WALL (    1954 calls)

     Called by h_psi:
     add_vuspsi   :   1100.08s CPU   1114.04s WALL (    1967 calls)

     General routines
     calbec       :   1566.64s CPU   1577.80s WALL (    2225 calls)
     fft          :      3.39s CPU      3.92s WALL (     571 calls)
     ffts         :     88.62s CPU    100.22s WALL (   23404 calls)
     fftw         :   2453.89s CPU   2729.91s WALL ( 1357536 calls)
     davcio       :      0.28s CPU      4.00s WALL (       6 calls)
 
     Parallel routines
     fft_scatter  :   1572.83s CPU   1735.71s WALL ( 1381511 calls)
 
     PWSCF        :     3h53m CPU        4h 8m WALL

 
   This run was terminated on:  18:46:54  20Apr2017            

=------------------------------------------------------------------------------=
   JOB DONE.
=------------------------------------------------------------------------------=
