
     Program PWSCF v.5.4.0 starts on 28Dec2016 at 17:28:23 

     This program is part of the open-source Quantum ESPRESSO suite
     for quantum simulation of materials; please cite
         "P. Giannozzi et al., J. Phys.:Condens. Matter 21 395502 (2009);
          URL http://www.quantum-espresso.org", 
     in publications or presentations arising from this work. More details at
     http://www.quantum-espresso.org/quote

     Parallel version (MPI & OpenMP), running on      64 processor cores
     Number of MPI processes:                64
     Threads/MPI process:                     1
     R & G space division:  proc/nbgrp/npool/nimage =      64
     Waiting for input...
     Reading input from standard input

     Current dimensions of program PWSCF are:
     Max number of different atomic species (ntypx) = 10
     Max number of k-points (npk) =  40000
     Max angular momentum in pseudopotentials (lmaxx) =  3
     WARNING: atomic wfc #  2 for atom type 3 has zero norm
     WARNING: atomic wfc #  4 for atom type 3 has zero norm
     WARNING: atomic wfc #  5 for atom type 3 has zero norm

     -------------------------------------
     Parameters for Dispersion Correction:
     -------------------------------------
       atom      VdW radius       C_6     

        Cu         2.952        374.666
        C          2.744         60.710
        O          2.536         24.284

     Subspace diagonalization in iterative solution of the eigenvalue problem:
     one sub-group per band group will be used
     scalapack distributed-memory algorithm (size of sub-group:  5*  5 procs)

 
     Parallelization info
     --------------------
     sticks:   dense  smooth     PW     G-vecs:    dense   smooth      PW
     Min         178     178     47                32032    32032    4341
     Max         179     179     48                32043    32043    4347
     Sum       11433   11433   3039              2050409  2050409  278033
 


     bravais-lattice index     =            0
     lattice parameter (alat)  =      13.9425  a.u.
     unit-cell volume          =   21209.0878 (a.u.)^3
     number of atoms/cell      =          149
     number of atomic types    =            3
     number of electrons       =      1298.00
     number of Kohn-Sham states=          779
     kinetic-energy cutoff     =      80.0000  Ry
     charge density cutoff     =     320.0000  Ry
     convergence threshold     =      1.0E-08
     mixing beta               =       0.7000
     number of iterations used =            8  local-TF  mixing
     Exchange-correlation      =  SLA  PW   PBX  PBC ( 1  4  3  4 0 0)
     nstep                     =           50


     celldm(1)=  13.942539  celldm(2)=   0.000000  celldm(3)=   0.000000
     celldm(4)=   0.000000  celldm(5)=   0.000000  celldm(6)=   0.000000

     crystal axes: (cart. coord. in units of alat)
               a(1) = (   1.000000   0.000000   0.000000 )  
               a(2) = (   0.000000   2.309401   0.000000 )  
               a(3) = (   0.000000   0.000000   3.388418 )  

     reciprocal axes: (cart. coord. in units 2 pi/alat)
               b(1) = (  1.000000  0.000000  0.000000 )  
               b(2) = (  0.000000  0.433013  0.000000 )  
               b(3) = (  0.000000  0.000000  0.295123 )  


     PseudoPot. # 1 for Cu read from file:
     /home/549/hxw549/Short/pseudopotentials/Cu.pbe-n-van_ak.UPF
     MD5 check sum: 601f7c30f7467666bec936e0661ce3e1
     Pseudo is Ultrasoft + core correction, Zval = 11.0
     Generated by new atomic code, or converted to UPF format
     Using radial grid of  867 points,  6 beta functions with: 
                l(1) =   0
                l(2) =   0
                l(3) =   1
                l(4) =   1
                l(5) =   2
                l(6) =   2
     Q(r) pseudized with  8 coefficients,  rinner =    1.400   1.400   1.400
                                                       1.400   1.400

     PseudoPot. # 2 for C  read from file:
     /home/549/hxw549/Short/pseudopotentials/C.pbe-mt_gipaw.UPF
     MD5 check sum: 5ac2f21f2c440b14befe521540822c15
     Pseudo is Norm-conserving, Zval =  4.0
     Generated by new atomic code, or converted to UPF format
     Using radial grid of 1073 points,  1 beta functions with: 
                l(1) =   0

     PseudoPot. # 3 for O  read from file:
     /home/549/hxw549/Short/pseudopotentials/O.pbe-van_gipaw.UPF
     MD5 check sum: 5ce2a047509d4f331db576c963e74b29
     Pseudo is Ultrasoft, Zval =  6.0
     Generated by new atomic code, or converted to UPF format
     Using radial grid of 1095 points,  4 beta functions with: 
                l(1) =   0
                l(2) =   0
                l(3) =   1
                l(4) =   1
     Q(r) pseudized with 0 coefficients 


     atomic species   valence    mass     pseudopotential
        Cu            11.00    63.54600     Cu( 1.00)
        C              4.00    12.01070     C ( 1.00)
        O              6.00    15.99940     O ( 1.00)

     No symmetry found



   Cartesian axes

     site n.     atom                  positions (alat units)
         1           Cu  tau(   1) = (  -0.0000061   0.0000859   0.9974453  )
         2           Cu  tau(   2) = (   0.2499834   0.2309435   0.9974857  )
         3           Cu  tau(   3) = (   0.4999820   0.0000292   0.9973921  )
         4           Cu  tau(   4) = (   0.7499943   0.2309608   0.9975192  )
         5           Cu  tau(   5) = (  -0.0000148   0.4618129   0.9975194  )
         6           Cu  tau(   6) = (   0.2499854   0.6927730   0.9973716  )
         7           Cu  tau(   7) = (   0.4999975   0.4618632   0.9975075  )
         8           Cu  tau(   8) = (   0.7500019   0.6927697   0.9973799  )
         9           Cu  tau(   9) = (  -0.0000106   0.9237787   0.9972545  )
        10           Cu  tau(  10) = (   0.2500158   1.1547493   0.9973328  )
        11           Cu  tau(  11) = (   0.4999952   0.9237374   0.9972820  )
        12           Cu  tau(  12) = (   0.7499663   1.1547437   0.9973571  )
        13           Cu  tau(  13) = (  -0.0000104   1.3856717   0.9974709  )
        14           Cu  tau(  14) = (   0.2499853   1.6165564   0.9975482  )
        15           Cu  tau(  15) = (   0.4999900   1.3856800   0.9975628  )
        16           Cu  tau(  16) = (   0.7499916   1.6165628   0.9975545  )
        17           Cu  tau(  17) = (  -0.0000073   1.8474464   0.9974902  )
        18           Cu  tau(  18) = (   0.2499750   2.0784722   0.9974066  )
        19           Cu  tau(  19) = (   0.4999832   1.8474812   0.9974253  )
        20           Cu  tau(  20) = (   0.7500006   2.0784589   0.9973454  )
        21           Cu  tau(  21) = (   0.0000109   0.2310340   1.2461899  )
        22           Cu  tau(  22) = (   0.2499611   0.0001434   1.2460132  )
        23           Cu  tau(  23) = (   0.4999655   0.2309886   1.2459791  )
        24           Cu  tau(  24) = (   0.7500092   0.0000164   1.2458673  )
        25           Cu  tau(  25) = (   0.0000112   0.6929613   1.2458008  )
        26           Cu  tau(  26) = (   0.2499727   0.4619415   1.2459274  )
        27           Cu  tau(  27) = (   0.5000148   0.6929143   1.2458515  )
        28           Cu  tau(  28) = (   0.7500244   0.4619772   1.2460084  )
        29           Cu  tau(  29) = (   0.0000256   1.1545435   1.2458302  )
        30           Cu  tau(  30) = (   0.2500054   0.9237705   1.2457457  )
        31           Cu  tau(  31) = (   0.4999823   1.1544964   1.2459093  )
        32           Cu  tau(  32) = (   0.7500144   0.9237499   1.2457813  )
        33           Cu  tau(  33) = (   0.0000043   1.6164167   1.2460943  )
        34           Cu  tau(  34) = (   0.2499800   1.3854236   1.2460378  )
        35           Cu  tau(  35) = (   0.4999700   1.6165683   1.2460311  )
        36           Cu  tau(  36) = (   0.7500068   1.3854772   1.2459916  )
        37           Cu  tau(  37) = (   0.0000062   2.0785055   1.2457744  )
        38           Cu  tau(  38) = (   0.2499628   1.8474789   1.2459507  )
        39           Cu  tau(  39) = (   0.4999638   2.0784842   1.2457312  )
        40           Cu  tau(  40) = (   0.7500076   1.8475446   1.2458854  )
        41           Cu  tau(  41) = (   0.0000421  -0.0000984   1.4956486  )
        42           Cu  tau(  42) = (   0.2499623   0.2315383   1.4961046  )
        43           Cu  tau(  43) = (   0.4999233  -0.0000235   1.4954027  )
        44           Cu  tau(  44) = (   0.7500237   0.2310909   1.4955939  )
        45           Cu  tau(  45) = (   0.0001374   0.4625534   1.4958692  )
        46           Cu  tau(  46) = (   0.2500592   0.6931357   1.4956891  )
        47           Cu  tau(  47) = (   0.4999375   0.4622726   1.4956622  )
        48           Cu  tau(  48) = (   0.7501621   0.6931585   1.4957151  )
        49           Cu  tau(  49) = (   0.0001828   0.9236847   1.4959747  )
        50           Cu  tau(  50) = (   0.2499626   1.1539495   1.4960842  )
        51           Cu  tau(  51) = (   0.5000381   0.9235334   1.4959102  )
        52           Cu  tau(  52) = (   0.7502011   1.1541901   1.4957430  )
        53           Cu  tau(  53) = (   0.0000953   1.3849016   1.4959015  )
        54           Cu  tau(  54) = (   0.2498984   1.6162198   1.4957240  )
        55           Cu  tau(  55) = (   0.4999417   1.3851159   1.4955146  )
        56           Cu  tau(  56) = (   0.7500739   1.6163865   1.4955053  )
        57           Cu  tau(  57) = (   0.0000045   1.8475864   1.4954591  )
        58           Cu  tau(  58) = (   0.2499675   2.0785101   1.4955159  )
        59           Cu  tau(  59) = (   0.4999572   1.8477277   1.4954640  )
        60           Cu  tau(  60) = (   0.7499945   2.0785278   1.4955203  )
        61           Cu  tau(  61) = (   0.0002526   0.2313820   1.7443139  )
        62           Cu  tau(  62) = (   0.2500737  -0.0001503   1.7450533  )
        63           Cu  tau(  63) = (   0.4998469   0.2308748   1.7445869  )
        64           Cu  tau(  64) = (   0.7499076  -0.0000485   1.7449958  )
        65           Cu  tau(  65) = (   0.0007880   0.6933814   1.7462931  )
        66           Cu  tau(  66) = (   0.2505091   0.4637436   1.7464953  )
        67           Cu  tau(  67) = (   0.5001093   0.6932142   1.7459778  )
        68           Cu  tau(  68) = (   0.7499111   0.4624311   1.7447734  )
        69           Cu  tau(  69) = (   0.0006026   1.1535406   1.7467850  )
        70           Cu  tau(  70) = (   0.2504681   0.9227611   1.7472317  )
        71           Cu  tau(  71) = (   0.5001426   1.1538995   1.7452058  )
        72           Cu  tau(  72) = (   0.7505891   0.9235710   1.7460410  )
        73           Cu  tau(  73) = (   0.0000939   1.6164061   1.7446895  )
        74           Cu  tau(  74) = (   0.2497645   1.3844234   1.7455021  )
        75           Cu  tau(  75) = (   0.4999242   1.6163742   1.7438986  )
        76           Cu  tau(  76) = (   0.7504900   1.3848341   1.7447937  )
        77           Cu  tau(  77) = (  -0.0000473   2.0782602   1.7454104  )
        78           Cu  tau(  78) = (   0.2498110   1.8476558   1.7448167  )
        79           Cu  tau(  79) = (   0.5000051   2.0786793   1.7453087  )
        80           Cu  tau(  80) = (   0.7501459   1.8475994   1.7447935  )
        81           Cu  tau(  81) = (   0.0000976   0.0007723   1.9906318  )
        82           Cu  tau(  82) = (   0.2501989   0.2313265   1.9903681  )
        83           Cu  tau(  83) = (   0.4999932   0.0000684   1.9922485  )
        84           Cu  tau(  84) = (   0.7502428   0.2309055   1.9904384  )
        85           Cu  tau(  85) = (   0.0001321   0.4622343   1.9898579  )
        86           Cu  tau(  86) = (   0.2538981   0.6929866   1.9986273  )
        87           Cu  tau(  87) = (   0.5010490   0.4602715   1.9915572  )
        88           Cu  tau(  88) = (   0.7488732   0.6926230   1.9918521  )
        89           Cu  tau(  89) = (   0.0018147   0.9218361   1.9937327  )
        90           Cu  tau(  90) = (   0.2511742   1.1538759   1.9943600  )
        91           Cu  tau(  91) = (   0.5011685   0.9247265   1.9937814  )
        92           Cu  tau(  92) = (   0.7507104   1.1545977   1.9924256  )
        93           Cu  tau(  93) = (   0.0005167   1.3857501   1.9918262  )
        94           Cu  tau(  94) = (   0.2497976   1.6164030   1.9902238  )
        95           Cu  tau(  95) = (   0.5002128   1.3859419   1.9895526  )
        96           Cu  tau(  96) = (   0.7503957   1.6162378   1.9900106  )
        97           Cu  tau(  97) = (  -0.0000512   1.8469837   1.9922161  )
        98           Cu  tau(  98) = (   0.2497710   2.0782644   1.9915109  )
        99           Cu  tau(  99) = (   0.5000489   1.8467959   1.9902846  )
       100           Cu  tau( 100) = (   0.7502177   2.0783528   1.9915112  )
       101           C   tau( 101) = (  -0.0003414   0.0959260   2.3891635  )
       102           C   tau( 102) = (  -0.0005311   0.2880372   2.3873265  )
       103           C   tau( 103) = (   0.1664900   0.0000150   2.3880789  )
       104           C   tau( 104) = (   0.1658950   0.3836141   2.3825874  )
       105           C   tau( 105) = (   0.3329823   0.0959316   2.3848192  )
       106           C   tau( 106) = (   0.3328908   0.2882354   2.3817515  )
       107           C   tau( 107) = (   0.4998429  -0.0001390   2.3848829  )
       108           C   tau( 108) = (   0.4998623   0.3845275   2.3796837  )
       109           C   tau( 109) = (   0.6666737   0.0961327   2.3861504  )
       110           C   tau( 110) = (   0.6667355   0.2883844   2.3828119  )
       111           C   tau( 111) = (   0.8331060  -0.0000590   2.3889444  )
       112           C   tau( 112) = (   0.8332675   0.3844924   2.3841002  )
       113           C   tau( 113) = (  -0.0008062   0.6731012   2.3809860  )
       114           C   tau( 114) = (  -0.0004346   0.8662185   2.3749002  )
       115           C   tau( 115) = (   0.1659344   0.5759929   2.3802930  )
       116           C   tau( 116) = (   0.1629216   0.9639019   2.3836376  )
       117           C   tau( 117) = (   0.3320481   0.6697401   2.3818828  )
       118           C   tau( 118) = (   0.3296302   0.8640589   2.4189803  )
       119           C   tau( 119) = (   0.4992644   0.5768075   2.3815121  )
       120           C   tau( 120) = (   0.5027458   0.9640845   2.4216337  )
       121           O   tau( 121) = (   0.4148802   0.9105182   2.5992098  )
       122           C   tau( 122) = (   0.6668673   0.6738861   2.3814228  )
       123           C   tau( 123) = (   0.6694731   0.8650813   2.3841404  )
       124           C   tau( 124) = (   0.8334719   0.5771319   2.3811733  )
       125           C   tau( 125) = (   0.8326020   0.9624951   2.3760151  )
       126           C   tau( 126) = (  -0.0005408   1.2515536   2.3783785  )
       127           C   tau( 127) = (  -0.0002025   1.4441657   2.3791885  )
       128           C   tau( 128) = (   0.1659611   1.1548761   2.3827122  )
       129           C   tau( 129) = (   0.1666509   1.5402873   2.3829992  )
       130           C   tau( 130) = (   0.3337850   1.2519397   2.3879034  )
       131           C   tau( 131) = (   0.3332515   1.4442312   2.3858299  )
       132           C   tau( 132) = (   0.5005739   1.1593011   2.3911037  )
       133           C   tau( 133) = (   0.4998278   1.5404340   2.3872195  )
       134           C   tau( 134) = (   0.6662401   1.2526435   2.3826683  )
       135           C   tau( 135) = (   0.6665454   1.4450373   2.3835040  )
       136           C   tau( 136) = (   0.8333031   1.1555540   2.3784932  )
       137           C   tau( 137) = (   0.8331891   1.5406696   2.3825269  )
       138           C   tau( 138) = (  -0.0000297   1.8288667   2.3851051  )
       139           C   tau( 139) = (  -0.0000613   2.0211271   2.3876375  )
       140           C   tau( 140) = (   0.1667729   1.7325293   2.3857606  )
       141           C   tau( 141) = (   0.1665083   2.1171200   2.3876392  )
       142           C   tau( 142) = (   0.3332856   1.8286704   2.3882715  )
       143           C   tau( 143) = (   0.3333299   2.0209605   2.3877559  )
       144           C   tau( 144) = (   0.4998642   1.7326998   2.3881539  )
       145           C   tau( 145) = (   0.4998585   2.1169691   2.3878980  )
       146           C   tau( 146) = (   0.6664680   1.8286764   2.3882226  )
       147           C   tau( 147) = (   0.6664575   2.0209616   2.3879923  )
       148           C   tau( 148) = (   0.8331465   1.7328249   2.3858388  )
       149           C   tau( 149) = (   0.8332060   2.1170919   2.3878550  )

     number of k points=     6  gaussian smearing, width (Ry)=  0.1000
                       cart. coord. in units 2pi/alat
        k(    1) = (   0.0000000   0.0000000   0.0000000), wk =   0.2500000
        k(    2) = (   0.0000000  -0.2165064   0.0000000), wk =   0.2500000
        k(    3) = (   0.2500000   0.0000000   0.0000000), wk =   0.5000000
        k(    4) = (   0.2500000  -0.2165064   0.0000000), wk =   0.5000000
        k(    5) = (  -0.5000000   0.0000000   0.0000000), wk =   0.2500000
        k(    6) = (  -0.5000000  -0.2165064   0.0000000), wk =   0.2500000

     Dense  grid:  2050409 G-vectors     FFT dimensions: (  80, 192, 270)

     Largest allocated arrays     est. size (Mb)     dimensions
        Kohn-Sham Wavefunctions        47.59 Mb     (    4004,  779)
        NL pseudopotentials           113.39 Mb     (    4004, 1856)
        Each V/rho on FFT grid          1.17 Mb     (   76800)
        Each G-vector array             0.24 Mb     (   32034)
        G-vector shells                 0.12 Mb     (   15554)
     Largest temporary arrays     est. size (Mb)     dimensions
        Auxiliary wavefunctions       190.38 Mb     (    4004, 3116)
        Each subspace H/S matrix        5.92 Mb     (     623,  623)
        Each <psi_i|beta_j> matrix     22.06 Mb     (    1856,  779)
        Arrays for rho mixing           9.38 Mb     (   76800,    8)

     Initial potential from superposition of free atoms
     Check: negative starting charge=   -0.001802

     starting charge 1272.81751, renormalised to 1298.00000

     negative rho (up, down):  1.838E-03 0.000E+00
     Starting wfc are 1288 randomized atomic wfcs

     total cpu time spent up to now is       98.0 secs

     Self-consistent Calculation

     iteration #  1     ecut=    80.00 Ry     beta=0.70
     Davidson diagonalization with overlap
     c_bands:  3 eigenvalues not converged
     ethr =  1.00E-04,  avg # of iterations = 20.8

     negative rho (up, down):  2.732E+01 0.000E+00

     total cpu time spent up to now is     1773.4 secs

     total energy              =   -9507.68195375 Ry
     Harris-Foulkes estimate   =  -17096.26958876 Ry
     estimated scf accuracy    <  177197.60092593 Ry

     iteration #  2     ecut=    80.00 Ry     beta=0.70
     Davidson diagonalization with overlap
     ethr =  1.00E-02,  avg # of iterations = 11.3

     negative rho (up, down):  2.942E+01 0.000E+00

     total cpu time spent up to now is     2667.9 secs

     total energy              =  -12383.10303675 Ry
     Harris-Foulkes estimate   =  -13610.24061394 Ry
     estimated scf accuracy    <   16418.24873328 Ry

     iteration #  3     ecut=    80.00 Ry     beta=0.70
     Davidson diagonalization with overlap
     ethr =  1.00E-02,  avg # of iterations =  7.2

     negative rho (up, down):  3.138E+01 0.000E+00

     total cpu time spent up to now is     3274.7 secs

     total energy              =  -12513.89315420 Ry
     Harris-Foulkes estimate   =  -13336.32853585 Ry
     estimated scf accuracy    <    6100.60650444 Ry

     iteration #  4     ecut=    80.00 Ry     beta=0.70
     Davidson diagonalization with overlap
     ethr =  1.00E-02,  avg # of iterations =  5.2

     negative rho (up, down):  2.834E+01 0.000E+00

     total cpu time spent up to now is     3796.7 secs

     total energy              =  -12855.32397330 Ry
     Harris-Foulkes estimate   =  -13159.92951766 Ry
     estimated scf accuracy    <    6547.95641562 Ry

     iteration #  5     ecut=    80.00 Ry     beta=0.70
     Davidson diagonalization with overlap
     ethr =  1.00E-02,  avg # of iterations =  5.2

     negative rho (up, down):  1.923E+01 0.000E+00

     total cpu time spent up to now is     4170.4 secs

     total energy              =  -12872.46465851 Ry
     Harris-Foulkes estimate   =  -13052.05927374 Ry
     estimated scf accuracy    <    1004.97494770 Ry

     iteration #  6     ecut=    80.00 Ry     beta=0.70
     Davidson diagonalization with overlap
     ethr =  1.00E-02,  avg # of iterations =  3.0

     negative rho (up, down):  1.150E+01 0.000E+00

     total cpu time spent up to now is     4395.9 secs

     total energy              =  -12861.76812580 Ry
     Harris-Foulkes estimate   =  -12934.16075459 Ry
     estimated scf accuracy    <     719.10108573 Ry

     iteration #  7     ecut=    80.00 Ry     beta=0.70
     Davidson diagonalization with overlap
     ethr =  1.00E-02,  avg # of iterations =  2.0

     negative rho (up, down):  8.448E+00 0.000E+00

     total cpu time spent up to now is     4565.4 secs

     total energy              =  -12841.45075990 Ry
     Harris-Foulkes estimate   =  -12872.06420725 Ry
     estimated scf accuracy    <     678.47418992 Ry

     iteration #  8     ecut=    80.00 Ry     beta=0.70
     Davidson diagonalization with overlap
     ethr =  1.00E-02,  avg # of iterations =  1.3

     negative rho (up, down):  6.731E+00 0.000E+00

     total cpu time spent up to now is     4720.4 secs

     total energy              =  -12824.34816363 Ry
     Harris-Foulkes estimate   =  -12844.79792052 Ry
     estimated scf accuracy    <     346.98549144 Ry

     iteration #  9     ecut=    80.00 Ry     beta=0.70
     Davidson diagonalization with overlap
     ethr =  1.00E-02,  avg # of iterations =  1.7

     negative rho (up, down):  3.990E+00 0.000E+00

     total cpu time spent up to now is     4879.6 secs

     total energy              =  -12794.78728831 Ry
     Harris-Foulkes estimate   =  -12827.41282160 Ry
     estimated scf accuracy    <     340.13991296 Ry

     iteration # 10     ecut=    80.00 Ry     beta=0.70
     Davidson diagonalization with overlap
     ethr =  1.00E-02,  avg # of iterations =  1.3

     negative rho (up, down):  1.041E+00 0.000E+00

     total cpu time spent up to now is     5034.5 secs

     total energy              =  -12755.16628165 Ry
     Harris-Foulkes estimate   =  -12799.54231305 Ry
     estimated scf accuracy    <     199.92290702 Ry

     iteration # 11     ecut=    80.00 Ry     beta=0.70
     Davidson diagonalization with overlap
     ethr =  1.00E-02,  avg # of iterations =  4.0

     negative rho (up, down):  1.979E+00 0.000E+00

     total cpu time spent up to now is     5226.5 secs

     total energy              =  -12749.22574829 Ry
     Harris-Foulkes estimate   =  -12764.27947974 Ry
     estimated scf accuracy    <      73.78917162 Ry

     iteration # 12     ecut=    80.00 Ry     beta=0.70
     Davidson diagonalization with overlap
     ethr =  5.68E-03,  avg # of iterations =  2.5

     negative rho (up, down):  1.469E+00 0.000E+00

     total cpu time spent up to now is     5397.3 secs

     total energy              =  -12745.67534418 Ry
     Harris-Foulkes estimate   =  -12754.72785043 Ry
     estimated scf accuracy    <      61.92959595 Ry

     iteration # 13     ecut=    80.00 Ry     beta=0.70
     Davidson diagonalization with overlap
     ethr =  4.77E-03,  avg # of iterations =  2.2

     negative rho (up, down):  5.413E+00 0.000E+00

     total cpu time spent up to now is     5562.7 secs

     total energy              =  -12737.68527450 Ry
     Harris-Foulkes estimate   =  -12750.63330889 Ry
     estimated scf accuracy    <      47.13088228 Ry

     iteration # 14     ecut=    80.00 Ry     beta=0.70
     Davidson diagonalization with overlap
     ethr =  3.63E-03,  avg # of iterations =  2.5

     negative rho (up, down):  6.344E+00 0.000E+00

     total cpu time spent up to now is     5732.1 secs

     total energy              =  -12736.94831479 Ry
     Harris-Foulkes estimate   =  -12742.70774119 Ry
     estimated scf accuracy    <      33.96307900 Ry

     iteration # 15     ecut=    80.00 Ry     beta=0.70
     Davidson diagonalization with overlap
     ethr =  2.62E-03,  avg # of iterations =  3.7

     negative rho (up, down):  5.015E+00 0.000E+00

     total cpu time spent up to now is     5917.3 secs

     total energy              =  -12737.75670471 Ry
     Harris-Foulkes estimate   =  -12739.00323957 Ry
     estimated scf accuracy    <      13.01361232 Ry

     iteration # 16     ecut=    80.00 Ry     beta=0.70
     Davidson diagonalization with overlap
     ethr =  1.00E-03,  avg # of iterations =  8.2

     negative rho (up, down):  4.143E+00 0.000E+00

     total cpu time spent up to now is     6156.9 secs

     total energy              =  -12736.71490735 Ry
     Harris-Foulkes estimate   =  -12737.92656031 Ry
     estimated scf accuracy    <       9.58287215 Ry

     iteration # 17     ecut=    80.00 Ry     beta=0.70
     Davidson diagonalization with overlap
     ethr =  7.38E-04,  avg # of iterations =  2.3

     negative rho (up, down):  2.759E+00 0.000E+00

     total cpu time spent up to now is     6323.6 secs

     total energy              =  -12735.20179143 Ry
     Harris-Foulkes estimate   =  -12736.84758762 Ry
     estimated scf accuracy    <       8.91204499 Ry

     iteration # 18     ecut=    80.00 Ry     beta=0.70
     Davidson diagonalization with overlap
     c_bands:  2 eigenvalues not converged
     ethr =  6.87E-04,  avg # of iterations =  6.5

     negative rho (up, down):  2.051E+00 0.000E+00

     total cpu time spent up to now is     6539.8 secs

     total energy              =  -12734.29748526 Ry
     Harris-Foulkes estimate   =  -12735.33473667 Ry
     estimated scf accuracy    <       7.77913122 Ry

     iteration # 19     ecut=    80.00 Ry     beta=0.70
     Davidson diagonalization with overlap
     ethr =  5.99E-04,  avg # of iterations =  4.2

     negative rho (up, down):  1.391E+00 0.000E+00

     total cpu time spent up to now is     6728.2 secs

     total energy              =  -12733.70896567 Ry
     Harris-Foulkes estimate   =  -12734.40509002 Ry
     estimated scf accuracy    <       6.39524868 Ry

     iteration # 20     ecut=    80.00 Ry     beta=0.70
     Davidson diagonalization with overlap
     ethr =  4.93E-04,  avg # of iterations =  3.7

     negative rho (up, down):  7.863E-01 0.000E+00

     total cpu time spent up to now is     6911.3 secs

     total energy              =  -12731.20477641 Ry
     Harris-Foulkes estimate   =  -12733.86477091 Ry
     estimated scf accuracy    <       4.96941135 Ry

     iteration # 21     ecut=    80.00 Ry     beta=0.70
     Davidson diagonalization with overlap
     ethr =  3.83E-04,  avg # of iterations =  6.0

     negative rho (up, down):  1.028E+00 0.000E+00

     total cpu time spent up to now is     7125.1 secs

     total energy              =  -12730.98976164 Ry
     Harris-Foulkes estimate   =  -12731.38702846 Ry
     estimated scf accuracy    <       4.39025434 Ry

     iteration # 22     ecut=    80.00 Ry     beta=0.70
     Davidson diagonalization with overlap
     ethr =  3.38E-04,  avg # of iterations =  7.5

     negative rho (up, down):  8.136E-01 0.000E+00

     total cpu time spent up to now is     7357.0 secs

     total energy              =  -12730.60361245 Ry
     Harris-Foulkes estimate   =  -12731.06747833 Ry
     estimated scf accuracy    <       1.88326720 Ry

     iteration # 23     ecut=    80.00 Ry     beta=0.70
     Davidson diagonalization with overlap
     ethr =  1.45E-04,  avg # of iterations = 10.5

     negative rho (up, down):  7.456E-01 0.000E+00

     total cpu time spent up to now is     7643.5 secs

     total energy              =  -12730.62129924 Ry
     Harris-Foulkes estimate   =  -12730.72534477 Ry
     estimated scf accuracy    <       0.68996628 Ry

     iteration # 24     ecut=    80.00 Ry     beta=0.70
     Davidson diagonalization with overlap
     ethr =  5.32E-05,  avg # of iterations = 11.5

     negative rho (up, down):  7.447E-01 0.000E+00

     total cpu time spent up to now is     7930.6 secs

     total energy              =  -12730.59031236 Ry
     Harris-Foulkes estimate   =  -12730.67052560 Ry
     estimated scf accuracy    <       0.40023805 Ry

     iteration # 25     ecut=    80.00 Ry     beta=0.70
     Davidson diagonalization with overlap
     ethr =  3.08E-05,  avg # of iterations =  8.7

     negative rho (up, down):  4.551E-01 0.000E+00

     total cpu time spent up to now is     8197.5 secs

     total energy              =  -12730.58918487 Ry
     Harris-Foulkes estimate   =  -12730.61644092 Ry
     estimated scf accuracy    <       0.12894008 Ry

     iteration # 26     ecut=    80.00 Ry     beta=0.70
     Davidson diagonalization with overlap
     c_bands:  1 eigenvalues not converged
     c_bands:  1 eigenvalues not converged
     c_bands:  2 eigenvalues not converged
     ethr =  9.93E-06,  avg # of iterations = 14.3

     negative rho (up, down):  3.044E-01 0.000E+00

     total cpu time spent up to now is     8533.1 secs

     total energy              =  -12730.58447153 Ry
     Harris-Foulkes estimate   =  -12730.59615838 Ry
     estimated scf accuracy    <       0.06368475 Ry

     iteration # 27     ecut=    80.00 Ry     beta=0.70
     Davidson diagonalization with overlap
     ethr =  4.91E-06,  avg # of iterations = 10.8

     negative rho (up, down):  1.603E-01 0.000E+00

     total cpu time spent up to now is     8839.1 secs

     total energy              =  -12730.57964936 Ry
     Harris-Foulkes estimate   =  -12730.58852597 Ry
     estimated scf accuracy    <       0.02082115 Ry

     iteration # 28     ecut=    80.00 Ry     beta=0.70
     Davidson diagonalization with overlap
     c_bands:  1 eigenvalues not converged
     ethr =  1.60E-06,  avg # of iterations = 14.8

     negative rho (up, down):  7.023E-02 0.000E+00

     total cpu time spent up to now is     9204.4 secs

     total energy              =  -12730.57704979 Ry
     Harris-Foulkes estimate   =  -12730.58181412 Ry
     estimated scf accuracy    <       0.00758394 Ry

     iteration # 29     ecut=    80.00 Ry     beta=0.70
     Davidson diagonalization with overlap
     c_bands:  1 eigenvalues not converged
     c_bands:  3 eigenvalues not converged
     c_bands:  5 eigenvalues not converged
     ethr =  5.84E-07,  avg # of iterations = 16.7

     negative rho (up, down):  2.426E-02 0.000E+00

     total cpu time spent up to now is     9588.1 secs

     total energy              =  -12730.57698988 Ry
     Harris-Foulkes estimate   =  -12730.57785095 Ry
     estimated scf accuracy    <       0.00177287 Ry

     iteration # 30     ecut=    80.00 Ry     beta=0.70
     Davidson diagonalization with overlap
     c_bands:  1 eigenvalues not converged
     c_bands:  2 eigenvalues not converged
     ethr =  1.37E-07,  avg # of iterations = 15.8

     negative rho (up, down):  1.348E-02 0.000E+00

     total cpu time spent up to now is     9953.6 secs

     total energy              =  -12730.57709803 Ry
     Harris-Foulkes estimate   =  -12730.57715609 Ry
     estimated scf accuracy    <       0.00030923 Ry

     iteration # 31     ecut=    80.00 Ry     beta=0.70
     Davidson diagonalization with overlap
     ethr =  2.38E-08,  avg # of iterations = 10.2

     negative rho (up, down):  8.619E-03 0.000E+00

     total cpu time spent up to now is    10240.5 secs

     total energy              =  -12730.57707221 Ry
     Harris-Foulkes estimate   =  -12730.57713248 Ry
     estimated scf accuracy    <       0.00009821 Ry

     iteration # 32     ecut=    80.00 Ry     beta=0.70
     Davidson diagonalization with overlap
     ethr =  7.57E-09,  avg # of iterations = 10.0

     negative rho (up, down):  5.381E-03 0.000E+00

     total cpu time spent up to now is    10515.8 secs

     total energy              =  -12730.57703990 Ry
     Harris-Foulkes estimate   =  -12730.57707930 Ry
     estimated scf accuracy    <       0.00003278 Ry

     iteration # 33     ecut=    80.00 Ry     beta=0.70
     Davidson diagonalization with overlap
     c_bands:  1 eigenvalues not converged
     ethr =  2.53E-09,  avg # of iterations =  8.8

     negative rho (up, down):  3.356E-03 0.000E+00

     total cpu time spent up to now is    10788.6 secs

     total energy              =  -12730.57701836 Ry
     Harris-Foulkes estimate   =  -12730.57704367 Ry
     estimated scf accuracy    <       0.00002143 Ry

     iteration # 34     ecut=    80.00 Ry     beta=0.70
     Davidson diagonalization with overlap
     c_bands:  1 eigenvalues not converged
     ethr =  1.65E-09,  avg # of iterations = 10.3

     negative rho (up, down):  2.273E-03 0.000E+00

     total cpu time spent up to now is    11064.2 secs

     total energy              =  -12730.57700901 Ry
     Harris-Foulkes estimate   =  -12730.57702027 Ry
     estimated scf accuracy    <       0.00000447 Ry

     iteration # 35     ecut=    80.00 Ry     beta=0.70
     Davidson diagonalization with overlap
     ethr =  3.44E-10,  avg # of iterations =  7.5

     negative rho (up, down):  1.984E-03 0.000E+00

     total cpu time spent up to now is    11320.2 secs

     total energy              =  -12730.57700878 Ry
     Harris-Foulkes estimate   =  -12730.57700963 Ry
     estimated scf accuracy    <       0.00000127 Ry

     iteration # 36     ecut=    80.00 Ry     beta=0.70
     Davidson diagonalization with overlap
     ethr =  9.81E-11,  avg # of iterations =  2.7

     negative rho (up, down):  1.869E-03 0.000E+00

     total cpu time spent up to now is    11507.2 secs

     total energy              =  -12730.57700891 Ry
     Harris-Foulkes estimate   =  -12730.57700894 Ry
     estimated scf accuracy    <       0.00000037 Ry

     iteration # 37     ecut=    80.00 Ry     beta=0.70
     Davidson diagonalization with overlap
     ethr =  2.85E-11,  avg # of iterations =  2.7

     negative rho (up, down):  1.875E-03 0.000E+00

     total cpu time spent up to now is    11697.7 secs

     total energy              =  -12730.57700910 Ry
     Harris-Foulkes estimate   =  -12730.57700896 Ry
     estimated scf accuracy    <       0.00000014 Ry

     iteration # 38     ecut=    80.00 Ry     beta=0.70
     Davidson diagonalization with overlap
     ethr =  1.11E-11,  avg # of iterations =  3.0

     negative rho (up, down):  1.908E-03 0.000E+00

     total cpu time spent up to now is    11883.0 secs

     total energy              =  -12730.57700916 Ry
     Harris-Foulkes estimate   =  -12730.57700911 Ry
     estimated scf accuracy    <       0.00000005 Ry

     iteration # 39     ecut=    80.00 Ry     beta=0.70
     Davidson diagonalization with overlap
     ethr =  3.76E-12,  avg # of iterations =  3.0

     negative rho (up, down):  1.929E-03 0.000E+00

     total cpu time spent up to now is    12083.8 secs

     total energy              =  -12730.57700920 Ry
     Harris-Foulkes estimate   =  -12730.57700916 Ry
     estimated scf accuracy    <       0.00000004 Ry

     iteration # 40     ecut=    80.00 Ry     beta=0.70
     Davidson diagonalization with overlap
     ethr =  2.99E-12,  avg # of iterations =  3.0

     negative rho (up, down):  1.909E-03 0.000E+00

     total cpu time spent up to now is    12258.6 secs

     End of self-consistent calculation

          k = 0.0000 0.0000 0.0000 (256287 PWs)   bands (ev):

   -18.7730 -16.0547 -15.7497 -15.4972 -14.6352 -14.5246 -14.1578 -14.0696
   -13.8089 -13.7941 -13.7837 -13.4299 -12.8312 -12.8133 -12.7419 -12.7199
   -12.7125 -12.1160 -11.0468 -11.0241 -11.0215 -10.9131 -10.5261  -9.8343
    -9.1693  -9.1518  -9.1425  -8.9912  -8.3109  -8.2712  -8.2634  -8.1768
    -7.3199  -7.2671  -7.2493  -7.2199  -7.1941  -7.1919  -7.1827  -7.1455
    -5.7542  -5.7462  -5.7185  -5.6557  -5.6354  -5.5338  -5.5087  -5.5001
    -5.4554  -5.2211  -5.2175  -4.8153  -4.4399  -4.4204  -4.3686  -4.3395
    -4.2559  -4.0759  -4.0528  -3.8595  -3.7956  -3.7235  -3.7214  -3.3759
    -3.3336  -3.2292  -3.1884  -3.1432  -3.1425  -3.0885  -3.0646  -3.0250
    -2.9626  -2.9447  -2.9124  -2.8132  -2.7901  -2.7435  -2.7418  -2.7384
    -2.7222  -2.6913  -2.5748  -2.5600  -2.4805  -2.4764  -2.4530  -2.4107
    -2.3889  -2.3681  -2.3591  -2.3075  -2.1122  -2.1031  -2.0927  -2.0831
    -2.0418  -1.9658  -1.9267  -1.9255  -1.9018  -1.8859  -1.8859  -1.8855
    -1.8847  -1.7911  -1.7869  -1.7561  -1.7554  -1.7536  -1.7528  -1.6945
    -1.6783  -1.6323  -1.5745  -1.5091  -1.4883  -1.4718  -1.4709  -1.4699
    -1.4437  -1.4280  -1.4139  -1.4038  -1.3907  -1.3884  -1.3343  -1.3333
    -1.3081  -1.2991  -1.2966  -1.2960  -1.2668  -1.2648  -1.2622  -1.2474
    -1.2461  -1.2365  -1.1925  -1.1722  -1.1663  -1.1485  -1.1159  -1.1122
    -1.0919  -1.0844  -1.0647  -1.0303  -0.9964  -0.9953  -0.9816  -0.9715
    -0.9434  -0.9424  -0.9231  -0.9211  -0.8984  -0.8962  -0.8780  -0.8579
    -0.8517  -0.8290  -0.8174  -0.7852  -0.7792  -0.7730  -0.7686  -0.7619
    -0.7555  -0.7551  -0.7546  -0.7525  -0.7481  -0.7476  -0.7387  -0.7305
    -0.7100  -0.6937  -0.6842  -0.6710  -0.6601  -0.6575  -0.6525  -0.6512
    -0.6489  -0.6377  -0.5914  -0.5910  -0.5887  -0.5878  -0.5871  -0.5862
    -0.5854  -0.5849  -0.5838  -0.5817  -0.5795  -0.5794  -0.5777  -0.5734
    -0.5731  -0.5638  -0.5626  -0.5317  -0.5173  -0.5119  -0.4224  -0.4210
    -0.4143  -0.4136  -0.3948  -0.3925  -0.3737  -0.3734  -0.3659  -0.3564
    -0.3533  -0.3497  -0.3414  -0.3335  -0.3328  -0.3282  -0.3208  -0.2968
    -0.2961  -0.2936  -0.2931  -0.2862  -0.2857  -0.2754  -0.2747  -0.2252
    -0.2235  -0.1787  -0.1698  -0.1695  -0.1615  -0.1594  -0.1580  -0.1565
    -0.1440  -0.1424  -0.1374  -0.1363  -0.1361  -0.1350  -0.1323  -0.1318
    -0.1169  -0.1167  -0.1091  -0.1082  -0.1063  -0.0826  -0.0818  -0.0662
    -0.0323  -0.0314  -0.0275  -0.0236  -0.0234   0.0028   0.0030   0.0039
     0.0042   0.0171   0.0193   0.0240   0.0255   0.0256   0.0435   0.0473
     0.0483   0.0508   0.0524   0.0527   0.0534   0.0562   0.0572   0.0592
     0.0721   0.0770   0.0772   0.0783   0.0802   0.1006   0.1457   0.1472
     0.1489   0.1497   0.1507   0.1836   0.1966   0.1984   0.1994   0.1999
     0.2053   0.2058   0.2069   0.2077   0.2081   0.2220   0.2374   0.2564
     0.2589   0.2603   0.2622   0.2703   0.2875   0.2884   0.2889   0.2919
     0.2948   0.2991   0.3139   0.3142   0.3145   0.3150   0.3178   0.3189
     0.3301   0.3308   0.3313   0.3316   0.3399   0.3433   0.3477   0.3556
     0.3643   0.3707   0.3730   0.4029   0.4036   0.4289   0.4299   0.4318
     0.4494   0.4553   0.4610   0.5040   0.5057   0.5061   0.5087   0.5105
     0.5136   0.5355   0.5368   0.5393   0.5409   0.5417   0.5430   0.5485
     0.5536   0.5831   0.5958   0.6065   0.6070   0.6151   0.6170   0.6190
     0.6207   0.6454   0.6496   0.6506   0.6513   0.6514   0.6796   0.6840
     0.6871   0.6890   0.6994   0.7032   0.7067   0.7074   0.7134   0.7421
     0.7448   0.7598   0.7627   0.7639   0.7661   0.7667   0.7761   0.7912
     0.7951   0.7995   0.8009   0.8018   0.8030   0.8034   0.8050   0.8062
     0.8131   0.8157   0.8182   0.8213   0.8228   0.8239   0.8302   0.8320
     0.8643   0.8686   0.8714   0.8715   0.8790   0.8868   0.9136   0.9156
     0.9158   0.9183   0.9201   0.9211   0.9214   0.9235   0.9270   0.9333
     0.9396   0.9449   0.9465   0.9469   0.9481   0.9545   0.9547   0.9577
     0.9631   0.9679   0.9857   0.9880   0.9900   0.9920   0.9953   1.0017
     1.0091   1.0117   1.0132   1.0132   1.0139   1.0191   1.0232   1.0239
     1.0287   1.0361   1.0718   1.0730   1.0745   1.0850   1.0852   1.0893
     1.0907   1.0917   1.0945   1.1219   1.1236   1.1283   1.1387   1.1438
     1.1440   1.1459   1.1575   1.1582   1.1659   1.1674   1.1684   1.1700
     1.1765   1.1808   1.1899   1.2059   1.2073   1.2096   1.2101   1.2112
     1.2135   1.2279   1.2373   1.2453   1.2535   1.2539   1.2648   1.2655
     1.2773   1.2783   1.2796   1.2803   1.2821   1.2846   1.2908   1.2919
     1.2941   1.2963   1.2971   1.2984   1.3090   1.3093   1.3167   1.3271
     1.3321   1.3326   1.3341   1.3390   1.3423   1.3601   1.3720   1.3729
     1.3739   1.3783   1.3797   1.3808   1.3823   1.3834   1.3841   1.3845
     1.3860   1.3883   1.3999   1.4016   1.4088   1.4114   1.4245   1.4340
     1.4502   1.4519   1.4678   1.4695   1.4707   1.4721   1.4723   1.4763
     1.4822   1.4916   1.5036   1.5054   1.5066   1.5083   1.5091   1.5109
     1.5120   1.5147   1.5231   1.5281   1.5395   1.5408   1.5415   1.5428
     1.5440   1.5453   1.5460   1.5483   1.5602   1.5618   1.5621   1.5630
     1.5692   1.5770   1.5778   1.5785   1.5795   1.5795   1.5882   1.5912
     1.5927   1.6056   1.6097   1.6213   1.6227   1.6236   1.6275   1.6281
     1.6350   1.6502   1.6516   1.6548   1.6556   1.6597   1.6660   1.6716
     1.6818   1.6837   1.6875   1.6901   1.6902   1.7013   1.7021   1.7024
     1.7032   1.7033   1.7047   1.7058   1.7108   1.7140   1.7170   1.7178
     1.7334   1.7335   1.7343   1.7345   1.7392   1.7411   1.7467   1.7482
     1.7655   1.7856   1.7871   1.7894   1.8222   1.8240   1.8273   1.8298
     1.8470   1.8485   1.8490   1.8544   1.8582   1.8749   1.8830   1.8958
     1.8990   1.8999   1.9006   1.9102   1.9107   1.9121   1.9166   2.1672
     2.2222   2.3686   2.3757   2.4062   2.4195   2.4653   2.4735   2.4741
     2.4754   2.4858   2.4932   2.4950   2.5056   2.6561   2.6697   2.7046
     2.7336   2.7339   2.7365   2.7431   2.7480   2.9005   2.9844   2.9875
     2.9987   3.0156   3.3609   3.3765   3.4107   3.7009   3.7828   3.7869
     4.0708   4.0828   4.1095   4.1155   4.1187   4.1267   4.1860   4.2160
     4.2307   4.2336   4.2677   4.2722   4.2740   4.2754   4.2768   4.2813
     4.4518   4.5129   4.5141   4.5149   4.6355   4.7451   4.9563   5.0306
     5.2331   5.2640   5.5605   5.5785   5.6573   5.6646   5.7367   5.9323
     5.9627   5.9738   5.9922   6.1583   6.1984   6.2774   6.5979   6.6094
     6.6727   6.6739   6.7305   6.7349   6.7407   6.7545   6.8953   6.9042
     6.9509   6.9665   7.0525   7.0624   7.1115   7.1489   7.2670   7.3018
     7.3157   7.3485   7.3697   7.3845   7.4885   7.5586   7.6221   7.6264
     7.7893   7.7936   7.9193   7.9535   7.9581   7.9648   7.9824   7.9874
     8.0253   8.2063   8.3984   8.4501   8.4803   8.5250   8.5435   8.5457
     8.5577   8.6019   8.6021   8.6566   8.6616   8.6862   8.6940   8.8174
     8.8621   8.8689   8.8728   8.9105   8.9137   8.9152   8.9381   9.0846
     9.0947   9.0954   9.1063   9.1178   9.3204   9.3494   9.3578   9.3584
     9.3612   9.3704   9.3797   9.4040   9.4856   9.5089   9.5908   9.6072
     9.6128   9.8401   9.8447   9.8792  10.0885  10.0945  10.0998  10.1447
    10.1624  10.3071  10.3182

          k = 0.0000-0.2165 0.0000 (256176 PWs)   bands (ev):

   -18.7730 -16.0392 -15.8274 -15.2808 -15.0703 -14.0813 -14.0776 -14.0533
   -13.9427 -13.8157 -13.6440 -13.3653 -13.3390 -13.3328 -12.8235 -11.9564
   -11.9466 -11.9315 -11.8271 -11.7144 -11.2787 -10.0563 -10.0356 -10.0303
    -9.8230  -8.8077  -8.7750  -8.6556  -8.6420  -8.6265  -8.5104  -7.8610
    -7.8098  -7.7972  -7.7322  -6.6644  -6.6444  -6.6327  -6.6055  -6.5531
    -6.4758  -6.4712  -6.4597  -5.6880  -5.6679  -5.6208  -5.6166  -4.9503
    -4.9349  -4.8242  -4.8115  -4.7167  -4.6682  -4.5747  -4.5721  -4.3436
    -4.3244  -4.2764  -4.2455  -4.2116  -4.1332  -3.7685  -3.7066  -3.3274
    -3.2671  -3.1812  -3.0513  -3.0398  -3.0391  -3.0325  -2.9693  -2.9284
    -2.8364  -2.8143  -2.8008  -2.7950  -2.7645  -2.7618  -2.6983  -2.6605
    -2.5995  -2.5727  -2.5243  -2.5119  -2.4526  -2.3614  -2.3522  -2.3326
    -2.3284  -2.3151  -2.3132  -2.3125  -2.3124  -2.2509  -2.2493  -2.1773
    -2.0582  -2.0457  -1.9953  -1.9908  -1.9795  -1.9761  -1.9241  -1.8867
    -1.8788  -1.8774  -1.8714  -1.7748  -1.7294  -1.7194  -1.7194  -1.6937
    -1.6936  -1.6813  -1.6016  -1.6007  -1.5420  -1.5021  -1.5002  -1.4975
    -1.4906  -1.4835  -1.4821  -1.4746  -1.4745  -1.4560  -1.4531  -1.3993
    -1.3788  -1.3757  -1.3531  -1.2788  -1.2766  -1.2047  -1.2038  -1.1980
    -1.1977  -1.1189  -1.1122  -1.1038  -1.1032  -1.0523  -1.0490  -1.0459
    -1.0283  -1.0117  -1.0109  -1.0068  -1.0062  -1.0053  -1.0020  -0.9881
    -0.9801  -0.9658  -0.9619  -0.9583  -0.9569  -0.9562  -0.9479  -0.9423
    -0.8771  -0.8741  -0.8694  -0.8688  -0.8623  -0.8207  -0.8203  -0.7823
    -0.7818  -0.7790  -0.7786  -0.7545  -0.7386  -0.7348  -0.7169  -0.7161
    -0.7142  -0.7111  -0.7101  -0.7092  -0.6603  -0.6585  -0.6513  -0.6509
    -0.6444  -0.6435  -0.6325  -0.6302  -0.6299  -0.6220  -0.5629  -0.5611
    -0.5540  -0.5509  -0.5490  -0.5476  -0.5422  -0.5303  -0.5287  -0.5181
    -0.5129  -0.5125  -0.4869  -0.4860  -0.4852  -0.4821  -0.3878  -0.3876
    -0.3840  -0.3826  -0.3756  -0.3647  -0.3640  -0.3381  -0.3379  -0.3370
    -0.3365  -0.3328  -0.3325  -0.3091  -0.3080  -0.2748  -0.2747  -0.2740
    -0.2718  -0.2701  -0.2683  -0.2676  -0.2658  -0.2368  -0.2361  -0.2170
    -0.2170  -0.2146  -0.2127  -0.1813  -0.1803  -0.1796  -0.1792  -0.1699
    -0.1691  -0.1661  -0.1658  -0.1634  -0.1286  -0.0919  -0.0913  -0.0870
    -0.0868  -0.0632  -0.0570  -0.0408  -0.0364  -0.0353  -0.0299  -0.0291
    -0.0262  -0.0191  -0.0132  -0.0023  -0.0010  -0.0006  -0.0000   0.0102
     0.0173   0.0177   0.0210   0.0220   0.0226   0.0244   0.0250   0.0294
     0.0316   0.0342   0.0508   0.0613   0.0614   0.0633   0.0638   0.1248
     0.1254   0.1269   0.1271   0.1340   0.1354   0.1373   0.1386   0.1414
     0.1493   0.1571   0.1632   0.1707   0.1758   0.1794   0.1795   0.1807
     0.1888   0.1895   0.1924   0.1929   0.1944   0.1950   0.2140   0.2494
     0.2503   0.2518   0.2522   0.2557   0.2706   0.2716   0.2728   0.2743
     0.2785   0.2828   0.2892   0.2951   0.2966   0.2973   0.3023   0.3061
     0.3253   0.3271   0.3335   0.3425   0.3428   0.3432   0.3446   0.3612
     0.3643   0.3790   0.3794   0.3874   0.3887   0.3983   0.4002   0.4017
     0.4020   0.4290   0.4462   0.4465   0.4526   0.4542   0.4623   0.4650
     0.4707   0.4716   0.4952   0.4964   0.5305   0.5326   0.5342   0.5351
     0.5657   0.5729   0.6032   0.6501   0.6516   0.6525   0.6557   0.6657
     0.6715   0.6773   0.6793   0.6808   0.6811   0.6957   0.7162   0.7181
     0.7197   0.7207   0.7220   0.7230   0.7236   0.7269   0.7340   0.7403
     0.7426   0.7447   0.7453   0.7463   0.7485   0.7523   0.7547   0.7713
     0.7828   0.7845   0.7925   0.7936   0.7938   0.7948   0.8011   0.8012
     0.8165   0.8233   0.8245   0.8247   0.8250   0.8259   0.8261   0.8272
     0.8313   0.8476   0.8476   0.8487   0.8491   0.8507   0.8528   0.8548
     0.8553   0.8663   0.8699   0.8828   0.9124   0.9133   0.9238   0.9242
     0.9340   0.9355   0.9369   0.9375   0.9388   0.9417   0.9430   0.9437
     0.9480   0.9481   0.9492   0.9554   0.9893   0.9916   0.9919   0.9925
     1.0032   1.0090   1.0096   1.0103   1.0118   1.0157   1.0232   1.0249
     1.0418   1.0421   1.0447   1.0485   1.0493   1.0525   1.1006   1.1016
     1.1366   1.1517   1.1557   1.1603   1.1615   1.1622   1.1699   1.1708
     1.1769   1.1779   1.1802   1.1832   1.1848   1.1916   1.1927   1.1944
     1.1994   1.2040   1.2063   1.2076   1.2082   1.2092   1.2155   1.2205
     1.2274   1.2312   1.2314   1.2343   1.2351   1.2368   1.2379   1.2382
     1.2438   1.2493   1.2540   1.2540   1.2565   1.2586   1.2591   1.2606
     1.2681   1.2785   1.2790   1.2872   1.2935   1.2941   1.2959   1.3003
     1.3028   1.3050   1.3060   1.3065   1.3072   1.3080   1.3093   1.3536
     1.3585   1.3947   1.3958   1.3960   1.3988   1.4079   1.4123   1.4209
     1.4220   1.4305   1.4370   1.4377   1.4431   1.4513   1.4533   1.4579
     1.4595   1.4617   1.4634   1.4651   1.4655   1.4666   1.4685   1.4694
     1.4708   1.4721   1.4752   1.4774   1.4784   1.4897   1.4954   1.4967
     1.4980   1.5016   1.5054   1.5080   1.5095   1.5328   1.5361   1.5368
     1.5401   1.5432   1.5436   1.5438   1.5448   1.5630   1.5654   1.5684
     1.5713   1.5774   1.5787   1.5801   1.5817   1.5825   1.5844   1.5964
     1.5998   1.6002   1.6008   1.6175   1.6185   1.6208   1.6248   1.6370
     1.6379   1.6459   1.6469   1.6482   1.6499   1.6605   1.6612   1.6618
     1.6631   1.6784   1.6798   1.6929   1.6933   1.6943   1.6950   1.7129
     1.7141   1.7147   1.7162   1.7172   1.7172   1.7185   1.7188   1.7450
     1.7462   1.7529   1.7540   1.7612   1.7649   1.7676   1.7779   1.7849
     1.7861   1.7867   1.7881   1.7956   1.7994   1.8081   1.8111   1.8468
     1.8528   1.8535   1.8594   1.9244   1.9570   1.9620   1.9767   1.9897
     2.0036   2.0059   2.0174   2.0449   2.0563   2.0599   2.0608   2.0710
     2.0805   2.0808   2.0832   2.1194   2.1195   2.1714   2.4375   2.4542
     2.6778   2.6809   2.6826   2.6842   2.7422   2.7621   2.7631   2.8245
     2.8292   2.8331   2.8373   2.8473   2.8798   2.9718   2.9771   3.0201
     3.0247   3.0421   3.0475   3.1884   3.1905   3.4273   3.4273   3.4505
     3.4789   3.6206   3.6406   3.7748   3.9338   3.9530   4.2656   4.2756
     4.3313   4.3429   4.3884   4.4107   4.5786   4.5870   4.5903   4.5922
     4.6668   4.7555   4.7630   4.9305   4.9541   5.0058   5.0205   5.2858
     5.3663   5.3702   5.4207   5.5392   5.6215   5.6236   5.6247   5.6345
     5.6940   5.7738   5.9440   6.0093   6.1058   6.1534   6.5326   6.6164
     6.6419   6.6691   6.6760   6.6850   6.6979   6.7744   6.8109   6.9228
     6.9300   6.9916   7.0643   7.0886   7.2854   7.3064   7.3246   7.3384
     7.3496   7.3584   7.3795   7.3874   7.3888   7.4327   7.5402   7.6013
     7.6122   7.6700   7.6979   7.7241   7.7331   7.7892   8.0435   8.0998
     8.1138   8.1641   8.2711   8.3998   8.4034   8.5399   8.6167   8.6233
     8.6326   8.6619   8.6631   8.6894   8.7241   8.7281   8.9342   8.9541
     8.9622   8.9700   8.9729   8.9815   9.0136   9.0224   9.0341   9.0534
     9.1626   9.1666   9.1965   9.2253   9.2810   9.3175   9.4039   9.4067
     9.5092   9.5190   9.6417   9.6464   9.6491   9.6561   9.7148   9.7283
     9.7378   9.7431   9.7796   9.9177   9.9237   9.9767   9.9844  10.0501
    10.0533  10.1531  10.2179

          k = 0.2500 0.0000 0.0000 (256240 PWs)   bands (ev):

   -18.7706 -15.9357 -15.6261 -15.4298 -14.9510 -14.6441 -14.5930 -14.5133
   -14.1556 -13.5502 -13.3991 -13.0324 -12.7361 -12.7262 -12.7137 -12.3682
   -11.7956 -11.7601 -11.6930 -11.4034 -10.6433 -10.4145 -10.4071 -10.2246
    -9.7761  -9.7293  -9.4252  -9.3153  -9.0293  -8.7655  -8.7173  -8.1777
    -7.2644  -7.2086  -7.1981  -7.1781  -7.0878  -7.0767  -6.6306  -6.3679
    -5.8278  -5.6737  -5.6023  -5.5939  -5.5744  -5.5661  -5.0486  -5.0447
    -4.8870  -4.8677  -4.6535  -4.3778  -4.2345  -4.2032  -4.1941  -4.1813
    -4.1206  -4.0965  -4.0271  -3.9976  -3.7440  -3.7364  -3.7188  -3.7066
    -3.6414  -3.5768  -3.5756  -3.4647  -3.3966  -3.3426  -3.2595  -3.2268
    -3.2040  -3.1961  -3.1461  -3.1090  -3.0351  -2.9892  -2.9808  -2.8879
    -2.8313  -2.8021  -2.7618  -2.6582  -2.6084  -2.5343  -2.5336  -2.4649
    -2.4371  -2.3586  -2.3546  -2.2803  -2.1550  -2.1385  -2.1147  -2.0663
    -2.0332  -1.8396  -1.8333  -1.8264  -1.8159  -1.8151  -1.7518  -1.7379
    -1.7091  -1.6588  -1.6373  -1.6274  -1.5756  -1.5691  -1.5347  -1.5341
    -1.5268  -1.5262  -1.5060  -1.4800  -1.4674  -1.4578  -1.4480  -1.4389
    -1.4098  -1.3821  -1.3765  -1.3462  -1.3351  -1.3154  -1.3137  -1.3124
    -1.3120  -1.3101  -1.3041  -1.2785  -1.2587  -1.2542  -1.2360  -1.2343
    -1.2240  -1.2226  -1.1054  -1.0689  -1.0662  -1.0448  -1.0095  -1.0050
    -0.9945  -0.9805  -0.9765  -0.9753  -0.9692  -0.9553  -0.9509  -0.9418
    -0.9390  -0.9167  -0.9151  -0.9115  -0.8979  -0.8877  -0.8676  -0.8666
    -0.8654  -0.8626  -0.8463  -0.8446  -0.8437  -0.8401  -0.8141  -0.8067
    -0.7883  -0.7828  -0.7813  -0.7792  -0.7716  -0.7579  -0.7498  -0.7450
    -0.7429  -0.7349  -0.7282  -0.7265  -0.7153  -0.7147  -0.7137  -0.7129
    -0.7090  -0.7077  -0.6984  -0.6944  -0.6788  -0.6758  -0.6697  -0.6577
    -0.6401  -0.6349  -0.6327  -0.6298  -0.6015  -0.5859  -0.5841  -0.5481
    -0.5479  -0.5292  -0.5270  -0.5199  -0.5032  -0.5023  -0.4890  -0.4883
    -0.4848  -0.4817  -0.4764  -0.4742  -0.4556  -0.4403  -0.3360  -0.3339
    -0.3311  -0.3294  -0.3005  -0.3003  -0.2987  -0.2831  -0.2822  -0.2818
    -0.2800  -0.2735  -0.2605  -0.2597  -0.2591  -0.2516  -0.2414  -0.2316
    -0.2185  -0.2178  -0.2162  -0.2151  -0.2135  -0.1931  -0.1929  -0.1886
    -0.1720  -0.1338  -0.1319  -0.1312  -0.1295  -0.1233  -0.1210  -0.1129
    -0.1091  -0.1037  -0.0896  -0.0887  -0.0676  -0.0664  -0.0657  -0.0602
    -0.0283  -0.0280  -0.0241  -0.0234  -0.0153  -0.0142  -0.0039  -0.0020
     0.0007   0.0112   0.0154   0.0310   0.0364   0.0382   0.0434   0.0662
     0.0689   0.0698   0.0712   0.0729   0.0858   0.0863   0.0870   0.0891
     0.1071   0.1151   0.1153   0.1269   0.1288   0.1309   0.1490   0.1549
     0.1557   0.1567   0.1995   0.2027   0.2041   0.2103   0.2120   0.2164
     0.2253   0.2460   0.2472   0.2541   0.2550   0.2573   0.2617   0.2676
     0.2709   0.2717   0.2729   0.2737   0.2752   0.2767   0.2800   0.2876
     0.2991   0.3000   0.3004   0.3065   0.3085   0.3238   0.3258   0.3286
     0.3426   0.3449   0.3624   0.3809   0.3818   0.3841   0.3842   0.3868
     0.3992   0.4040   0.4051   0.4080   0.4088   0.4097   0.4168   0.4434
     0.4468   0.4639   0.5187   0.5207   0.5222   0.5258   0.5366   0.5387
     0.5412   0.5425   0.5434   0.5489   0.5511   0.5526   0.5539   0.5559
     0.5573   0.5630   0.5739   0.5741   0.5757   0.5773   0.5873   0.5886
     0.5944   0.5971   0.6015   0.6027   0.6153   0.6226   0.6270   0.6321
     0.6482   0.6709   0.6726   0.6794   0.6905   0.6915   0.7078   0.7095
     0.7106   0.7125   0.7157   0.7272   0.7313   0.7422   0.7444   0.7472
     0.7536   0.7540   0.7577   0.7586   0.7640   0.7656   0.7834   0.7893
     0.7920   0.8057   0.8107   0.8129   0.8154   0.8169   0.8183   0.8205
     0.8227   0.8360   0.8430   0.8473   0.8508   0.8542   0.8595   0.8615
     0.8631   0.8651   0.8762   0.8773   0.8806   0.8844   0.8861   0.9045
     0.9058   0.9189   0.9247   0.9275   0.9306   0.9333   0.9359   0.9375
     0.9475   0.9605   0.9695   0.9739   0.9902   0.9947   1.0079   1.0083
     1.0123   1.0141   1.0174   1.0329   1.0379   1.0405   1.0420   1.0446
     1.0500   1.0542   1.0602   1.0687   1.0722   1.0820   1.0896   1.0912
     1.0932   1.1066   1.1160   1.1217   1.1233   1.1236   1.1267   1.1470
     1.1482   1.1576   1.1595   1.1601   1.1607   1.1614   1.1696   1.1711
     1.1745   1.1765   1.1803   1.2128   1.2164   1.2177   1.2224   1.2227
     1.2352   1.2358   1.2479   1.2543   1.2553   1.2568   1.2608   1.2637
     1.2672   1.2697   1.2707   1.2830   1.2845   1.2856   1.2864   1.2886
     1.2897   1.2921   1.2945   1.2978   1.2991   1.3004   1.3081   1.3118
     1.3174   1.3231   1.3272   1.3315   1.3336   1.3361   1.3418   1.3427
     1.3448   1.3570   1.3577   1.3585   1.3726   1.3738   1.3758   1.3771
     1.3795   1.3873   1.3982   1.4004   1.4030   1.4115   1.4145   1.4228
     1.4250   1.4279   1.4318   1.4412   1.4473   1.4502   1.4563   1.4594
     1.4617   1.4714   1.4963   1.4978   1.5057   1.5109   1.5127   1.5148
     1.5194   1.5206   1.5222   1.5240   1.5294   1.5339   1.5432   1.5450
     1.5464   1.5473   1.5604   1.5649   1.5666   1.5682   1.5693   1.5721
     1.5779   1.5792   1.5814   1.5834   1.5847   1.5894   1.5908   1.5922
     1.5977   1.5990   1.6064   1.6158   1.6189   1.6195   1.6232   1.6246
     1.6259   1.6285   1.6444   1.6465   1.6475   1.6480   1.6695   1.6702
     1.6783   1.6818   1.6864   1.6894   1.6904   1.6917   1.6930   1.6946
     1.6996   1.7013   1.7018   1.7027   1.7065   1.7091   1.7155   1.7289
     1.7306   1.7320   1.7339   1.7357   1.7366   1.7396   1.7495   1.7497
     1.7591   1.7618   1.7709   1.7733   1.7742   1.7824   1.7828   1.7863
     1.8069   1.8128   1.8212   1.8329   1.8482   1.8751   1.8900   1.8916
     1.8947   1.9130   1.9270   1.9882   2.0214   2.0268   2.0284   2.0313
     2.0491   2.0643   2.1029   2.2448   2.2958   2.3151   2.3300   2.3460
     2.3525   2.3658   2.3980   2.4721   2.5171   2.5230   2.8253   2.8278
     2.8299   2.8382   3.2407   3.2414   3.2696   3.4567   3.4582   3.4827
     3.4829   3.5155   3.5423   3.6875   3.7265   3.7932   3.8431   3.8759
     3.8951   3.9230   3.9653   3.9759   3.9829   4.0160   4.0481   4.1342
     4.1555   4.2330   4.2551   4.3847   4.4344   4.4489   4.4994   4.5453
     4.6633   4.8143   5.0149   5.0320   5.0887   5.1188   5.3389   5.4312
     5.4831   5.4850   5.4948   5.6190   5.6903   5.7264   5.7411   5.7662
     5.8285   5.8395   5.8553   5.9223   5.9385   5.9611   5.9981   6.0451
     6.0752   6.0893   6.2330   6.2725   6.2765   6.2987   6.3593   6.7224
     6.9509   6.9549   6.9710   7.0042   7.0291   7.0824   7.1183   7.1425
     7.2725   7.2898   7.2935   7.2982   7.3258   7.3707   7.5034   7.5163
     7.5550   7.5901   7.6502   7.7114   7.7472   7.7883   7.8174   7.8376
     7.9979   8.0038   8.0480   8.1482   8.1617   8.2471   8.2721   8.2743
     8.3191   8.3245   8.4626   8.5033   8.5321   8.5702   8.5719   8.6266
     8.6623   8.6962   8.6989   8.7161   8.7857   8.9009   8.9045   8.9848
     9.0370   9.1924   9.2191   9.3443   9.4097   9.4295   9.4497   9.4664
     9.4700   9.4859   9.5074   9.5141   9.5212   9.5355   9.5453   9.5763
     9.6004   9.6255   9.6637   9.7050   9.7319   9.7820   9.9292   9.9812
    10.0024  10.0944  10.1167

          k = 0.2500-0.2165 0.0000 (256316 PWs)   bands (ev):

   -18.7706 -15.9152 -15.7264 -15.1582 -15.0669 -14.9293 -14.6566 -14.1828
   -14.0211 -13.6963 -13.4953 -13.0034 -12.9044 -12.7469 -12.5690 -12.2863
   -12.0802 -11.6031 -11.4450 -10.9925 -10.9177 -10.7250 -10.5771 -10.3620
   -10.1665  -9.3027  -9.2420  -8.7750  -8.7547  -8.7021  -8.6226  -8.1545
    -8.1254  -8.0443  -8.0026  -6.4078  -6.3206  -6.3157  -6.2954  -6.2007
    -6.1896  -5.9732  -5.9575  -5.6480  -5.6268  -5.4427  -5.4386  -4.9305
    -4.8274  -4.5798  -4.5469  -4.5150  -4.5007  -4.4102  -4.4089  -4.0857
    -4.0843  -4.0694  -4.0144  -3.9543  -3.9306  -3.8538  -3.8026  -3.6514
    -3.5984  -3.5759  -3.4866  -3.4369  -3.3158  -3.2806  -3.2354  -3.1963
    -3.1938  -3.1755  -3.1130  -3.0446  -2.9247  -2.8832  -2.8597  -2.7965
    -2.7541  -2.6945  -2.6608  -2.6522  -2.6448  -2.6416  -2.5744  -2.5259
    -2.4965  -2.3325  -2.3039  -2.2671  -2.1888  -2.0501  -2.0481  -2.0067
    -1.9751  -1.9227  -1.9129  -1.9025  -1.9025  -1.8759  -1.7593  -1.7432
    -1.7425  -1.7066  -1.6928  -1.6774  -1.6077  -1.5681  -1.5590  -1.5465
    -1.5461  -1.5129  -1.5067  -1.4884  -1.4828  -1.4546  -1.4522  -1.4432
    -1.4404  -1.4304  -1.4247  -1.4124  -1.4116  -1.4101  -1.4092  -1.4029
    -1.4005  -1.3991  -1.3158  -1.3124  -1.2024  -1.2015  -1.1030  -1.0965
    -1.0901  -1.0814  -1.0631  -1.0621  -1.0152  -1.0099  -1.0088  -0.9951
    -0.9946  -0.9826  -0.9824  -0.9754  -0.9713  -0.9625  -0.9600  -0.9575
    -0.9461  -0.9430  -0.9378  -0.9336  -0.9308  -0.9225  -0.9206  -0.9164
    -0.8744  -0.8647  -0.8621  -0.8580  -0.8550  -0.8515  -0.8457  -0.8454
    -0.8174  -0.8165  -0.8150  -0.7792  -0.7730  -0.7724  -0.7643  -0.7602
    -0.7586  -0.7372  -0.7280  -0.7276  -0.7078  -0.7058  -0.6943  -0.6939
    -0.6893  -0.6884  -0.6823  -0.6800  -0.6575  -0.6557  -0.6475  -0.6360
    -0.6145  -0.6012  -0.5974  -0.5946  -0.5937  -0.5344  -0.5129  -0.5107
    -0.5076  -0.5046  -0.5037  -0.5032  -0.4744  -0.4550  -0.4545  -0.4455
    -0.4450  -0.4395  -0.4377  -0.4338  -0.4268  -0.4257  -0.3870  -0.3853
    -0.3805  -0.3474  -0.3465  -0.3356  -0.2998  -0.2981  -0.2969  -0.2954
    -0.2855  -0.2671  -0.2665  -0.2559  -0.2513  -0.2355  -0.2347  -0.2310
    -0.2227  -0.2201  -0.2053  -0.1903  -0.1854  -0.1764  -0.1726  -0.1720
    -0.1583  -0.1414  -0.1409  -0.1278  -0.1267  -0.1211  -0.1110  -0.1085
    -0.1024  -0.1014  -0.0971  -0.0963  -0.0947  -0.0900  -0.0856  -0.0850
    -0.0785  -0.0679  -0.0655  -0.0504  -0.0500  -0.0354  -0.0234  -0.0102
    -0.0062  -0.0018   0.0089   0.0236   0.0276   0.0279   0.0382   0.0484
     0.0495   0.0527   0.0547   0.0648   0.0872   0.1075   0.1131   0.1149
     0.1482   0.1487   0.1580   0.1582   0.1615   0.1632   0.1758   0.1791
     0.1800   0.1882   0.1970   0.1974   0.2114   0.2170   0.2178   0.2209
     0.2236   0.2255   0.2262   0.2281   0.2530   0.2553   0.2605   0.2634
     0.2645   0.2648   0.2658   0.2682   0.2688   0.2701   0.2747   0.2810
     0.2972   0.2977   0.2982   0.2985   0.3225   0.3324   0.3328   0.3404
     0.3416   0.3485   0.3523   0.3670   0.3684   0.3793   0.3970   0.3975
     0.3986   0.4080   0.4093   0.4168   0.4175   0.4211   0.4233   0.4268
     0.4357   0.4389   0.4452   0.4504   0.4713   0.4744   0.5339   0.5352
     0.5487   0.5489   0.5494   0.5508   0.5529   0.5539   0.5575   0.5596
     0.5613   0.5618   0.5829   0.5854   0.5862   0.5884   0.5912   0.5964
     0.5996   0.6027   0.6034   0.6120   0.6306   0.6335   0.6461   0.6477
     0.6577   0.6619   0.6671   0.6707   0.6842   0.7084   0.7114   0.7161
     0.7193   0.7228   0.7254   0.7259   0.7366   0.7374   0.7425   0.7453
     0.7461   0.7479   0.7508   0.7521   0.7758   0.7785   0.7845   0.7868
     0.7976   0.7995   0.8167   0.8344   0.8349   0.8361   0.8364   0.8655
     0.8677   0.8699   0.8726   0.8746   0.8757   0.8788   0.8806   0.8892
     0.8917   0.8931   0.8973   0.9030   0.9037   0.9143   0.9170   0.9213
     0.9260   0.9327   0.9334   0.9353   0.9363   0.9404   0.9455   0.9470
     0.9510   0.9556   0.9560   0.9662   0.9711   0.9718   0.9768   0.9785
     0.9832   0.9833   0.9850   0.9860   0.9881   0.9932   1.0228   1.0242
     1.0324   1.0328   1.0526   1.0595   1.0713   1.0733   1.0902   1.0904
     1.0920   1.0925   1.0972   1.0974   1.1071   1.1179   1.1189   1.1205
     1.1215   1.1221   1.1238   1.1254   1.1341   1.1497   1.1510   1.1540
     1.1618   1.1628   1.1705   1.1731   1.1777   1.1928   1.1932   1.2125
     1.2221   1.2237   1.2288   1.2312   1.2319   1.2345   1.2376   1.2410
     1.2439   1.2492   1.2667   1.2681   1.2745   1.2842   1.2848   1.2977
     1.3031   1.3071   1.3114   1.3282   1.3325   1.3454   1.3471   1.3482
     1.3529   1.3544   1.3550   1.3566   1.3576   1.3580   1.3597   1.3605
     1.3699   1.3724   1.3740   1.3807   1.3844   1.3873   1.3908   1.4037
     1.4064   1.4282   1.4301   1.4319   1.4386   1.4406   1.4412   1.4441
     1.4447   1.4525   1.4539   1.4570   1.4577   1.4622   1.4640   1.4674
     1.4700   1.4719   1.4736   1.4801   1.4831   1.4875   1.4890   1.4897
     1.4912   1.4939   1.5006   1.5042   1.5100   1.5121   1.5130   1.5365
     1.5379   1.5448   1.5449   1.5555   1.5598   1.5619   1.5649   1.5746
     1.5768   1.5774   1.5867   1.5920   1.5957   1.5965   1.5997   1.6020
     1.6039   1.6108   1.6141   1.6146   1.6189   1.6259   1.6267   1.6396
     1.6448   1.6477   1.6482   1.6488   1.6510   1.6531   1.6540   1.6587
     1.6594   1.6710   1.6717   1.6744   1.6770   1.6818   1.6883   1.6943
     1.6970   1.7019   1.7032   1.7036   1.7049   1.7102   1.7106   1.7110
     1.7130   1.7179   1.7201   1.7204   1.7364   1.7443   1.7444   1.7532
     1.7554   1.7675   1.7695   1.7803   1.7888   1.7921   1.7939   1.8160
     1.8166   1.8227   1.8235   1.8343   1.8485   1.8667   1.9145   1.9207
     1.9300   1.9331   1.9669   2.0137   2.0221   2.0299   2.0370   2.0451
     2.0498   2.0552   2.0567   2.0726   2.1005   2.1083   2.3556   2.3912
     2.4031   2.4226   2.4619   2.5504   2.5678   2.8487   2.8502   3.0341
     3.0502   3.0511   3.0523   3.0627   3.0696   3.0913   3.0956   3.2462
     3.2489   3.3335   3.3353   3.7353   3.7977   3.8196   3.8682   3.8967
     3.9033   3.9910   4.0990   4.1063   4.1105   4.1316   4.2566   4.2681
     4.3263   4.3398   4.4264   4.4304   4.6382   4.6393   4.6763   4.8040
     4.8095   4.8469   4.9282   4.9367   4.9952   5.0626   5.1676   5.1747
     5.2594   5.2672   5.2902   5.3989   5.5102   5.5169   5.5379   5.6825
     5.6979   5.7171   5.7176   5.7311   5.8926   6.0205   6.0310   6.0812
     6.1417   6.1648   6.2194   6.2555   6.3869   6.8094   6.8581   6.8630
     6.8647   6.9143   6.9954   7.0108   7.1067   7.1299   7.2697   7.3023
     7.3385   7.3403   7.3603   7.3733   7.4607   7.4752   7.4761   7.5876
     7.5945   7.5988   7.6108   7.6644   7.6851   7.6871   7.7089   7.7947
     7.8894   7.9187   7.9416   8.0476   8.0569   8.2338   8.2423   8.2887
     8.3339   8.4339   8.4520   8.4888   8.5065   8.5824   8.7659   8.8236
     8.8455   8.8494   8.8758   8.8881   8.8916   8.9547   8.9564   9.0435
     9.1150   9.1389   9.1640   9.1773   9.1979   9.2072   9.2679   9.3233
     9.3608   9.3789   9.3863   9.4328   9.4375   9.4622   9.4711   9.5072
     9.5257   9.5600   9.6087   9.6116   9.6383   9.6762   9.6838   9.7198
     9.7582  10.0686  10.1319

          k =-0.5000 0.0000 0.0000 (256496 PWs)   bands (ev):

   -18.7682 -15.6287 -15.5414 -15.2629 -15.2564 -15.2529 -14.8194 -14.1683
   -14.1530 -14.1472 -13.6457 -12.3900 -12.3733 -12.3604 -12.1680 -11.8090
   -11.7261 -11.4838 -11.4762 -11.4742 -11.1895 -10.8363 -10.7153 -10.4096
   -10.1458  -9.8319  -9.6700  -9.4373  -9.4202  -8.6204  -8.5807  -8.5705
    -8.4628  -7.1305  -7.0828  -7.0508  -7.0267  -7.0054  -6.9781  -5.6085
    -5.5646  -5.0471  -5.0430  -4.9459  -4.8814  -4.6185  -4.5845  -4.5417
    -4.5394  -4.5347  -4.5286  -4.4531  -4.4294  -4.4182  -4.3660  -4.3556
    -4.3121  -4.1995  -4.1512  -4.1249  -4.1116  -4.0438  -4.0222  -3.7505
    -3.7395  -3.7278  -3.7190  -3.7108  -3.5896  -3.3298  -3.3280  -3.3029
    -3.2839  -3.1677  -3.1601  -3.1563  -3.1543  -3.1297  -3.1001  -3.0584
    -3.0464  -3.0386  -3.0069  -2.7894  -2.6155  -2.5048  -2.4965  -2.4585
    -2.4441  -2.4383  -2.4261  -2.3403  -2.3384  -2.2157  -2.1545  -2.1476
    -2.0944  -2.0417  -2.0365  -2.0349  -2.0300  -1.7400  -1.6144  -1.6130
    -1.6125  -1.6114  -1.6109  -1.6075  -1.5824  -1.4921  -1.4859  -1.4713
    -1.4663  -1.3848  -1.3844  -1.3834  -1.3833  -1.3363  -1.3353  -1.3336
    -1.3326  -1.2493  -1.2400  -1.2320  -1.2226  -1.2212  -1.2117  -1.1724
    -1.1597  -1.1587  -1.1559  -1.1518  -1.1393  -1.1388  -1.1359  -1.1301
    -1.0905  -1.0892  -1.0870  -1.0855  -1.0764  -1.0752  -1.0738  -1.0724
    -1.0713  -1.0646  -1.0257  -1.0244  -1.0243  -1.0226  -1.0011  -1.0006
    -1.0005  -0.9988  -0.9370  -0.9364  -0.9164  -0.9151  -0.9144  -0.9131
    -0.8888  -0.8861  -0.8856  -0.8852  -0.8843  -0.8828  -0.8812  -0.8723
    -0.8412  -0.8404  -0.8401  -0.8391  -0.8178  -0.8160  -0.7877  -0.7868
    -0.7437  -0.7436  -0.7419  -0.7133  -0.7129  -0.7114  -0.7106  -0.6980
    -0.6861  -0.6854  -0.6841  -0.6826  -0.6778  -0.6741  -0.6654  -0.6646
    -0.6644  -0.6623  -0.6614  -0.6557  -0.6370  -0.6341  -0.5743  -0.5729
    -0.5726  -0.5711  -0.5276  -0.5265  -0.4446  -0.4440  -0.4438  -0.4425
    -0.4184  -0.4065  -0.4061  -0.4055  -0.4048  -0.4039  -0.3982  -0.3962
    -0.3856  -0.3769  -0.3652  -0.3634  -0.3629  -0.3590  -0.3507  -0.3458
    -0.3349  -0.3319  -0.3306  -0.3252  -0.2620  -0.2400  -0.2343  -0.2210
    -0.2035  -0.2003  -0.1969  -0.1896  -0.1891  -0.1832  -0.1512  -0.1418
    -0.1406  -0.1397  -0.1385  -0.1378  -0.1360  -0.1305  -0.1076  -0.1034
    -0.1028  -0.1024  -0.1018  -0.0947  -0.0633  -0.0629  -0.0614  -0.0613
    -0.0290  -0.0286  -0.0283  -0.0272  -0.0161  -0.0152  -0.0054   0.0168
     0.0170   0.0179   0.0187   0.0304   0.0315   0.0400   0.0498   0.0602
     0.0687   0.0770   0.1306   0.1309   0.1318   0.1325   0.1365   0.1374
     0.1383   0.1401   0.1766   0.1785   0.1789   0.1836   0.2142   0.2156
     0.2387   0.2401   0.2414   0.2420   0.2430   0.2437   0.2446   0.2452
     0.2456   0.2464   0.2466   0.2475   0.2677   0.3105   0.3200   0.3227
     0.3302   0.3318   0.3330   0.3377   0.3382   0.3401   0.3414   0.3427
     0.3445   0.3469   0.3479   0.3513   0.3527   0.3540   0.3557   0.3618
     0.3682   0.3684   0.3807   0.3818   0.3819   0.3821   0.3823   0.3834
     0.3944   0.3946   0.3949   0.3957   0.4016   0.4069   0.4089   0.4191
     0.4197   0.4200   0.4202   0.4304   0.4467   0.4515   0.4556   0.5313
     0.5361   0.5510   0.5522   0.5537   0.5552   0.5847   0.5880   0.5883
     0.5892   0.5952   0.6006   0.6025   0.6055   0.6106   0.6118   0.6122
     0.6141   0.6177   0.6190   0.6194   0.6204   0.6210   0.6232   0.6260
     0.6296   0.6353   0.6362   0.6489   0.6520   0.6565   0.6569   0.6631
     0.6635   0.6690   0.6702   0.6901   0.7019   0.7539   0.7571   0.7602
     0.7610   0.7674   0.7721   0.7869   0.7893   0.7904   0.7925   0.7936
     0.7949   0.7962   0.7966   0.7988   0.7991   0.8000   0.8019   0.8044
     0.8055   0.8091   0.8114   0.8134   0.8144   0.8277   0.8314   0.8414
     0.8505   0.8511   0.8667   0.8702   0.8795   0.8847   0.8860   0.8872
     0.8890   0.8964   0.8966   0.8974   0.9000   0.9007   0.9018   0.9101
     0.9141   0.9178   0.9184   0.9314   0.9325   0.9343   0.9355   0.9693
     0.9732   0.9734   0.9750   0.9762   0.9787   0.9895   0.9929   0.9969
     1.0198   1.0297   1.0304   1.0319   1.0333   1.0344   1.0377   1.0489
     1.0710   1.0838   1.1010   1.1023   1.1043   1.1051   1.1054   1.1068
     1.1124   1.1151   1.1179   1.1195   1.1207   1.1245   1.1318   1.1345
     1.1504   1.1524   1.1533   1.1541   1.1551   1.1717   1.1723   1.1738
     1.1743   1.1747   1.1752   1.1972   1.2091   1.2106   1.2112   1.2151
     1.2462   1.2614   1.2789   1.2797   1.2811   1.2818   1.2854   1.3118
     1.3133   1.3141   1.3164   1.3194   1.3295   1.3356   1.3387   1.3428
     1.3438   1.3504   1.3579   1.3599   1.3770   1.3808   1.3816   1.3816
     1.3833   1.3849   1.3883   1.3888   1.3929   1.3965   1.3994   1.4006
     1.4017   1.4020   1.4029   1.4038   1.4064   1.4083   1.4324   1.4378
     1.4415   1.4417   1.4421   1.4546   1.4733   1.4752   1.4793   1.4798
     1.4822   1.4844   1.4967   1.4981   1.5035   1.5070   1.5077   1.5078
     1.5097   1.5126   1.5183   1.5186   1.5197   1.5244   1.5273   1.5397
     1.5446   1.5536   1.5652   1.5663   1.5736   1.5787   1.5818   1.5819
     1.5823   1.5831   1.5837   1.5844   1.5878   1.5920   1.5959   1.5962
     1.5980   1.5981   1.5984   1.5991   1.6055   1.6068   1.6075   1.6080
     1.6084   1.6099   1.6151   1.6164   1.6307   1.6321   1.6470   1.6503
     1.6518   1.6534   1.6560   1.6581   1.6593   1.6608   1.6754   1.6773
     1.6811   1.6820   1.6955   1.6963   1.6975   1.7009   1.7078   1.7136
     1.7145   1.7156   1.7205   1.7272   1.7346   1.7371   1.7377   1.7384
     1.7447   1.7454   1.7460   1.7463   1.7508   1.7610   1.7652   1.7667
     1.7784   1.7791   1.7794   1.7800   1.7836   1.7905   1.7951   1.7970
     1.8391   1.8431   1.8535   1.8715   1.8733   1.8765   1.8779   1.9108
     2.1078   2.2895   2.2964   2.2986   2.3023   2.4972   2.5083   2.5136
     2.5182   2.5495   2.5499   2.5573   2.5606   2.8614   2.8796   2.8801
     2.8812   3.0861   3.0942   3.0977   3.0998   3.4467   3.4496   3.4514
     3.4531   3.7161   3.7364   3.8571   4.0160   4.0170   4.0203   4.0778
     4.1829   4.1842   4.1873   4.2336   4.3327   4.3366   4.3373   4.3516
     4.4283   4.4445   4.7150   4.8798   4.9441   4.9720   4.9937   4.9980
     5.0111   5.0306   5.0888   5.0902   5.1466   5.1576   5.2832   5.2846
     5.3094   5.3111   5.3135   5.3193   5.3347   5.3371   5.3620   5.3673
     5.4453   5.4634   5.6268   5.7018   5.8072   5.8140   5.8694   5.9064
     5.9336   5.9973   6.2480   6.2511   6.2671   6.2705   6.2799   6.2834
     6.2897   6.2964   6.3673   6.5750   6.6789   6.6803   6.7176   6.7252
     6.7760   6.7828   7.2367   7.3384   7.3500   7.3648   7.3803   7.3867
     7.4181   7.8071   7.8468   7.8482   7.8497   7.8511   7.8576   7.8822
     7.9113   8.0721   8.0861   8.1049   8.1311   8.1396   8.1412   8.1465
     8.1692   8.2511   8.3201   8.3320   8.3341   8.3532   8.3790   8.3880
     8.3978   8.6276   8.6529   8.6662   8.6838   8.7105   8.7509   9.0140
     9.0790   9.0799   9.0862   9.0885   9.2203   9.2221   9.2264   9.2896
     9.3127   9.3162   9.3206   9.3358   9.5131   9.5219   9.5241   9.5472
     9.7347   9.7503   9.7680   9.7715   9.7786   9.7864   9.7924   9.8016
     9.9680   9.9924  10.0029

          k =-0.5000-0.2165 0.0000 (256328 PWs)   bands (ev):

   -18.7682 -15.5449 -15.5445 -15.5256 -15.2552 -14.8067 -14.7912 -14.7896
   -14.2708 -13.3567 -13.3453 -13.3329 -12.9487 -11.7328 -11.7321 -11.7185
   -11.5948 -11.2953 -11.2721 -11.2681 -11.1867 -11.1158 -11.1008 -11.0984
   -10.5225  -9.4254  -9.3971  -9.3956  -9.2190  -8.4658  -8.4467  -8.4197
    -8.3680  -7.7160  -7.6702  -7.6580  -7.5999  -5.6891  -5.6406  -5.6036
    -5.5753  -5.0402  -5.0343  -4.9974  -4.9446  -4.9181  -4.9171  -4.9165
    -4.9101  -4.8494  -4.7783  -4.7574  -4.7493  -4.1432  -4.0809  -4.0758
    -4.0741  -3.9912  -3.9429  -3.9353  -3.9335  -3.9275  -3.9192  -3.8977
    -3.8534  -3.6785  -3.6158  -3.6079  -3.5186  -3.5105  -3.5027  -3.4115
    -3.3375  -3.3348  -3.3109  -3.3078  -3.3030  -3.1866  -3.1724  -3.1422
    -3.0864  -2.8236  -2.7828  -2.7719  -2.6963  -2.3343  -2.3216  -2.3147
    -2.3133  -2.3063  -2.2943  -2.2625  -2.2615  -2.2313  -2.1730  -2.0729
    -2.0079  -1.9965  -1.8401  -1.8294  -1.8291  -1.8220  -1.8174  -1.7506
    -1.7485  -1.7465  -1.7435  -1.7000  -1.6923  -1.5650  -1.5377  -1.5367
    -1.5353  -1.5318  -1.4534  -1.4450  -1.4211  -1.3415  -1.2391  -1.2273
    -1.2265  -1.2264  -1.2257  -1.2253  -1.2245  -1.1910  -1.1899  -1.1895
    -1.1844  -1.1681  -1.1677  -1.1673  -1.1653  -1.1177  -1.1176  -1.1173
    -1.1161  -1.1156  -1.1149  -1.1130  -1.1093  -1.0922  -1.0918  -1.0912
    -1.0906  -1.0835  -1.0423  -1.0417  -1.0409  -1.0347  -0.9711  -0.9665
    -0.9635  -0.9577  -0.9235  -0.9231  -0.9227  -0.9222  -0.9050  -0.9042
    -0.9029  -0.9024  -0.8640  -0.8547  -0.8538  -0.8535  -0.8523  -0.8493
    -0.8492  -0.8491  -0.8473  -0.8298  -0.8214  -0.7995  -0.7906  -0.7904
    -0.7879  -0.7853  -0.7737  -0.7732  -0.7712  -0.7711  -0.7705  -0.7697
    -0.7682  -0.7677  -0.7514  -0.7150  -0.7041  -0.6920  -0.6172  -0.6168
    -0.6157  -0.6131  -0.5851  -0.5846  -0.5844  -0.5838  -0.5043  -0.5033
    -0.5028  -0.5011  -0.4994  -0.4964  -0.4950  -0.4948  -0.4945  -0.4937
    -0.4931  -0.4867  -0.4327  -0.4323  -0.4314  -0.4307  -0.4229  -0.4221
    -0.4215  -0.4196  -0.4009  -0.4008  -0.3993  -0.3957  -0.3083  -0.3067
    -0.3055  -0.3018  -0.3016  -0.3011  -0.2994  -0.2893  -0.2325  -0.2319
    -0.2309  -0.2296  -0.1828  -0.1816  -0.1812  -0.1810  -0.1617  -0.1614
    -0.1606  -0.1595  -0.1358  -0.1356  -0.1344  -0.1280  -0.1232  -0.1218
    -0.1215  -0.1201  -0.0844  -0.0822  -0.0784  -0.0764  -0.0066  -0.0061
    -0.0044  -0.0033   0.0098   0.0101   0.0108   0.0111   0.0258   0.0262
     0.0267   0.0271   0.0874   0.1084   0.1086   0.1090   0.1120   0.1125
     0.1132   0.1154   0.1159   0.1171   0.1178   0.1188   0.1521   0.1537
     0.1539   0.1541   0.1614   0.1665   0.1670   0.1674   0.1678   0.1708
     0.1714   0.1725   0.1809   0.2392   0.2400   0.2412   0.2424   0.2660
     0.2670   0.2689   0.2697   0.3105   0.3142   0.3177   0.3227   0.3257
     0.3266   0.3453   0.3458   0.3462   0.3473   0.3510   0.3527   0.3532
     0.3548   0.3570   0.3585   0.3602   0.3609   0.3668   0.3670   0.3677
     0.3688   0.3716   0.3717   0.3720   0.3722   0.3888   0.3897   0.3903
     0.3904   0.3997   0.4162   0.4165   0.4170   0.4172   0.4186   0.4270
     0.4291   0.4307   0.4319   0.4775   0.4781   0.4787   0.4794   0.5109
     0.5113   0.5132   0.5137   0.5678   0.5738   0.5852   0.5930   0.5948
     0.5955   0.5967   0.6023   0.6080   0.6101   0.6128   0.6136   0.6158
     0.6166   0.6252   0.6273   0.6283   0.6319   0.6331   0.6337   0.6346
     0.6352   0.6380   0.6416   0.6431   0.6437   0.6460   0.6529   0.6613
     0.6711   0.7137   0.7164   0.7191   0.7200   0.7231   0.7240   0.7250
     0.7265   0.7313   0.7320   0.7324   0.7334   0.7666   0.7732   0.7752
     0.7761   0.7769   0.7776   0.7798   0.7818   0.8121   0.8191   0.8205
     0.8211   0.8213   0.8241   0.8339   0.8343   0.8352   0.8359   0.8369
     0.8380   0.8423   0.8430   0.8441   0.8461   0.8554   0.8566   0.8584
     0.8603   0.8642   0.8702   0.8743   0.8760   0.9230   0.9345   0.9390
     0.9445   0.9459   0.9485   0.9505   0.9509   0.9521   0.9533   0.9560
     0.9574   0.9606   0.9636   0.9708   0.9756   0.9928   0.9936   0.9940
     0.9946   0.9955   0.9970   0.9976   0.9998   1.0164   1.0463   1.0474
     1.0495   1.0568   1.0756   1.0793   1.0794   1.0799   1.0810   1.0963
     1.1024   1.1121   1.1127   1.1130   1.1146   1.1385   1.1390   1.1413
     1.1428   1.1919   1.1922   1.1933   1.1942   1.2112   1.2155   1.2248
     1.2261   1.2266   1.2415   1.2640   1.2779   1.2795   1.2808   1.2823
     1.2927   1.2936   1.2963   1.3047   1.3061   1.3076   1.3090   1.3101
     1.3103   1.3105   1.3111   1.3138   1.3143   1.3152   1.3177   1.3290
     1.3394   1.3404   1.3412   1.3437   1.3448   1.3456   1.3484   1.3497
     1.3502   1.3533   1.3622   1.3639   1.3654   1.3771   1.3828   1.3880
     1.3885   1.3894   1.3915   1.3982   1.3983   1.4018   1.4059   1.4078
     1.4094   1.4242   1.4532   1.4554   1.4579   1.4583   1.4593   1.4610
     1.4667   1.4750   1.4861   1.4871   1.4881   1.4894   1.4954   1.5030
     1.5054   1.5079   1.5126   1.5175   1.5235   1.5248   1.5345   1.5362
     1.5369   1.5382   1.5458   1.5462   1.5471   1.5485   1.5523   1.5530
     1.5537   1.5548   1.6083   1.6153   1.6168   1.6191   1.6197   1.6202
     1.6205   1.6208   1.6212   1.6215   1.6289   1.6321   1.6359   1.6388
     1.6404   1.6426   1.6442   1.6474   1.6488   1.6497   1.6519   1.6554
     1.6567   1.6592   1.6599   1.6608   1.6614   1.6624   1.6651   1.6728
     1.6757   1.6805   1.6814   1.6827   1.6832   1.6863   1.7141   1.7144
     1.7147   1.7158   1.7274   1.7281   1.7296   1.7301   1.7338   1.7431
     1.7462   1.7490   1.7619   1.7666   1.7682   1.7685   1.7954   1.8137
     1.8245   1.8272   1.8381   1.8387   1.8402   1.8403   1.8635   1.8673
     1.8695   1.8716   1.8733   1.8752   1.8771   1.8791   1.8806   1.8820
     1.8831   1.8843   2.0806   2.0975   2.1003   2.1013   2.1599   2.5952
     2.5989   2.5997   2.6117   2.8223   2.8227   2.8238   2.8329   3.0381
     3.0590   3.0596   3.0609   3.3224   3.3509   3.3518   3.3545   3.7047
     3.7170   3.7174   3.7186   3.8544   3.9033   3.9040   3.9100   3.9965
     4.1926   4.1939   4.1951   4.2023   4.4877   4.4893   4.4919   4.4984
     4.5650   4.5665   4.5871   4.6074   4.8191   4.8206   4.8232   4.8250
     4.8628   4.8636   4.8927   4.9484   5.1476   5.1506   5.2710   5.2741
     5.3284   5.3565   5.4151   5.4323   5.4379   5.4422   5.4571   5.5067
     5.5596   5.5955   5.5975   5.5993   5.6038   5.6244   5.7248   5.8582
     5.9923   6.0020   6.0115   6.0126   6.0128   6.0164   6.1145   6.1239
     6.1312   6.1484   6.5083   7.0368   7.0426   7.0523   7.0590   7.3177
     7.3777   7.3789   7.3870   7.3957   7.4132   7.4149   7.4209   7.4678
     7.5119   7.5136   7.5186   7.5950   7.6098   7.6125   7.6144   7.6934
     7.8772   7.8841   7.8874   8.0122   8.2074   8.2134   8.2274   8.2376
     8.2393   8.2611   8.3027   8.3070   8.3380   8.4585   8.4616   8.4940
     8.5045   8.5153   8.7200   8.8124   8.8140   8.8518   8.8644   9.1102
     9.1370   9.1461   9.1476   9.1492   9.1531   9.1571   9.1844   9.2004
     9.2237   9.2243   9.2271   9.3021   9.3452   9.3609   9.3676   9.6060
     9.6093   9.6325   9.6701   9.7562   9.7814   9.7829   9.8044   9.8061
     9.8091   9.8106   9.8155

     the Fermi energy is     3.5949 ev

!    total energy              =  -12730.57700921 Ry
[...]
     atom   53 type  1   force =     0.00002434   -0.00004601    0.00007539
     atom   54 type  1   force =     0.00003236   -0.00007456    0.00005190
     atom   55 type  1   force =     0.00004225   -0.00002034    0.00005773
     atom   56 type  1   force =     0.00004251   -0.00006203    0.00005304
     atom   57 type  1   force =     0.00006028   -0.00005534    0.00002905
     atom   58 type  1   force =     0.00005428   -0.00004917   -0.00000889
     atom   59 type  1   force =     0.00004293   -0.00006229    0.00001030
     atom   60 type  1   force =     0.00005272   -0.00006994    0.00001516
     atom   61 type  1   force =     0.00004488    0.00002152   -0.00001950
     atom   62 type  1   force =     0.00004720   -0.00002909   -0.00004521
     atom   63 type  1   force =     0.00004347   -0.00001144   -0.00002676
     atom   64 type  1   force =     0.00004171   -0.00003255   -0.00002007
     atom   65 type  1   force =     0.00004614   -0.00004656    0.00012786
     atom   66 type  1   force =     0.00003124    0.00003878    0.00010249
     atom   67 type  1   force =     0.00002160   -0.00004160    0.00001093
     atom   68 type  1   force =     0.00004802   -0.00001407    0.00005724
     atom   69 type  1   force =     0.00002418   -0.00001676    0.00007377
     atom   70 type  1   force =     0.00003915   -0.00006693    0.00009307
     atom   71 type  1   force =     0.00003492   -0.00002782   -0.00000928
     atom   72 type  1   force =     0.00003932   -0.00006034    0.00001573
     atom   73 type  1   force =     0.00004099   -0.00004114    0.00004736
     atom   74 type  1   force =     0.00002685   -0.00004067    0.00010389
     atom   75 type  1   force =     0.00003142    0.00000529    0.00002570
     atom   76 type  1   force =     0.00004863    0.00000505    0.00009764
     atom   77 type  1   force =     0.00003717   -0.00005398    0.00002059
     atom   78 type  1   force =     0.00005286   -0.00003664    0.00001984
     atom   79 type  1   force =     0.00006789   -0.00004750   -0.00000235
     atom   80 type  1   force =     0.00004335   -0.00004691    0.00004937
     atom   81 type  1   force =     0.00006132   -0.00000577   -0.00011467
     atom   82 type  1   force =     0.00006533   -0.00005976   -0.00002612
     atom   83 type  1   force =     0.00004971   -0.00005570   -0.00008120
     atom   84 type  1   force =     0.00003441   -0.00006025   -0.00000024
     atom   85 type  1   force =     0.00002382   -0.00005945    0.00005345
     atom   86 type  1   force =     0.00010736   -0.00000266    0.00035375
     atom   87 type  1   force =     0.00005855   -0.00004938   -0.00000831
     atom   88 type  1   force =     0.00003034   -0.00000465    0.00005311
     atom   89 type  1   force =     0.00007275    0.00000120    0.00004972
     atom   90 type  1   force =     0.00010523   -0.00003408    0.00011392
     atom   91 type  1   force =     0.00005728   -0.00004325    0.00000964
     atom   92 type  1   force =    -0.00003293   -0.00004624    0.00006148
     atom   93 type  1   force =     0.00000603   -0.00005342    0.00003902
     atom   94 type  1   force =     0.00002529   -0.00002949    0.00004490
     atom   95 type  1   force =     0.00005577    0.00002379   -0.00002080
     atom   96 type  1   force =     0.00003647   -0.00001429    0.00008645
     atom   97 type  1   force =     0.00004727   -0.00003900   -0.00002897
     atom   98 type  1   force =    -0.00001467   -0.00000197   -0.00002300
     atom   99 type  1   force =     0.00005041   -0.00000030   -0.00000692
     atom  100 type  1   force =     0.00010376   -0.00002564    0.00005084
     atom  101 type  2   force =    -0.00007438   -0.00025736   -0.00023916
     atom  102 type  2   force =    -0.00001530   -0.00004605    0.00018366
     atom  103 type  2   force =    -0.00001509    0.00001263   -0.00015019
     atom  104 type  2   force =    -0.00005002   -0.00007180   -0.00000214
     atom  105 type  2   force =    -0.00009319   -0.00003359   -0.00009210
     atom  106 type  2   force =     0.00012666   -0.00011572   -0.00006839
     atom  107 type  2   force =    -0.00002003    0.00018937   -0.00030871
     atom  108 type  2   force =    -0.00032790    0.00015947   -0.00008906
     atom  109 type  2   force =    -0.00012355   -0.00006335    0.00004564
     atom  110 type  2   force =    -0.00015543    0.00013105   -0.00008556
     atom  111 type  2   force =    -0.00019670   -0.00001757   -0.00042170
     atom  112 type  2   force =    -0.00008724   -0.00020964    0.00011340
     atom  113 type  2   force =     0.00014317   -0.00015805   -0.00004542
     atom  114 type  2   force =    -0.00000157    0.00006298   -0.00058259
     atom  115 type  2   force =     0.00020521    0.00006496   -0.00023476
     atom  116 type  2   force =     0.00041593    0.00009801   -0.00009463
     atom  117 type  2   force =     0.00007116    0.00025061   -0.00008632
     atom  118 type  2   force =    -0.00019053   -0.00018537    0.00037324
     atom  119 type  2   force =    -0.00031792    0.00003725   -0.00025448
     atom  120 type  2   force =    -0.00005477    0.00023322    0.00058818
     atom  121 type  3   force =    -0.00005459   -0.00000535    0.00005335
     atom  122 type  2   force =    -0.00016461    0.00027251   -0.00023680
     atom  123 type  2   force =    -0.00065200   -0.00000314   -0.00010440
     atom  124 type  2   force =    -0.00029452    0.00015384   -0.00007654
     atom  125 type  2   force =    -0.00005585    0.00012036   -0.00059865
     atom  126 type  2   force =     0.00012233   -0.00004932   -0.00002077
     atom  127 type  2   force =     0.00002461    0.00034666    0.00018680
     atom  128 type  2   force =     0.00013840   -0.00007410   -0.00011331
     atom  129 type  2   force =    -0.00010414    0.00000558    0.00003383
     atom  130 type  2   force =     0.00018543    0.00006562   -0.00012308
     atom  131 type  2   force =     0.00016957   -0.00000666    0.00008736
     atom  132 type  2   force =    -0.00029411   -0.00008113    0.00011256
     atom  133 type  2   force =    -0.00024870    0.00024713   -0.00005671
     atom  134 type  2   force =    -0.00030088    0.00002054   -0.00018106
     atom  135 type  2   force =    -0.00014525    0.00025258    0.00007284
     atom  136 type  2   force =    -0.00021353    0.00031654   -0.00004152
     atom  137 type  2   force =    -0.00015519    0.00022023    0.00032436
     atom  138 type  2   force =     0.00001626    0.00017776   -0.00027650
     atom  139 type  2   force =     0.00002265    0.00019783    0.00023747
     atom  140 type  2   force =     0.00005988    0.00012275    0.00019748
     atom  141 type  2   force =     0.00002448   -0.00001011    0.00006862
     atom  142 type  2   force =    -0.00014490   -0.00004133   -0.00015313
     atom  143 type  2   force =    -0.00001327    0.00012159   -0.00086404
     atom  144 type  2   force =    -0.00006213    0.00011074   -0.00004357
     atom  145 type  2   force =    -0.00006982   -0.00004389   -0.00088887
     atom  146 type  2   force =    -0.00008983    0.00014598    0.00002345
     atom  147 type  2   force =    -0.00015031    0.00014048    0.00011641
     atom  148 type  2   force =    -0.00004213    0.00040473   -0.00005782
     atom  149 type  2   force =    -0.00009387   -0.00007758    0.00014772

     Total force =     0.002737     Total SCF correction =     0.000128

     number of scf cycles    =  16
     number of bfgs steps    =  15

     energy   old            =  -12730.5773965472 Ry
     energy   new            =  -12730.5774067586 Ry

     CASE: energy  _new < energy  _old

     new trust radius        =       0.0029613525 bohr
     new conv_thr            =       0.0000000010 Ry


ATOMIC_POSITIONS (angstrom)
Cu      -0.000196973   0.002263411   7.366216375
Cu       1.844544855   1.706329232   7.365637983
Cu       3.688891381   0.001914010   7.365891897
Cu       5.533477995   1.706488112   7.365783542
Cu       0.000166016   3.408913115   7.364181330
Cu       1.844680023   5.111631232   7.361689766
Cu       3.689143938   3.409192568   7.363886399
Cu       5.533897872   5.111533185   7.361691093
Cu       0.000327280   6.814802195   7.360955945
Cu       1.844864004   8.517908206   7.362644065
Cu       3.689254152   6.814704989   7.360856112
Cu       5.533638795   8.517736592   7.362752279
Cu      -0.000022419  10.220348085   7.365275144
Cu       1.844576063  11.922567921   7.367577341
Cu       3.689221569  10.220062793   7.366107782
Cu       5.533330198  11.923419088   7.367015794
Cu       0.000253205  13.627586041   7.367177985
Cu       1.844064059  15.334949675   7.366673432
Cu       3.688366114  13.627978066   7.366765711
Cu       5.533525478  15.334157820   7.365627245
Cu       0.000599034   1.707355064   9.198826189
Cu       1.844679426   0.002397021   9.197340409
Cu       3.689394700   1.707341369   9.198008728
Cu       5.533751862   0.001219725   9.195807366
Cu       0.001197173   5.113901162   9.196260991
Cu       1.845280547   3.411270877   9.197854333
Cu       3.690023748   5.113763798   9.196216856
Cu       5.534428931   3.411588668   9.198086433
Cu       0.001157065   8.515216158   9.196649737
Cu       1.845710013   6.814536981   9.195479801
Cu       3.689905260   8.514330447   9.197819617
Cu       5.534581235   6.814285415   9.195303886
Cu       0.000537993  11.921155916   9.199712343
Cu       1.845324583  10.216700322   9.200128889
Cu       3.689277569  11.922133163   9.199686014
Cu       5.534211834  10.217368754   9.199178186
Cu       0.000238094  15.334285885   9.195477331
Cu       1.844575351  13.627500287   9.197566668
Cu       3.688856051  15.334179336   9.195156594
Cu       5.533719980  13.627920317   9.196947370
Cu       0.001567205  -0.001047814  11.035321399
Cu       1.846312826   1.708527784  11.039918303
Cu       3.689464905  -0.000754088  11.034427642
Cu       5.534908293   1.705587038  11.036063539
Cu       0.002839741   3.413893074  11.040094874
Cu       1.847441184   5.115999985  11.040817476
Cu       3.690810739   3.413264967  11.039412737
Cu       5.536828815   5.116381245  11.040863448
Cu       0.003412646   6.815282083  11.042496673
Cu       1.846912222   8.510401595  11.044657124
Cu       3.691981466   6.812899539  11.043917740
Cu       5.536982343   8.511958665  11.041759998
Cu       0.002819307  10.213048469  11.042620338
Cu       1.845493208  11.920450083  11.039718750
Cu       3.690595627  10.214197198  11.040475852
Cu       5.535508812  11.921079595  11.038143636
Cu       0.000890693  13.628413686  11.035491618
Cu       1.845151305  15.333668877  11.034873155
Cu       3.689960154  13.629571434  11.036064398
Cu       5.534394972  15.334004228  11.034457451
Cu       0.004716055   1.703401930  12.868437613
Cu       1.847586597  -0.003951166  12.874079687
Cu       3.690693876   1.701178645  12.871349700
Cu       5.534967276  -0.002899990  12.872500506
Cu       0.008719343   5.117033482  12.885945354
Cu       1.852027825   3.419943874  12.884507061
Cu       3.693997640   5.114569104  12.888984271
Cu       5.535613297   3.410853461  12.872958905
Cu       0.008039042   8.508904853  12.896026757
Cu       1.852068562   6.807802929  12.897629358
Cu       3.693926484   8.511108032  12.885463539
Cu       5.541376684   6.814309965  12.891055437
Cu       0.003510613  11.923687818  12.875088156
Cu       1.846083652  10.211355150  12.883460629
Cu       3.691784746  11.922660040  12.869355676
Cu       5.541040317  10.213097955  12.878157272
Cu       0.001808523  15.331822600  12.875953431
Cu       1.845492455  13.630552261  12.873131560
Cu       3.691051725  15.334588714  12.876153736
Cu       5.537011458  13.630293894  12.872701395
Cu       0.004255060   0.000018891  14.685150085
Cu       1.848263764   1.702917492  14.680638574
Cu       3.691550476  -0.001454182  14.697563769
Cu       5.539898828   1.700249570  14.679926255
Cu       0.005350648   3.407989831  14.673730932
Cu       1.876942089   5.109940576  14.744838067
Cu       3.699718825   3.390762594  14.693673416
Cu       5.529747270   5.105446131  14.699025343
Cu       0.016454183   6.797820941  14.717231805
Cu       1.855634101   8.510663727  14.720730251
Cu       3.703501696   6.821171944  14.719388065
Cu       5.544927910   8.518734117  14.708624597
Cu       0.009668145  10.225044967  14.701710683
Cu       1.847006218  11.927404415  14.683255618
Cu       3.693605863  10.224538705  14.683336386
Cu       5.540623215  11.923590085  14.680357553
Cu       0.002027590  13.629623035  14.697986798
Cu       1.848365202  15.331176786  14.692911225
Cu       3.693699509  13.624506530  14.684507922
Cu       5.535543050  15.333669397  14.691532641
C       -0.005594637   0.710607728  17.606217811
C       -0.007113039   2.128152101  17.584272182
C        1.224800757   0.002792887  17.613037723
C        1.220781849   2.833821539  17.553802163
C        2.453370565   0.710361709  17.588200291
C        2.452466724   2.129238290  17.551425829
C        3.684434744   0.001530538  17.594476170
C        3.684438920   2.839550201  17.533796214
C        4.915544062   0.711333118  17.590036280
C        4.915853909   2.129726547  17.558981625
C        6.143486600   0.002227196  17.614492659
C        6.144397239   2.838931198  17.567937591
C       -0.009386173   4.969207674  17.562655171
C       -0.007017413   6.394548846  17.533586100
C        1.221221723   4.253471766  17.548052411
C        1.198574699   7.115165393  17.592468497
C        2.446729939   4.945634289  17.560357556
C        2.429014083   6.377364466  17.843730988
C        3.679896901   4.258356417  17.551643715
C        3.704632453   7.115561848  17.867361404
O        3.054644160   6.715119657  19.175785419
C        4.916336515   4.974358812  17.564482071
C        4.935632583   6.385210475  17.597930230
C        6.145763199   4.260558789  17.557531939
C        6.139436097   7.104085900  17.546822753
C       -0.008057730   9.237466939  17.548881513
C       -0.005309676  10.658828114  17.540319093
C        1.220546640   8.524488204  17.583337938
C        1.225791434  11.368226350  17.566890173
C        2.458810059   9.240431880  17.612862514
C        2.454941023  10.659162890  17.592221246
C        3.688725076   8.555854012  17.643635937
C        3.683918063  11.368771580  17.603925777
C        4.910904632   9.244786635  17.581661741
C        4.913395819  10.664333371  17.573847419
C        6.143923926   8.528771033  17.556446236
C        6.142987294  11.370161820  17.555480374
C       -0.004309434  13.496944454  17.583281339
C       -0.004505934  14.915030012  17.613620426
C        1.226582522  12.786684076  17.587667221
C        1.224762481  15.623384029  17.618836753
C        2.455170254  13.495545076  17.620810601
C        2.455394258  14.913895553  17.626574694
C        3.684071873  12.787455574  17.618041427
C        3.684499812  15.622198165  17.627916140
C        4.913552069  13.495405863  17.614905357
C        4.913417489  14.913710743  17.621452935
C        6.142676777  12.788081224  17.582175333
C        6.143988489  15.623015254  17.616347215



     Writing output data file gc.save
     Check: negative starting charge=   -0.001800
     NEW-OLD atomic charge density approx. for the potential
     Check: negative starting charge=   -0.001800

     negative rho (up, down):  1.906E-03 0.000E+00

     total cpu time spent up to now is    48463.4 secs

     Self-consistent Calculation

     iteration #  1     ecut=    80.00 Ry     beta=0.70
     Davidson diagonalization with overlap
     ethr =  1.00E-06,  avg # of iterations =  2.0

     Threshold (ethr) on eigenvalues was too large:
     Diagonalizing with lowered threshold

     Davidson diagonalization with overlap
     ethr =  2.86E-08,  avg # of iterations =  2.0

     negative rho (up, down):  1.834E-03 0.000E+00

     total cpu time spent up to now is    48860.6 secs

     total energy              =  -12730.57740757 Ry
     Harris-Foulkes estimate   =  -12730.57743767 Ry
     estimated scf accuracy    <       0.00035812 Ry

     iteration #  2     ecut=    80.00 Ry     beta=0.70
     Davidson diagonalization with overlap
     ethr =  2.76E-08,  avg # of iterations =  1.0

     negative rho (up, down):  1.800E-03 0.000E+00

     total cpu time spent up to now is    49031.2 secs

     total energy              =  -12730.57741147 Ry
     Harris-Foulkes estimate   =  -12730.57742852 Ry
     estimated scf accuracy    <       0.00009700 Ry

     iteration #  3     ecut=    80.00 Ry     beta=0.70
     Davidson diagonalization with overlap
     ethr =  7.47E-09,  avg # of iterations =  2.0

     negative rho (up, down):  1.740E-03 0.000E+00

     total cpu time spent up to now is    49215.6 secs

     total energy              =  -12730.57741590 Ry
     Harris-Foulkes estimate   =  -12730.57742473 Ry
     estimated scf accuracy    <       0.00009745 Ry

     iteration #  4     ecut=    80.00 Ry     beta=0.70
     Davidson diagonalization with overlap
     ethr =  7.47E-09,  avg # of iterations =  2.0

     negative rho (up, down):  1.738E-03 0.000E+00

     total cpu time spent up to now is    49393.3 secs

     total energy              =  -12730.57742058 Ry
     Harris-Foulkes estimate   =  -12730.57742101 Ry
     estimated scf accuracy    <       0.00001196 Ry

     iteration #  5     ecut=    80.00 Ry     beta=0.70
     Davidson diagonalization with overlap
     ethr =  9.21E-10,  avg # of iterations =  2.2

     negative rho (up, down):  1.756E-03 0.000E+00

     total cpu time spent up to now is    49568.8 secs

     total energy              =  -12730.57742046 Ry
     Harris-Foulkes estimate   =  -12730.57742109 Ry
     estimated scf accuracy    <       0.00000899 Ry

     iteration #  6     ecut=    80.00 Ry     beta=0.70
     Davidson diagonalization with overlap
     ethr =  6.93E-10,  avg # of iterations =  1.5

     negative rho (up, down):  1.782E-03 0.000E+00

     total cpu time spent up to now is    49734.4 secs

     total energy              =  -12730.57742048 Ry
     Harris-Foulkes estimate   =  -12730.57742081 Ry
     estimated scf accuracy    <       0.00000347 Ry

     iteration #  7     ecut=    80.00 Ry     beta=0.70
     Davidson diagonalization with overlap
     ethr =  2.67E-10,  avg # of iterations =  1.0

     negative rho (up, down):  1.806E-03 0.000E+00

     total cpu time spent up to now is    49893.0 secs

     total energy              =  -12730.57742056 Ry
     Harris-Foulkes estimate   =  -12730.57742064 Ry
     estimated scf accuracy    <       0.00000029 Ry

     iteration #  8     ecut=    80.00 Ry     beta=0.70
     Davidson diagonalization with overlap
     ethr =  2.22E-11,  avg # of iterations =  3.0

     negative rho (up, down):  1.837E-03 0.000E+00

     total cpu time spent up to now is    50126.6 secs

     total energy              =  -12730.57742054 Ry
     Harris-Foulkes estimate   =  -12730.57742061 Ry
     estimated scf accuracy    <       0.00000007 Ry

     iteration #  9     ecut=    80.00 Ry     beta=0.70
     Davidson diagonalization with overlap
     ethr =  5.66E-12,  avg # of iterations =  2.5

     negative rho (up, down):  1.869E-03 0.000E+00

     total cpu time spent up to now is    50307.9 secs

     total energy              =  -12730.57742047 Ry
     Harris-Foulkes estimate   =  -12730.57742054 Ry
     estimated scf accuracy    <       0.00000007 Ry

     iteration # 10     ecut=    80.00 Ry     beta=0.70
     Davidson diagonalization with overlap
     ethr =  5.01E-12,  avg # of iterations =  2.5

     negative rho (up, down):  1.884E-03 0.000E+00

     total cpu time spent up to now is    50491.6 secs

     total energy              =  -12730.57742044 Ry
     Harris-Foulkes estimate   =  -12730.57742047 Ry
     estimated scf accuracy    <          8.9E-09 Ry

     iteration # 11     ecut=    80.00 Ry     beta=0.70
     Davidson diagonalization with overlap
