mpirun: INFO: switching to OpenMPI runtime version 1.10.2

     Program PWSCF v.5.4.0 starts on  7Jun2018 at  2: 2:27 

     This program is part of the open-source Quantum ESPRESSO suite
     for quantum simulation of materials; please cite
         "P. Giannozzi et al., J. Phys.:Condens. Matter 21 395502 (2009);
          URL http://www.quantum-espresso.org", 
     in publications or presentations arising from this work. More details at
     http://www.quantum-espresso.org/quote

     Parallel version (MPI & OpenMP), running on      56 processor cores
     Number of MPI processes:                56
     Threads/MPI process:                     1
     R & G space division:  proc/nbgrp/npool/nimage =      56
     Waiting for input...
     Reading input from standard input

     Current dimensions of program PWSCF are:
     Max number of different atomic species (ntypx) = 10
     Max number of k-points (npk) =  40000
     Max angular momentum in pseudopotentials (lmaxx) =  3

     -------------------------------------
     Parameters for Dispersion Correction:
     -------------------------------------
       atom      VdW radius       C_6     

        Cu         2.952        374.666
        C          2.744         60.710

     Subspace diagonalization in iterative solution of the eigenvalue problem:
     one sub-group per band group will be used
     scalapack distributed-memory algorithm (size of sub-group:  5*  5 procs)

 
     Parallelization info
     --------------------
     sticks:   dense  smooth     PW     G-vecs:    dense   smooth      PW
     Min         204     204     54                41002    41002    5558
     Max         205     205     55                41007    41007    5566
     Sum       11433   11433   3039              2296285  2296285  311493
 


     bravais-lattice index     =            0
     lattice parameter (alat)  =      13.9425  a.u.
     unit-cell volume          =   23754.1784 (a.u.)^3
     number of atoms/cell      =          196
     number of atomic types    =            2
     number of electrons       =      1484.00
     number of Kohn-Sham states=          890
     kinetic-energy cutoff     =      80.0000  Ry
     charge density cutoff     =     320.0000  Ry
     convergence threshold     =      1.0E-08
     mixing beta               =       0.7000
     number of iterations used =            8  local-TF  mixing
     Exchange-correlation      =  SLA  PW   PBX  PBC ( 1  4  3  4 0 0)
     nstep                     =           50


     celldm(1)=  13.942539  celldm(2)=   0.000000  celldm(3)=   0.000000
     celldm(4)=   0.000000  celldm(5)=   0.000000  celldm(6)=   0.000000

     crystal axes: (cart. coord. in units of alat)
               a(1) = (   1.000000   0.000000   0.000000 )  
               a(2) = (   0.000000   2.309401   0.000000 )  
               a(3) = (   0.000000   0.000000   3.795028 )  

     reciprocal axes: (cart. coord. in units 2 pi/alat)
               b(1) = (  1.000000  0.000000  0.000000 )  
               b(2) = (  0.000000  0.433013  0.000000 )  
               b(3) = (  0.000000  0.000000  0.263503 )  


     PseudoPot. # 1 for Cu read from file:
     /home/549/hxw549/Short/pseudopotentials/Cu.pbe-n-van_ak.UPF
     MD5 check sum: 601f7c30f7467666bec936e0661ce3e1
     Pseudo is Ultrasoft + core correction, Zval = 11.0
     Generated by new atomic code, or converted to UPF format
     Using radial grid of  867 points,  6 beta functions with: 
                l(1) =   0
                l(2) =   0
                l(3) =   1
                l(4) =   1
                l(5) =   2
                l(6) =   2
     Q(r) pseudized with  8 coefficients,  rinner =    1.400   1.400   1.400
                                                       1.400   1.400

     PseudoPot. # 2 for C  read from file:
     /home/549/hxw549/Short/pseudopotentials/C.pbe-mt_gipaw.UPF
     MD5 check sum: 5ac2f21f2c440b14befe521540822c15
     Pseudo is Norm-conserving, Zval =  4.0
     Generated by new atomic code, or converted to UPF format
     Using radial grid of 1073 points,  1 beta functions with: 
                l(1) =   0

     atomic species   valence    mass     pseudopotential
        Cu            11.00    63.54600     Cu( 1.00)
        C              4.00    12.01070     C ( 1.00)

      2 Sym. Ops. (no inversion) found



   Cartesian axes

     site n.     atom                  positions (alat units)
         1           Cu  tau(   1) = (   0.0000000   0.0000567   0.9971194  )
         2           Cu  tau(   2) = (   0.2499927   0.2309760   0.9972946  )
         3           Cu  tau(   3) = (   0.5000000   0.0000313   0.9971490  )
         4           Cu  tau(   4) = (   0.7500073   0.2309760   0.9972946  )
         5           Cu  tau(   5) = (   0.0000000   0.4618437   0.9973425  )
         6           Cu  tau(   6) = (   0.2499840   0.6927701   0.9971914  )
         7           Cu  tau(   7) = (   0.5000000   0.4618722   0.9973119  )
         8           Cu  tau(   8) = (   0.7500160   0.6927701   0.9971914  )
         9           Cu  tau(   9) = (   0.0000000   0.9237521   0.9970621  )
        10           Cu  tau(  10) = (   0.2500157   1.1547420   0.9971373  )
        11           Cu  tau(  11) = (   0.5000000   0.9237453   0.9970727  )
        12           Cu  tau(  12) = (   0.7499843   1.1547420   0.9971373  )
        13           Cu  tau(  13) = (   0.0000000   1.3856555   0.9972830  )
        14           Cu  tau(  14) = (   0.2500029   1.6165618   0.9973242  )
        15           Cu  tau(  15) = (   0.5000000   1.3857014   0.9973005  )
        16           Cu  tau(  16) = (   0.7499971   1.6165618   0.9973242  )
        17           Cu  tau(  17) = (   0.0000000   1.8474941   0.9971969  )
        18           Cu  tau(  18) = (   0.2500043   2.0784518   0.9970745  )
        19           Cu  tau(  19) = (   0.5000000   1.8474499   0.9971773  )
        20           Cu  tau(  20) = (   0.7499957   2.0784518   0.9970745  )
        21           Cu  tau(  21) = (   0.0000000   0.2308065   1.2457643  )
        22           Cu  tau(  22) = (   0.2499892  -0.0001010   1.2455764  )
        23           Cu  tau(  23) = (   0.5000000   0.2308938   1.2456746  )
        24           Cu  tau(  24) = (   0.7500108  -0.0001010   1.2455764  )
        25           Cu  tau(  25) = (   0.0000000   0.6929786   1.2456406  )
        26           Cu  tau(  26) = (   0.2499874   0.4619293   1.2457459  )
        27           Cu  tau(  27) = (   0.5000000   0.6929012   1.2456074  )
        28           Cu  tau(  28) = (   0.7500126   0.4619293   1.2457459  )
        29           Cu  tau(  29) = (   0.0000000   1.1546142   1.2455676  )
        30           Cu  tau(  30) = (   0.2499981   0.9237849   1.2455149  )
        31           Cu  tau(  31) = (   0.5000000   1.1545763   1.2455800  )
        32           Cu  tau(  32) = (   0.7500019   0.9237849   1.2455149  )
        33           Cu  tau(  33) = (   0.0000000   1.6166029   1.2456910  )
        34           Cu  tau(  34) = (   0.2500161   1.3855492   1.2457134  )
        35           Cu  tau(  35) = (   0.5000000   1.6166555   1.2458019  )
        36           Cu  tau(  36) = (   0.7499839   1.3855492   1.2457134  )
        37           Cu  tau(  37) = (   0.0000000   2.0784993   1.2455162  )
        38           Cu  tau(  38) = (   0.2500161   1.8476387   1.2456210  )
        39           Cu  tau(  39) = (   0.5000000   2.0784755   1.2455152  )
        40           Cu  tau(  40) = (   0.7499839   1.8476387   1.2456210  )
        41           Cu  tau(  41) = (   0.0000000  -0.0003182   1.4954305  )
        42           Cu  tau(  42) = (   0.2500224   0.2307186   1.4951678  )
        43           Cu  tau(  43) = (   0.5000000  -0.0002059   1.4952775  )
        44           Cu  tau(  44) = (   0.7499776   0.2307186   1.4951678  )
        45           Cu  tau(  45) = (   0.0000000   0.4620254   1.4950571  )
        46           Cu  tau(  46) = (   0.2500339   0.6931225   1.4952807  )
        47           Cu  tau(  47) = (   0.5000000   0.4619896   1.4952144  )
        48           Cu  tau(  48) = (   0.7499661   0.6931225   1.4952807  )
        49           Cu  tau(  49) = (   0.0000000   0.9238798   1.4954544  )
        50           Cu  tau(  50) = (   0.2499708   1.1544329   1.4953374  )
        51           Cu  tau(  51) = (   0.5000000   0.9237633   1.4954072  )
        52           Cu  tau(  52) = (   0.7500292   1.1544329   1.4953374  )
        53           Cu  tau(  53) = (   0.0000000   1.3854453   1.4952066  )
        54           Cu  tau(  54) = (   0.2499861   1.6167017   1.4951298  )
        55           Cu  tau(  55) = (   0.5000000   1.3853760   1.4951346  )
        56           Cu  tau(  56) = (   0.7500139   1.6167017   1.4951298  )
        57           Cu  tau(  57) = (   0.0000000   1.8477718   1.4952308  )
        58           Cu  tau(  58) = (   0.2499930   2.0785254   1.4954090  )
        59           Cu  tau(  59) = (   0.5000000   1.8478762   1.4953503  )
        60           Cu  tau(  60) = (   0.7500070   2.0785254   1.4954090  )
        61           Cu  tau(  61) = (   0.0000000   0.2310733   1.7440777  )
        62           Cu  tau(  62) = (   0.2501089  -0.0001294   1.7450479  )
        63           Cu  tau(  63) = (   0.5000000   0.2306045   1.7445985  )
        64           Cu  tau(  64) = (   0.7498911  -0.0001294   1.7450479  )
        65           Cu  tau(  65) = (   0.0000000   0.6927994   1.7446059  )
        66           Cu  tau(  66) = (   0.2502918   0.4619532   1.7441197  )
        67           Cu  tau(  67) = (   0.5000000   0.6931011   1.7451318  )
        68           Cu  tau(  68) = (   0.7497082   0.4619532   1.7441197  )
        69           Cu  tau(  69) = (   0.0000000   1.1545789   1.7453503  )
        70           Cu  tau(  70) = (   0.2500220   0.9237908   1.7453835  )
        71           Cu  tau(  71) = (   0.5000000   1.1545999   1.7449118  )
        72           Cu  tau(  72) = (   0.7499780   0.9237908   1.7453835  )
        73           Cu  tau(  73) = (   0.0000000   1.6167791   1.7444075  )
        74           Cu  tau(  74) = (   0.2497438   1.3855115   1.7442733  )
        75           Cu  tau(  75) = (   0.5000000   1.6164906   1.7439233  )
        76           Cu  tau(  76) = (   0.7502562   1.3855115   1.7442733  )
        77           Cu  tau(  77) = (   0.0000000   2.0782721   1.7455014  )
        78           Cu  tau(  78) = (   0.2498426   1.8476765   1.7447807  )
        79           Cu  tau(  79) = (   0.5000000   2.0787016   1.7454002  )
        80           Cu  tau(  80) = (   0.7501574   1.8476765   1.7447807  )
        81           Cu  tau(  81) = (   0.0000000   0.0010732   1.9906710  )
        82           Cu  tau(  82) = (   0.2503054   0.2314650   1.9904877  )
        83           Cu  tau(  83) = (   0.5000000   0.0001335   1.9924670  )
        84           Cu  tau(  84) = (   0.7496946   0.2314650   1.9904877  )
        85           Cu  tau(  85) = (   0.0000000   0.4618379   1.9901778  )
        86           Cu  tau(  86) = (   0.2508441   0.6921348   1.9910282  )
        87           Cu  tau(  87) = (   0.5000000   0.4613052   1.9913358  )
        88           Cu  tau(  88) = (   0.7491559   0.6921348   1.9910282  )
        89           Cu  tau(  89) = (   0.0000000   0.9224699   1.9915918  )
        90           Cu  tau(  90) = (   0.2491275   1.1552920   1.9912642  )
        91           Cu  tau(  91) = (   0.5000000   0.9247757   1.9920574  )
        92           Cu  tau(  92) = (   0.7508725   1.1552920   1.9912642  )
        93           Cu  tau(  93) = (   0.0000000   1.3865904   1.9916296  )
        94           Cu  tau(  94) = (   0.2499532   1.6162906   1.9903050  )
        95           Cu  tau(  95) = (   0.5000000   1.3858063   1.9901800  )
        96           Cu  tau(  96) = (   0.7500468   1.6162906   1.9903050  )
        97           Cu  tau(  97) = (   0.0000000   1.8468318   1.9923212  )
        98           Cu  tau(  98) = (   0.2497561   2.0783183   1.9915134  )
        99           Cu  tau(  99) = (   0.5000000   1.8467805   1.9903847  )
       100           Cu  tau( 100) = (   0.7502439   2.0783183   1.9915134  )
       101           C   tau( 101) = (   0.0000000   0.0962962   2.3888871  )
       102           C   tau( 102) = (   0.0000000   0.2886925   2.3900713  )
       103           C   tau( 103) = (   0.1666323   0.0000435   2.3878440  )
       104           C   tau( 104) = (   0.1664900   0.3848966   2.3886743  )
       105           C   tau( 105) = (   0.3331238   0.0962174   2.3860158  )
       106           C   tau( 106) = (   0.3331280   0.2886629   2.3856823  )
       107           C   tau( 107) = (   0.5000000  -0.0000818   2.3845687  )
       108           C   tau( 108) = (   0.5000000   0.3849277   2.3842391  )
       109           C   tau( 109) = (   0.6668762   0.0962174   2.3860158  )
       110           C   tau( 110) = (   0.6668720   0.2886629   2.3856823  )
       111           C   tau( 111) = (   0.8333677   0.0000435   2.3878440  )
       112           C   tau( 112) = (   0.8335100   0.3848966   2.3886743  )
       113           C   tau( 113) = (   0.0000000   0.6735163   2.3892509  )
       114           C   tau( 114) = (   0.0000000   0.8659398   2.3870960  )
       115           C   tau( 115) = (   0.1664759   0.5773226   2.3882842  )
       116           C   tau( 116) = (   0.1667428   0.9622141   2.3870264  )
       117           C   tau( 117) = (   0.3332094   0.6735984   2.3858047  )
       118           C   tau( 118) = (   0.3332031   0.8660537   2.3866148  )
       119           C   tau( 119) = (   0.5000000   0.5773685   2.3848465  )
       120           C   tau( 120) = (   0.5000000   0.9623380   2.4460218  )
       121           C   tau( 121) = (   0.6667906   0.6735984   2.3858047  )
       122           C   tau( 122) = (   0.6667969   0.8660537   2.3866148  )
       123           C   tau( 123) = (   0.8335241   0.5773226   2.3882842  )
       124           C   tau( 124) = (   0.8332572   0.9622141   2.3870264  )
       125           C   tau( 125) = (   0.0000000   1.2508867   2.3852683  )
       126           C   tau( 126) = (   0.0000000   1.4433300   2.3840871  )
       127           C   tau( 127) = (   0.1667360   1.1546708   2.3859697  )
       128           C   tau( 128) = (   0.1668939   1.5396104   2.3857176  )
       129           C   tau( 129) = (   0.3335095   1.2509657   2.4421100  )
       130           C   tau( 130) = (   0.3334866   1.4433958   2.3886602  )
       131           C   tau( 131) = (   0.5000000   1.1547731   2.5318261  )
       132           C   tau( 132) = (   0.5000000   1.5396099   2.3901428  )
       133           C   tau( 133) = (   0.6664905   1.2509657   2.4421100  )
       134           C   tau( 134) = (   0.6665134   1.4433958   2.3886602  )
       135           C   tau( 135) = (   0.8332640   1.1546708   2.3859697  )
       136           C   tau( 136) = (   0.8331061   1.5396104   2.3857176  )
       137           C   tau( 137) = (   0.0000000   1.8283510   2.3842019  )
       138           C   tau( 138) = (   0.0000000   2.0207949   2.3863399  )
       139           C   tau( 139) = (   0.1668959   1.7320513   2.3858703  )
       140           C   tau( 140) = (   0.1666186   2.1169980   2.3865340  )
       141           C   tau( 141) = (   0.3334155   1.8282368   2.3882160  )
       142           C   tau( 142) = (   0.3334352   2.0206763   2.3869561  )
       143           C   tau( 143) = (   0.5000000   1.7319961   2.3895398  )
       144           C   tau( 144) = (   0.5000000   2.1168754   2.3870198  )
       145           C   tau( 145) = (   0.6665845   1.8282368   2.3882160  )
       146           C   tau( 146) = (   0.6665648   2.0206763   2.3869561  )
       147           C   tau( 147) = (   0.8331041   1.7320513   2.3858703  )
       148           C   tau( 148) = (   0.8333814   2.1169980   2.3865340  )
       149           C   tau( 149) = (   0.0000000   0.2887583   2.8361602  )
       150           C   tau( 150) = (   0.0000000   0.4811540   2.8373394  )
       151           C   tau( 151) = (   0.1666323   0.1925055   2.8351166  )
       152           C   tau( 152) = (   0.1664900   0.5773594   2.8359434  )
       153           C   tau( 153) = (   0.3331238   0.2886797   2.8332869  )
       154           C   tau( 154) = (   0.3331280   0.4811256   2.8329480  )
       155           C   tau( 155) = (   0.5000000   0.1923808   2.8318366  )
       156           C   tau( 156) = (   0.5000000   0.5773892   2.8315113  )
       157           C   tau( 157) = (   0.6668762   0.2886797   2.8332869  )
       158           C   tau( 158) = (   0.6668720   0.4811256   2.8329480  )
       159           C   tau( 159) = (   0.8333677   0.1925055   2.8351166  )
       160           C   tau( 160) = (   0.8335100   0.5773594   2.8359434  )
       161           C   tau( 161) = (   0.0000000   0.8659780   2.8365262  )
       162           C   tau( 162) = (   0.0000000   1.0584022   2.8343711  )
       163           C   tau( 163) = (   0.1664759   0.7697849   2.8355503  )
       164           C   tau( 164) = (   0.1667428   1.1546767   2.8343034  )
       165           C   tau( 165) = (   0.3332094   0.8660607   2.8330700  )
       166           C   tau( 166) = (   0.3332031   1.0585161   2.7796685  )
       167           C   tau( 167) = (   0.5000000   0.7698310   2.8321212  )
       168           C   tau( 168) = (   0.5000000   1.1548000   2.7175114  )
       169           C   tau( 169) = (   0.6667906   0.8660607   2.8330700  )
       170           C   tau( 170) = (   0.6667969   1.0585161   2.7796685  )
       171           C   tau( 171) = (   0.8335241   0.7697849   2.8355503  )
       172           C   tau( 172) = (   0.8332572   1.1546767   2.8343034  )
       173           C   tau( 173) = (   0.0000000   1.4433442   2.8325414  )
       174           C   tau( 174) = (   0.0000000   1.6357928   2.8313622  )
       175           C   tau( 175) = (   0.1667360   1.3471334   2.8332462  )
       176           C   tau( 176) = (   0.1668939   1.7320781   2.8329887  )
       177           C   tau( 177) = (   0.3335095   1.4434255   2.8351708  )
       178           C   tau( 178) = (   0.3334866   1.6358605   2.8359298  )
       179           C   tau( 179) = (   0.5000000   1.3472351   2.7816067  )
       180           C   tau( 180) = (   0.5000000   1.7320781   2.8374207  )
       181           C   tau( 181) = (   0.6664905   1.4434255   2.8351708  )
       182           C   tau( 182) = (   0.6665134   1.6358605   2.8359298  )
       183           C   tau( 183) = (   0.8332640   1.3471334   2.8332462  )
       184           C   tau( 184) = (   0.8331061   1.7320781   2.8329887  )
       185           C   tau( 185) = (   0.0000000   2.0208119   2.8314707  )
       186           C   tau( 186) = (   0.0000000   2.2132605   2.8336121  )
       187           C   tau( 187) = (   0.1668959   1.9245131   2.8331378  )
       188           C   tau( 188) = (   0.1666186   2.3094645   2.8338019  )
       189           C   tau( 189) = (   0.3334155   2.0207035   2.8354825  )
       190           C   tau( 190) = (   0.3334352   2.2131386   2.8342221  )
       191           C   tau( 191) = (   0.5000000   1.9244589   2.8368108  )
       192           C   tau( 192) = (   0.5000000   2.3093425   2.8342898  )
       193           C   tau( 193) = (   0.6665845   2.0207035   2.8354825  )
       194           C   tau( 194) = (   0.6665648   2.2131386   2.8342221  )
       195           C   tau( 195) = (   0.8331041   1.9245131   2.8331378  )
       196           C   tau( 196) = (   0.8333814   2.3094645   2.8338019  )

     number of k points=     6  gaussian smearing, width (Ry)=  0.1000
                       cart. coord. in units 2pi/alat
        k(    1) = (   0.0000000   0.0000000   0.0000000), wk =   0.2500000
        k(    2) = (   0.0000000  -0.2165064   0.0000000), wk =   0.2500000
        k(    3) = (   0.2500000   0.0000000   0.0000000), wk =   0.5000000
        k(    4) = (   0.2500000  -0.2165064   0.0000000), wk =   0.5000000
        k(    5) = (  -0.5000000   0.0000000   0.0000000), wk =   0.2500000
        k(    6) = (  -0.5000000  -0.2165064   0.0000000), wk =   0.2500000

     Dense  grid:  2296285 G-vectors     FFT dimensions: (  80, 192, 320)

     Largest allocated arrays     est. size (Mb)     dimensions
        Kohn-Sham Wavefunctions        70.21 Mb     (    5170,  890)
        NL pseudopotentials           149.57 Mb     (    5170, 1896)
        Each V/rho on FFT grid          1.41 Mb     (   92160)
        Each G-vector array             0.31 Mb     (   41004)
        G-vector shells                 0.15 Mb     (   19782)
     Largest temporary arrays     est. size (Mb)     dimensions
        Auxiliary wavefunctions       280.84 Mb     (    5170, 3560)
        Each subspace H/S matrix        7.74 Mb     (     712,  712)
        Each <psi_i|beta_j> matrix     25.75 Mb     (    1896,  890)
        Arrays for rho mixing          11.25 Mb     (   92160,    8)

     Initial potential from superposition of free atoms
     Check: negative starting charge=   -0.001587

     starting charge 1434.81745, renormalised to 1484.00000

     negative rho (up, down):  1.641E-03 0.000E+00
     Starting wfc are 1668 randomized atomic wfcs

     total cpu time spent up to now is      162.1 secs

     Self-consistent Calculation

     iteration #  1     ecut=    80.00 Ry     beta=0.70
     Davidson diagonalization with overlap
     ethr =  1.00E-04,  avg # of iterations = 44.7

     negative rho (up, down):  8.044E+00 0.000E+00

     total cpu time spent up to now is     4427.9 secs

     total energy              =  -19395.94402872 Ry
     Harris-Foulkes estimate   =  -26062.88321764 Ry
     estimated scf accuracy    <  269006.09986957 Ry

     iteration #  2     ecut=    80.00 Ry     beta=0.70
     Davidson diagonalization with overlap
     ethr =  1.00E-02,  avg # of iterations =  9.3

     negative rho (up, down):  5.310E+01 0.000E+00

     total cpu time spent up to now is     5346.3 secs

     total energy              =   -7156.65518496 Ry
     Harris-Foulkes estimate   =  -19748.41686579 Ry
     estimated scf accuracy    <  215446.89947851 Ry

     iteration #  3     ecut=    80.00 Ry     beta=0.70
     Davidson diagonalization with overlap
     ethr =  1.00E-02,  avg # of iterations = 13.0

     negative rho (up, down):  1.367E+01 0.000E+00

     total cpu time spent up to now is     7008.6 secs

     total energy              =  -11198.96922104 Ry
     Harris-Foulkes estimate   =  -19967.39010231 Ry
     estimated scf accuracy    <   36924.48432363 Ry

     iteration #  4     ecut=    80.00 Ry     beta=0.70
     Davidson diagonalization with overlap
     ethr =  1.00E-02,  avg # of iterations = 13.3

     negative rho (up, down):  1.402E+01 0.000E+00

     total cpu time spent up to now is     8679.1 secs

     total energy              =  -14391.59336385 Ry
     Harris-Foulkes estimate   =  -14355.26452917 Ry
     estimated scf accuracy    <   68114.74995668 Ry

     iteration #  5     ecut=    80.00 Ry     beta=0.70
     Davidson diagonalization with overlap
     ethr =  1.00E-02,  avg # of iterations =  1.5

     negative rho (up, down):  1.388E+01 0.000E+00

     total cpu time spent up to now is     8907.6 secs

     total energy              =  -13857.00495887 Ry
     Harris-Foulkes estimate   =  -14392.94258319 Ry
     estimated scf accuracy    <   69683.14547398 Ry

     iteration #  6     ecut=    80.00 Ry     beta=0.70
     Davidson diagonalization with overlap
     ethr =  1.00E-02,  avg # of iterations =  7.2

     negative rho (up, down):  1.039E+01 0.000E+00

     total cpu time spent up to now is     9643.3 secs

     total energy              =  -13700.82218775 Ry
     Harris-Foulkes estimate   =  -14261.54636352 Ry
     estimated scf accuracy    <   12001.23779643 Ry

     iteration #  7     ecut=    80.00 Ry     beta=0.70
     Davidson diagonalization with overlap
     ethr =  1.00E-02,  avg # of iterations =  6.8

     negative rho (up, down):  1.007E+01 0.000E+00

     total cpu time spent up to now is    10269.2 secs

     total energy              =  -13316.80849700 Ry
     Harris-Foulkes estimate   =  -13854.93680434 Ry
     estimated scf accuracy    <   10708.08890950 Ry

     iteration #  8     ecut=    80.00 Ry     beta=0.70
     Davidson diagonalization with overlap
     ethr =  1.00E-02,  avg # of iterations =  6.0

     negative rho (up, down):  8.290E+00 0.000E+00

     total cpu time spent up to now is    10963.6 secs

     total energy              =  -13336.84910431 Ry
     Harris-Foulkes estimate   =  -13557.65370011 Ry
     estimated scf accuracy    <    2754.91917886 Ry

     iteration #  9     ecut=    80.00 Ry     beta=0.70
     Davidson diagonalization with overlap
     ethr =  1.00E-02,  avg # of iterations =  4.0

     negative rho (up, down):  7.406E+00 0.000E+00

     total cpu time spent up to now is    11334.9 secs

     total energy              =  -13322.52513392 Ry
     Harris-Foulkes estimate   =  -13400.44271031 Ry
     estimated scf accuracy    <    1343.36615215 Ry

     iteration # 10     ecut=    80.00 Ry     beta=0.70
     Davidson diagonalization with overlap
     ethr =  1.00E-02,  avg # of iterations =  3.0

     negative rho (up, down):  4.914E+00 0.000E+00

     total cpu time spent up to now is    11624.0 secs

     total energy              =  -13239.07271883 Ry
     Harris-Foulkes estimate   =  -13351.22765721 Ry
     estimated scf accuracy    <     762.56875667 Ry

     iteration # 11     ecut=    80.00 Ry     beta=0.70
     Davidson diagonalization with overlap
     ethr =  1.00E-02,  avg # of iterations =  3.2

     negative rho (up, down):  4.236E+00 0.000E+00

     total cpu time spent up to now is    11920.3 secs

     total energy              =  -13260.17839181 Ry
     Harris-Foulkes estimate   =  -13298.70655761 Ry
     estimated scf accuracy    <     396.48185113 Ry

     iteration # 12     ecut=    80.00 Ry     beta=0.70
     Davidson diagonalization with overlap
     ethr =  1.00E-02,  avg # of iterations =  1.0

     negative rho (up, down):  3.504E+00 0.000E+00

     total cpu time spent up to now is    12141.3 secs

     total energy              =  -13248.84218421 Ry
     Harris-Foulkes estimate   =  -13273.43678979 Ry
     estimated scf accuracy    <     231.64006781 Ry

     iteration # 13     ecut=    80.00 Ry     beta=0.70
     Davidson diagonalization with overlap
     ethr =  1.00E-02,  avg # of iterations =  2.0

     negative rho (up, down):  2.827E+00 0.000E+00

     total cpu time spent up to now is    12381.3 secs

     total energy              =  -13255.54022759 Ry
     Harris-Foulkes estimate   =  -13264.42271520 Ry
     estimated scf accuracy    <      63.04992678 Ry

     iteration # 14     ecut=    80.00 Ry     beta=0.70
     Davidson diagonalization with overlap
     ethr =  4.25E-03,  avg # of iterations =  2.2

     negative rho (up, down):  2.751E+00 0.000E+00

     total cpu time spent up to now is    12622.9 secs

     total energy              =  -13258.35683967 Ry
     Harris-Foulkes estimate   =  -13259.11811069 Ry
     estimated scf accuracy    <     122.50056690 Ry

     iteration # 15     ecut=    80.00 Ry     beta=0.70
     Davidson diagonalization with overlap
     ethr =  4.25E-03,  avg # of iterations =  1.2

     negative rho (up, down):  1.442E+00 0.000E+00

     total cpu time spent up to now is    12849.1 secs

     total energy              =  -13253.06487646 Ry
     Harris-Foulkes estimate   =  -13258.55326529 Ry
     estimated scf accuracy    <      88.72644274 Ry

     iteration # 16     ecut=    80.00 Ry     beta=0.70
     Davidson diagonalization with overlap
     ethr =  4.25E-03,  avg # of iterations =  1.8

     negative rho (up, down):  9.397E-01 0.000E+00

     total cpu time spent up to now is    13085.1 secs

     total energy              =  -13251.81745987 Ry
     Harris-Foulkes estimate   =  -13256.31673629 Ry
     estimated scf accuracy    <     303.64391345 Ry

     iteration # 17     ecut=    80.00 Ry     beta=0.70
     Davidson diagonalization with overlap
     ethr =  4.25E-03,  avg # of iterations =  2.5

     negative rho (up, down):  2.606E-01 0.000E+00

     total cpu time spent up to now is    13333.1 secs

     total energy              =  -13248.75744353 Ry
     Harris-Foulkes estimate   =  -13252.81325567 Ry
     estimated scf accuracy    <      99.17740934 Ry

     iteration # 18     ecut=    80.00 Ry     beta=0.70
     Davidson diagonalization with overlap
     ethr =  4.25E-03,  avg # of iterations =  1.3

     negative rho (up, down):  2.419E-01 0.000E+00

     total cpu time spent up to now is    13564.1 secs

     total energy              =  -13247.90878131 Ry
     Harris-Foulkes estimate   =  -13250.44936478 Ry
     estimated scf accuracy    <      60.75574745 Ry

     iteration # 19     ecut=    80.00 Ry     beta=0.70
     Davidson diagonalization with overlap
     ethr =  4.09E-03,  avg # of iterations =  1.3

     negative rho (up, down):  3.077E-01 0.000E+00

     total cpu time spent up to now is    13792.3 secs

     total energy              =  -13247.89137800 Ry
     Harris-Foulkes estimate   =  -13249.21142361 Ry
     estimated scf accuracy    <      17.68941276 Ry

     iteration # 20     ecut=    80.00 Ry     beta=0.70
     Davidson diagonalization with overlap
     ethr =  1.19E-03,  avg # of iterations =  9.7

     negative rho (up, down):  3.861E-01 0.000E+00

     total cpu time spent up to now is    14178.4 secs

     total energy              =  -13247.30302684 Ry
     Harris-Foulkes estimate   =  -13248.59027343 Ry
     estimated scf accuracy    <      21.37064582 Ry

     iteration # 21     ecut=    80.00 Ry     beta=0.70
     Davidson diagonalization with overlap
     ethr =  1.19E-03,  avg # of iterations =  1.0

     negative rho (up, down):  4.535E-01 0.000E+00

     total cpu time spent up to now is    14401.4 secs

     total energy              =  -13247.36076378 Ry
     Harris-Foulkes estimate   =  -13247.89862393 Ry
     estimated scf accuracy    <      12.08078207 Ry

     iteration # 22     ecut=    80.00 Ry     beta=0.70
     Davidson diagonalization with overlap
     ethr =  8.14E-04,  avg # of iterations =  1.0

     negative rho (up, down):  4.544E-01 0.000E+00

     total cpu time spent up to now is    14624.9 secs

     total energy              =  -13247.26865657 Ry
     Harris-Foulkes estimate   =  -13247.49247730 Ry
     estimated scf accuracy    <       6.66464005 Ry

     iteration # 23     ecut=    80.00 Ry     beta=0.70
     Davidson diagonalization with overlap
     ethr =  4.49E-04,  avg # of iterations =  1.0

     negative rho (up, down):  5.021E-01 0.000E+00

     total cpu time spent up to now is    14847.7 secs

     total energy              =  -13246.95227605 Ry
     Harris-Foulkes estimate   =  -13247.35923119 Ry
     estimated scf accuracy    <       5.40830172 Ry

     iteration # 24     ecut=    80.00 Ry     beta=0.70
     Davidson diagonalization with overlap
     ethr =  3.64E-04,  avg # of iterations =  3.0

     negative rho (up, down):  6.364E-01 0.000E+00

     total cpu time spent up to now is    15102.4 secs

     total energy              =  -13246.82438642 Ry
     Harris-Foulkes estimate   =  -13247.05003940 Ry
     estimated scf accuracy    <       2.38885799 Ry

     iteration # 25     ecut=    80.00 Ry     beta=0.70
     Davidson diagonalization with overlap
     ethr =  1.61E-04,  avg # of iterations =  6.8

     negative rho (up, down):  4.114E-01 0.000E+00

     total cpu time spent up to now is    15420.1 secs

     total energy              =  -13246.69222126 Ry
     Harris-Foulkes estimate   =  -13246.87529026 Ry
     estimated scf accuracy    <       1.12999959 Ry

     iteration # 26     ecut=    80.00 Ry     beta=0.70
     Davidson diagonalization with overlap
     ethr =  7.61E-05,  avg # of iterations =  5.7

     negative rho (up, down):  4.139E-01 0.000E+00

     total cpu time spent up to now is    15716.4 secs

     total energy              =  -13246.59063709 Ry
     Harris-Foulkes estimate   =  -13246.70648246 Ry
     estimated scf accuracy    <       0.93066160 Ry

     iteration # 27     ecut=    80.00 Ry     beta=0.70
     Davidson diagonalization with overlap
     ethr =  6.27E-05,  avg # of iterations =  5.5

     negative rho (up, down):  3.263E-01 0.000E+00

     total cpu time spent up to now is    16014.4 secs

     total energy              =  -13246.46442048 Ry
     Harris-Foulkes estimate   =  -13246.59964328 Ry
     estimated scf accuracy    <       0.64653320 Ry

     iteration # 28     ecut=    80.00 Ry     beta=0.70
     Davidson diagonalization with overlap
     ethr =  4.36E-05,  avg # of iterations =  6.8

     negative rho (up, down):  2.940E-01 0.000E+00

     total cpu time spent up to now is    16330.7 secs

     total energy              =  -13246.40327773 Ry
     Harris-Foulkes estimate   =  -13246.50250170 Ry
     estimated scf accuracy    <       0.55011207 Ry

     iteration # 29     ecut=    80.00 Ry     beta=0.70
     Davidson diagonalization with overlap
     ethr =  3.71E-05,  avg # of iterations =  8.0

     negative rho (up, down):  1.889E-01 0.000E+00

     total cpu time spent up to now is    16674.4 secs

     total energy              =  -13246.36803426 Ry
     Harris-Foulkes estimate   =  -13246.42287691 Ry
     estimated scf accuracy    <       0.33734530 Ry

     iteration # 30     ecut=    80.00 Ry     beta=0.70
     Davidson diagonalization with overlap
     ethr =  2.27E-05,  avg # of iterations =  8.5

     negative rho (up, down):  2.025E-01 0.000E+00

     total cpu time spent up to now is    17023.2 secs

     total energy              =  -13246.34827329 Ry
     Harris-Foulkes estimate   =  -13246.38017804 Ry
     estimated scf accuracy    <       0.17105096 Ry

     iteration # 31     ecut=    80.00 Ry     beta=0.70
     Davidson diagonalization with overlap
     ethr =  1.15E-05,  avg # of iterations =  8.7

     negative rho (up, down):  2.092E-01 0.000E+00

     total cpu time spent up to now is    17378.2 secs

     total energy              =  -13246.32432482 Ry
     Harris-Foulkes estimate   =  -13246.35265417 Ry
     estimated scf accuracy    <       0.10743235 Ry

     iteration # 32     ecut=    80.00 Ry     beta=0.70
     Davidson diagonalization with overlap
     ethr =  7.24E-06,  avg # of iterations = 10.0

     negative rho (up, down):  1.868E-01 0.000E+00

     total cpu time spent up to now is    17764.6 secs

     total energy              =  -13246.32282356 Ry
     Harris-Foulkes estimate   =  -13246.33156447 Ry
     estimated scf accuracy    <       0.06116813 Ry

     iteration # 33     ecut=    80.00 Ry     beta=0.70
     Davidson diagonalization with overlap
     ethr =  4.12E-06,  avg # of iterations = 11.2

     negative rho (up, down):  1.465E-01 0.000E+00

     total cpu time spent up to now is    18181.7 secs

     total energy              =  -13246.32859612 Ry
     Harris-Foulkes estimate   =  -13246.32715490 Ry
     estimated scf accuracy    <       0.02037841 Ry

     iteration # 34     ecut=    80.00 Ry     beta=0.70
     Davidson diagonalization with overlap
     ethr =  1.37E-06,  avg # of iterations =  6.2

     negative rho (up, down):  1.282E-01 0.000E+00

     total cpu time spent up to now is    18507.3 secs

     total energy              =  -13246.32908030 Ry
     Harris-Foulkes estimate   =  -13246.33005247 Ry
     estimated scf accuracy    <       0.01066714 Ry

     iteration # 35     ecut=    80.00 Ry     beta=0.70
     Davidson diagonalization with overlap
     ethr =  7.19E-07,  avg # of iterations =  5.8

     negative rho (up, down):  5.025E-02 0.000E+00

     total cpu time spent up to now is    18812.3 secs

     total energy              =  -13246.32749626 Ry
     Harris-Foulkes estimate   =  -13246.32976602 Ry
     estimated scf accuracy    <       0.00412036 Ry

     iteration # 36     ecut=    80.00 Ry     beta=0.70
     Davidson diagonalization with overlap
     c_bands:  1 eigenvalues not converged
     ethr =  2.78E-07,  avg # of iterations = 12.8

     negative rho (up, down):  2.183E-02 0.000E+00

     total cpu time spent up to now is    19271.3 secs

     total energy              =  -13246.32727793 Ry
     Harris-Foulkes estimate   =  -13246.32777394 Ry
     estimated scf accuracy    <       0.00135666 Ry

     iteration # 37     ecut=    80.00 Ry     beta=0.70
     Davidson diagonalization with overlap
     c_bands:  2 eigenvalues not converged
     ethr =  9.14E-08,  avg # of iterations = 10.5

     negative rho (up, down):  1.649E-02 0.000E+00

     total cpu time spent up to now is    19676.0 secs

     total energy              =  -13246.32727093 Ry
     Harris-Foulkes estimate   =  -13246.32737209 Ry
     estimated scf accuracy    <       0.00036574 Ry

     iteration # 38     ecut=    80.00 Ry     beta=0.70
     Davidson diagonalization with overlap
     ethr =  2.46E-08,  avg # of iterations =  5.0

     negative rho (up, down):  7.784E-03 0.000E+00

     total cpu time spent up to now is    19973.4 secs

     total energy              =  -13246.32721627 Ry
     Harris-Foulkes estimate   =  -13246.32729816 Ry
     estimated scf accuracy    <       0.00009397 Ry

     iteration # 39     ecut=    80.00 Ry     beta=0.70
     Davidson diagonalization with overlap
     ethr =  6.33E-09,  avg # of iterations =  8.8

     negative rho (up, down):  3.144E-03 0.000E+00

     total cpu time spent up to now is    20345.9 secs

     total energy              =  -13246.32716559 Ry
     Harris-Foulkes estimate   =  -13246.32722451 Ry
     estimated scf accuracy    <       0.00004252 Ry

     iteration # 40     ecut=    80.00 Ry     beta=0.70
     Davidson diagonalization with overlap
     c_bands:  1 eigenvalues not converged
     ethr =  2.87E-09,  avg # of iterations =  9.7

     negative rho (up, down):  2.177E-03 0.000E+00

     total cpu time spent up to now is    20736.3 secs

     total energy              =  -13246.32716141 Ry
     Harris-Foulkes estimate   =  -13246.32717018 Ry
     estimated scf accuracy    <       0.00002085 Ry

     iteration # 41     ecut=    80.00 Ry     beta=0.70
     Davidson diagonalization with overlap
     c_bands:  1 eigenvalues not converged
     ethr =  1.40E-09,  avg # of iterations =  5.8

     negative rho (up, down):  1.947E-03 0.000E+00

     total cpu time spent up to now is    21055.7 secs

     total energy              =  -13246.32716544 Ry
     Harris-Foulkes estimate   =  -13246.32716381 Ry
     estimated scf accuracy    <       0.00000587 Ry

     iteration # 42     ecut=    80.00 Ry     beta=0.70
     Davidson diagonalization with overlap
     ethr =  3.96E-10,  avg # of iterations =  3.7

     negative rho (up, down):  1.745E-03 0.000E+00

     total cpu time spent up to now is    21337.9 secs

     total energy              =  -13246.32716607 Ry
     Harris-Foulkes estimate   =  -13246.32716611 Ry
     estimated scf accuracy    <       0.00000122 Ry

     iteration # 43     ecut=    80.00 Ry     beta=0.70
     Davidson diagonalization with overlap
     ethr =  8.20E-11,  avg # of iterations =  3.2

     negative rho (up, down):  1.707E-03 0.000E+00

     total cpu time spent up to now is    21630.9 secs

     total energy              =  -13246.32716613 Ry
     Harris-Foulkes estimate   =  -13246.32716626 Ry
     estimated scf accuracy    <       0.00000055 Ry

     iteration # 44     ecut=    80.00 Ry     beta=0.70
     Davidson diagonalization with overlap
     ethr =  3.71E-11,  avg # of iterations =  3.0

     negative rho (up, down):  1.714E-03 0.000E+00

     total cpu time spent up to now is    21899.1 secs

     total energy              =  -13246.32716615 Ry
     Harris-Foulkes estimate   =  -13246.32716619 Ry
     estimated scf accuracy    <       0.00000016 Ry

     iteration # 45     ecut=    80.00 Ry     beta=0.70
     Davidson diagonalization with overlap
     ethr =  1.09E-11,  avg # of iterations =  2.0

     negative rho (up, down):  1.724E-03 0.000E+00

     total cpu time spent up to now is    22158.2 secs

     total energy              =  -13246.32716617 Ry
     Harris-Foulkes estimate   =  -13246.32716618 Ry
     estimated scf accuracy    <       0.00000008 Ry

     iteration # 46     ecut=    80.00 Ry     beta=0.70
     Davidson diagonalization with overlap
     ethr =  5.33E-12,  avg # of iterations =  2.0

     negative rho (up, down):  1.751E-03 0.000E+00

     total cpu time spent up to now is    22405.3 secs

     total energy              =  -13246.32716625 Ry
     Harris-Foulkes estimate   =  -13246.32716618 Ry
     estimated scf accuracy    <       0.00000002 Ry

     iteration # 47     ecut=    80.00 Ry     beta=0.70
     Davidson diagonalization with overlap
     ethr =  1.22E-12,  avg # of iterations =  3.8

     negative rho (up, down):  1.760E-03 0.000E+00

     total cpu time spent up to now is    22724.6 secs

     total energy              =  -13246.32716627 Ry
     Harris-Foulkes estimate   =  -13246.32716625 Ry
     estimated scf accuracy    <       0.00000001 Ry

     iteration # 48     ecut=    80.00 Ry     beta=0.70
     Davidson diagonalization with overlap
     ethr =  7.50E-13,  avg # of iterations =  3.0

     negative rho (up, down):  1.740E-03 0.000E+00

     total cpu time spent up to now is    22977.4 secs

     End of self-consistent calculation

          k = 0.0000 0.0000 0.0000 (286991 PWs)   bands (ev):

   -15.6381 -15.3981 -15.2217 -15.2157 -14.9220 -14.8248 -14.3377 -14.0568
   -13.8731 -13.7731 -13.6600 -13.6035 -13.5044 -13.3191 -13.2660 -13.2609
   -13.2410 -13.1202 -12.9856 -12.9642 -12.8302 -12.7850 -12.4699 -12.2631
   -12.2498 -12.1504 -12.0871 -12.0800 -11.9909 -11.9801 -11.8764 -11.7960
   -11.7955 -11.6472 -10.7914 -10.4473 -10.4158 -10.3855 -10.2960 -10.1763
   -10.1457 -10.1433 -10.0897  -9.9791  -9.1814  -9.0604  -8.8926  -8.5398
    -8.5139  -8.5077  -8.3379  -8.3326  -8.3201  -8.2850  -7.8766  -7.6929
    -7.6891  -7.6518  -7.4641  -7.4595  -7.4430  -7.3560  -6.9974  -6.7520
    -6.6836  -6.6566  -6.6333  -6.6095  -6.5247  -6.5151  -6.4369  -6.4315
    -6.3948  -6.3657  -6.3300  -6.3121  -6.2473  -6.1561  -5.5385  -5.2521
    -5.1788  -5.1471  -4.9983  -4.9892  -4.9201  -4.9056  -4.8609  -4.8500
    -4.7887  -4.7816  -4.7193  -4.7155  -4.7108  -4.6732  -4.6290  -4.5326
    -4.5123  -4.3946  -4.2376  -3.9936  -3.9607  -3.8171  -3.7733  -3.7641
    -3.5431  -3.5251  -3.4941  -3.4671  -3.4079  -3.2775  -3.2218  -3.2193
    -3.1723  -3.1150  -2.9176  -2.8824  -2.8431  -2.7141  -2.6451  -2.6402
    -2.6267  -2.6118  -2.5298  -2.5030  -2.4726  -2.4599  -2.4303  -2.4090
    -2.4065  -2.3716  -2.3509  -2.3148  -2.3015  -2.2837  -2.2421  -2.2410
    -2.2396  -2.2370  -2.2012  -2.1947  -2.1466  -2.1448  -2.1275  -2.0929
    -1.9638  -1.9589  -1.9509  -1.9171  -1.9080  -1.8994  -1.8436  -1.7408
    -1.7362  -1.6954  -1.6678  -1.6559  -1.6322  -1.6074  -1.5910  -1.5786
    -1.5411  -1.5204  -1.4508  -1.4251  -1.4249  -1.4213  -1.3868  -1.3849
    -1.3846  -1.3845  -1.3835  -1.3605  -1.3323  -1.3064  -1.2585  -1.2525
    -1.2525  -1.2508  -1.2454  -1.1882  -1.0886  -1.0795  -1.0679  -1.0151
    -1.0075  -0.9683  -0.9663  -0.9650  -0.9643  -0.9277  -0.9085  -0.9020
    -0.8968  -0.8893  -0.8872  -0.8615  -0.8433  -0.8284  -0.8205  -0.7997
    -0.7985  -0.7974  -0.7949  -0.7941  -0.7890  -0.7751  -0.7646  -0.7460
    -0.7443  -0.7409  -0.6469  -0.6435  -0.6375  -0.6286  -0.6089  -0.5996
    -0.5826  -0.5614  -0.5605  -0.5284  -0.5120  -0.4944  -0.4924  -0.4887
    -0.4806  -0.4761  -0.4413  -0.4408  -0.4214  -0.4192  -0.4115  -0.3974
    -0.3939  -0.3796  -0.3753  -0.3150  -0.2935  -0.2925  -0.2854  -0.2803
    -0.2708  -0.2650  -0.2596  -0.2508  -0.2495  -0.2460  -0.2447  -0.2445
    -0.2420  -0.2326  -0.2271  -0.2219  -0.2101  -0.1812  -0.1795  -0.1698
    -0.1661  -0.1587  -0.1518  -0.1471  -0.1465  -0.1459  -0.0979  -0.0879
    -0.0876  -0.0858  -0.0852  -0.0843  -0.0832  -0.0830  -0.0811  -0.0798
    -0.0780  -0.0778  -0.0769  -0.0752  -0.0719  -0.0715  -0.0625  -0.0593
    -0.0575  -0.0149  -0.0037   0.0471   0.0787   0.0811   0.0812   0.0875
     0.0878   0.1126   0.1130   0.1292   0.1295   0.1504   0.1507   0.1689
     0.1722   0.1766   0.1785   0.1839   0.2060   0.2068   0.2091   0.2095
     0.2172   0.2181   0.2290   0.2299   0.2791   0.2792   0.3257   0.3331
     0.3334   0.3432   0.3447   0.3465   0.3466   0.3600   0.3605   0.3652
     0.3655   0.3661   0.3668   0.3709   0.3711   0.3780   0.3857   0.3858
     0.3858   0.3865   0.3897   0.4201   0.4207   0.4318   0.4585   0.4639
     0.4726   0.4738   0.4793   0.4794   0.4797   0.4817   0.5061   0.5064
     0.5064   0.5068   0.5175   0.5256   0.5278   0.5278   0.5421   0.5469
     0.5528   0.5531   0.5540   0.5563   0.5570   0.5575   0.5592   0.5600
     0.5638   0.5647   0.5805   0.5810   0.5823   0.5830   0.6045   0.6289
     0.6521   0.6527   0.6536   0.6544   0.6560   0.6976   0.7015   0.7028
     0.7029   0.7087   0.7091   0.7093   0.7096   0.7100   0.7141   0.7317
     0.7389   0.7547   0.7636   0.7639   0.7643   0.7718   0.7724   0.7785
     0.7875   0.7948   0.7985   0.8018   0.8105   0.8109   0.8166   0.8170
     0.8194   0.8203   0.8221   0.8243   0.8320   0.8330   0.8354   0.8355
     0.8362   0.8415   0.8505   0.8537   0.8698   0.8761   0.8962   0.9071
     0.9073   0.9161   0.9312   0.9495   0.9605   0.9642   0.9867   0.9984
     1.0104   1.0114   1.0116   1.0145   1.0150   1.0198   1.0340   1.0459
     1.0462   1.0468   1.0471   1.0592   1.0596   1.0664   1.0978   1.1060
     1.1110   1.1111   1.1224   1.1246   1.1267   1.1270   1.1495   1.1552
     1.1555   1.1564   1.1570   1.1665   1.1854   1.1988   1.2013   1.2071
     1.2118   1.2124   1.2127   1.2189   1.2248   1.2338   1.2506   1.2521
     1.2678   1.2693   1.2694   1.2701   1.2704   1.2835   1.3042   1.3049
     1.3070   1.3073   1.3081   1.3097   1.3104   1.3115   1.3121   1.3189
     1.3195   1.3250   1.3270   1.3294   1.3306   1.3350   1.3365   1.3677
     1.3755   1.3756   1.3894   1.3897   1.4135   1.4216   1.4220   1.4242
     1.4245   1.4247   1.4255   1.4255   1.4412   1.4435   1.4452   1.4453
     1.4511   1.4516   1.4572   1.4588   1.4590   1.4626   1.4683   1.4696
     1.4918   1.4946   1.4965   1.4978   1.5029   1.5072   1.5144   1.5170
     1.5170   1.5178   1.5208   1.5269   1.5280   1.5299   1.5327   1.5428
     1.5682   1.5777   1.5780   1.5897   1.5949   1.5951   1.5964   1.5969
     1.6002   1.6269   1.6284   1.6443   1.6454   1.6477   1.6477   1.6571
     1.6580   1.6631   1.6647   1.6724   1.6739   1.6741   1.6754   1.6815
     1.6941   1.7011   1.7104   1.7125   1.7143   1.7153   1.7158   1.7199
     1.7334   1.7459   1.7501   1.7577   1.7584   1.7684   1.7739   1.7810
     1.7815   1.7846   1.7866   1.7879   1.7929   1.7968   1.8008   1.8008
     1.8009   1.8031   1.8075   1.8135   1.8141   1.8351   1.8376   1.8386
     1.8406   1.8408   1.8453   1.8531   1.8667   1.8783   1.8803   1.8832
     1.8857   1.8859   1.8860   1.8869   1.8885   1.8885   1.8899   1.8900
     1.8934   1.9045   1.9059   1.9069   1.9137   1.9323   1.9412   1.9543
     1.9550   1.9706   1.9716   1.9740   1.9786   1.9787   1.9788   1.9808
     1.9868   1.9936   2.0114   2.0122   2.0125   2.0135   2.0187   2.0196
     2.0206   2.0219   2.0269   2.0462   2.0479   2.0485   2.0489   2.0499
     2.0502   2.0519   2.0543   2.0557   2.0664   2.0684   2.0692   2.0753
     2.0818   2.0828   2.0834   2.0837   2.0913   2.0953   2.0968   2.0987
     2.1008   2.1094   2.1105   2.1143   2.1182   2.1272   2.1283   2.1289
     2.1309   2.1558   2.1586   2.1610   2.1661   2.1733   2.1824   2.1876
     2.1883   2.1884   2.1910   2.1931   2.1951   2.1957   2.2072   2.2077
     2.2081   2.2088   2.2090   2.2100   2.2172   2.2185   2.2220   2.2309
     2.2394   2.2399   2.2402   2.2405   2.2469   2.2518   2.2524   2.2587
     2.2655   2.2675   2.2791   2.2910   2.3285   2.3297   2.3346   2.3371
     2.3519   2.3525   2.3528   2.3626   2.3643   2.3780   2.4014   2.4034
     2.4045   2.4051   2.4071   2.4149   2.4150   2.4151   2.5013   2.5376
     2.5640   2.6762   2.6933   2.7260   2.8784   2.8811   2.9179   2.9198
     2.9767   2.9777   2.9789   2.9794   2.9954   3.0024   3.0093   3.0095
     3.1205   3.1723   3.1753   3.2351   3.2362   3.2396   3.2441   3.2523
     3.2594   3.4899   3.4906   3.5006   3.5096   3.7008   3.9042   3.9570
     3.9677   4.1907   4.2069   4.2856   4.2925   4.4351   4.4669   4.5851
     4.5899   4.6146   4.6195   4.6238   4.6320   4.6918   4.7278   4.7353
     4.7368   4.7693   4.7756   4.7765   4.7805   4.7834   4.7951   4.8617
     5.0056   5.0068   5.0158   5.0165   5.1699   5.3843   5.5314   5.6628
     5.6662   5.7161   5.9429   5.9739   6.0826   6.0890   6.1409   6.1753
     6.1753   6.1934   6.4047   6.4518   6.4629   6.4981   6.5140   6.6962
     6.6997   6.7159   6.9997   7.0058   7.1045   7.1452   7.1820   7.2045
     7.2295   7.2342   7.2690   7.3077   7.3210   7.3288   7.4556   7.4770
     7.5028   7.5201   7.5782   7.7404   7.7446   7.7933   7.7967   7.8259
     7.8440   7.8600   7.8856   7.9394   7.9995   8.0000   8.0614   8.1250
     8.1269   8.2914   8.3313   8.3561   8.3731   8.3978   8.4452   8.4512
     8.4607   8.4670   8.4829   8.7078   8.7160   8.8676   8.9210   8.9650
     8.9717   8.9745   8.9763   9.0517   9.0844   9.1027   9.1044   9.1377
     9.1769   9.1921   9.2745   9.3105   9.3186   9.3233   9.3888   9.4129
     9.4217   9.4254   9.4542   9.5366   9.6026   9.6047   9.6065   9.6345
     9.6955   9.8079   9.8152   9.8223   9.8298   9.8599   9.8611   9.8685
     9.8830   9.8985   9.8999   9.9403  10.0258  10.1111  10.1144  10.1190
    10.2579  10.3385  10.3463  10.3576  10.4719  10.5128  10.5281  10.5478
    10.5651  10.6128

          k = 0.0000-0.2165 0.0000 (286960 PWs)   bands (ev):

   -15.5742 -15.5328 -15.2299 -15.1489 -14.8552 -14.7237 -14.4353 -14.3917
   -13.9375 -13.5691 -13.5617 -13.4148 -13.3463 -13.2792 -13.2731 -13.2215
   -13.1345 -13.1152 -13.0410 -12.9435 -12.8255 -12.7948 -12.7480 -12.6801
   -12.5135 -12.4804 -12.3902 -12.2666 -11.6751 -11.3626 -11.3466 -11.3062
   -11.2272 -11.1291 -11.0849 -11.0519 -11.0461 -11.0137 -10.8129 -10.7698
    -9.8136  -9.4504  -9.4229  -9.3828  -9.2005  -9.1983  -9.1721  -9.1567
    -8.4870  -8.2026  -8.1511  -8.0569  -8.0487  -7.9947  -7.9484  -7.8827
    -7.8429  -7.8194  -7.8046  -7.7554  -7.3944  -7.2321  -7.2153  -7.1987
    -6.9918  -6.9691  -6.9621  -6.8698  -6.3209  -6.0838  -6.0713  -5.9935
    -5.9657  -5.9569  -5.8947  -5.8328  -5.8210  -5.7759  -5.7388  -5.6757
    -5.6589  -5.6123  -5.5604  -5.4532  -5.2096  -5.1365  -5.1176  -5.1133
    -4.8679  -4.8268  -4.5962  -4.3511  -4.3390  -4.2859  -4.2076  -4.1813
    -4.1372  -4.0709  -4.0680  -4.0201  -3.9758  -3.9581  -3.8776  -3.8703
    -3.7940  -3.6955  -3.6601  -3.6013  -3.5094  -3.4465  -3.3572  -3.3457
    -3.3420  -3.2827  -3.0779  -3.0599  -2.9096  -2.8786  -2.7259  -2.7047
    -2.5765  -2.5389  -2.5367  -2.5309  -2.5300  -2.4234  -2.2862  -2.2730
    -2.2661  -2.2626  -2.1959  -2.1925  -2.1698  -2.1312  -2.1195  -2.0911
    -2.0855  -1.9979  -1.9683  -1.9604  -1.9405  -1.9369  -1.9257  -1.9221
    -1.9049  -1.8755  -1.8478  -1.8459  -1.8306  -1.8259  -1.8121  -1.8120
    -1.8115  -1.8016  -1.7181  -1.7117  -1.7004  -1.6704  -1.6273  -1.6113
    -1.6067  -1.6014  -1.5977  -1.5324  -1.5014  -1.4855  -1.4593  -1.4451
    -1.4396  -1.4239  -1.3840  -1.3784  -1.3739  -1.3431  -1.3413  -1.3219
    -1.3100  -1.2520  -1.2251  -1.2177  -1.2177  -1.1924  -1.1923  -1.0953
    -1.0894  -1.0481  -0.9987  -0.9966  -0.9841  -0.9813  -0.9726  -0.9724
    -0.9712  -0.9533  -0.9527  -0.9375  -0.8974  -0.8803  -0.8762  -0.8757
    -0.8673  -0.8477  -0.8186  -0.7863  -0.7536  -0.7484  -0.6670  -0.6572
    -0.6122  -0.6053  -0.6010  -0.6007  -0.5973  -0.5951  -0.5466  -0.5463
    -0.5448  -0.5272  -0.5108  -0.5080  -0.5052  -0.5043  -0.5020  -0.5016
    -0.4896  -0.4763  -0.4588  -0.4582  -0.4530  -0.4523  -0.4408  -0.4385
    -0.4240  -0.4112  -0.4037  -0.3670  -0.3586  -0.3483  -0.3197  -0.3185
    -0.3150  -0.2810  -0.2803  -0.2801  -0.2769  -0.2765  -0.2630  -0.2318
    -0.2269  -0.2163  -0.2135  -0.2122  -0.2104  -0.2086  -0.2071  -0.2064
    -0.1969  -0.1568  -0.1549  -0.1492  -0.1485  -0.1408  -0.1406  -0.1254
    -0.1251  -0.1186  -0.1170  -0.0917  -0.0731  -0.0579  -0.0575  -0.0497
    -0.0475  -0.0474  -0.0408  -0.0247  -0.0234  -0.0101  -0.0084   0.0163
     0.0166   0.0216   0.0225   0.0867   0.1090   0.1158   0.1163   0.1164
     0.1167   0.1369   0.1372   0.1615   0.1647   0.1668   0.1687   0.1688
     0.1695   0.1956   0.1970   0.2286   0.2296   0.2301   0.2312   0.2342
     0.2356   0.2360   0.2377   0.2665   0.2670   0.2675   0.2688   0.2859
     0.2859   0.2918   0.2930   0.3228   0.3243   0.3260   0.3293   0.3335
     0.3360   0.3369   0.3379   0.3485   0.3880   0.4130   0.4132   0.4133
     0.4135   0.4405   0.4449   0.4543   0.4555   0.4694   0.4707   0.4719
     0.4743   0.4765   0.4782   0.4986   0.5008   0.5022   0.5030   0.5038
     0.5218   0.5230   0.5248   0.5249   0.5262   0.5279   0.5281   0.5379
     0.5402   0.5577   0.5593   0.5643   0.5645   0.5663   0.5667   0.5869
     0.6031   0.6217   0.6280   0.6304   0.6329   0.6336   0.6392   0.6413
     0.6424   0.6430   0.6692   0.6747   0.6826   0.6835   0.6857   0.6865
     0.6874   0.6904   0.6939   0.6943   0.6970   0.6975   0.7019   0.7044
     0.7463   0.7540   0.7554   0.7558   0.7595   0.7608   0.7740   0.7822
     0.7826   0.7828   0.7852   0.7912   0.7957   0.8016   0.8028   0.8096
     0.8159   0.8189   0.8312   0.8338   0.8459   0.8465   0.8474   0.8483
     0.8558   0.8640   0.8667   0.8821   0.8823   0.8940   0.8946   0.9067
     0.9074   0.9078   0.9085   0.9325   0.9508   0.9518   0.9550   0.9556
     0.9672   0.9674   0.9707   0.9712   0.9786   0.9830   1.0007   1.0008
     1.0247   1.0332   1.0340   1.0427   1.0589   1.0715   1.0719   1.1533
     1.1567   1.1573   1.1584   1.1586   1.1779   1.1846   1.1871   1.1875
     1.1887   1.1895   1.2153   1.2263   1.2264   1.2279   1.2295   1.2311
     1.2366   1.2392   1.2430   1.2460   1.2508   1.2510   1.2529   1.2535
     1.2548   1.2563   1.2580   1.2591   1.2597   1.2880   1.2882   1.2941
     1.2984   1.2985   1.2991   1.3040   1.3050   1.3050   1.3287   1.3297
     1.3302   1.3303   1.3308   1.3318   1.3334   1.3338   1.3531   1.3541
     1.3548   1.3553   1.3555   1.3556   1.3558   1.3567   1.3722   1.3728
     1.3928   1.4159   1.4177   1.4282   1.4285   1.4374   1.4427   1.4432
     1.4443   1.4445   1.4465   1.4476   1.4526   1.4528   1.4529   1.4551
     1.4577   1.4952   1.4958   1.4959   1.4971   1.5129   1.5131   1.5134
     1.5158   1.5167   1.5188   1.5274   1.5299   1.5442   1.5468   1.5477
     1.5493   1.5538   1.5549   1.5757   1.5994   1.6042   1.6063   1.6255
     1.6435   1.6567   1.6580   1.6636   1.6672   1.6761   1.6787   1.6825
     1.6831   1.6838   1.6891   1.6895   1.6997   1.7002   1.7013   1.7028
     1.7085   1.7101   1.7120   1.7129   1.7133   1.7185   1.7187   1.7190
     1.7292   1.7351   1.7351   1.7381   1.7400   1.7416   1.7425   1.7427
     1.7490   1.7496   1.7578   1.7579   1.7632   1.7635   1.7658   1.7677
     1.7821   1.7833   1.7893   1.7938   1.7981   1.8046   1.8061   1.8082
     1.8102   1.8106   1.8117   1.8117   1.8117   1.8120   1.8131   1.8290
     1.8658   1.8860   1.8989   1.8989   1.9074   1.9145   1.9156   1.9272
     1.9314   1.9398   1.9416   1.9424   1.9571   1.9586   1.9611   1.9658
     1.9666   1.9681   1.9700   1.9718   1.9724   1.9738   1.9738   1.9750
     1.9755   1.9756   1.9774   1.9820   1.9822   1.9915   1.9984   2.0024
     2.0027   2.0075   2.0085   2.0126   2.0137   2.0273   2.0423   2.0424
     2.0434   2.0481   2.0487   2.0499   2.0516   2.0618   2.0713   2.0716
     2.0763   2.0829   2.0833   2.0867   2.0893   2.0910   2.0922   2.1014
     2.1057   2.1057   2.1068   2.1070   2.1255   2.1259   2.1297   2.1413
     2.1418   2.1420   2.1514   2.1524   2.1544   2.1620   2.1658   2.1677
     2.1681   2.1737   2.1840   2.1846   2.1980   2.1985   2.2009   2.2038
     2.2180   2.2190   2.2208   2.2212   2.2222   2.2227   2.2233   2.2239
     2.2508   2.2510   2.2581   2.2586   2.2686   2.2695   2.2862   2.2882
     2.2911   2.2919   2.2923   2.2927   2.3005   2.3007   2.3128   2.3129
     2.3544   2.3581   2.3587   2.3618   2.4337   2.4597   2.4628   2.4813
     2.4831   2.5082   2.5186   2.5200   2.5340   2.5590   2.5668   2.5675
     2.5706   2.5840   2.5871   2.5878   2.5891   2.6235   2.6236   2.8378
     2.8956   2.9306   3.1860   3.1862   3.1864   3.1886   3.2656   3.2677
     3.3107   3.3255   3.3305   3.3308   3.3465   3.3482   3.3529   3.3811
     3.4788   3.4801   3.4851   3.5245   3.5265   3.5446   3.5500   3.6322
     3.6929   3.6940   3.9307   3.9307   3.9491   3.9725   4.0142   4.1484
     4.1530   4.4374   4.4412   4.7643   4.7676   4.8114   4.8441   4.8654
     4.8847   4.9205   5.0854   5.0862   5.0921   5.0937   5.1065   5.2120
     5.2416   5.2561   5.2669   5.2976   5.4493   5.4733   5.5146   5.5169
     5.6409   5.8689   5.8703   5.8728   5.9044   6.1198   6.1222   6.1259
     6.1272   6.1537   6.1869   6.3493   6.3760   6.4305   6.5084   6.5119
     6.6921   6.8140   6.8643   7.0058   7.0862   7.1081   7.1601   7.1714
     7.1741   7.1892   7.1992   7.2418   7.2959   7.3879   7.4308   7.4342
     7.5631   7.5826   7.6607   7.6976   7.8015   7.8089   7.8199   7.8487
     7.8638   7.8691   7.8731   7.8906   7.8963   7.9607   7.9923   8.0060
     8.0589   8.0885   8.1113   8.1359   8.2481   8.2522   8.3911   8.4557
     8.5791   8.5821   8.6231   8.6924   8.8723   8.8749   8.9051   8.9158
     8.9227   8.9874   9.0430   9.1152   9.1258   9.1623   9.1634   9.1805
     9.2068   9.2906   9.3602   9.4330   9.4593   9.4745   9.4784   9.4836
     9.4924   9.4990   9.5266   9.5441   9.5718   9.6214   9.6321   9.6570
     9.6964   9.7212   9.7466   9.7610   9.8266   9.9104   9.9306  10.0046
    10.0137  10.1530  10.1540  10.1550  10.1565  10.2377  10.2474  10.2503
    10.2721  10.3064  10.3438  10.4067  10.4211  10.4330  10.4354  10.5529
    10.5551  10.6168

          k = 0.2500 0.0000 0.0000 (287062 PWs)   bands (ev):

   -15.5251 -15.2934 -15.1031 -15.0919 -14.7990 -14.7372 -14.5006 -14.3388
   -14.1241 -14.1087 -13.9993 -13.9292 -13.8228 -13.7203 -13.6452 -13.5407
   -13.1487 -12.9621 -12.6878 -12.6617 -12.5280 -12.3912 -12.2161 -12.1884
   -12.1277 -12.0929 -11.9169 -11.8687 -11.8232 -11.7169 -11.4022 -11.1936
   -11.1212 -11.0874 -10.9258 -10.8924 -10.8338 -10.7488 -10.2613  -9.9921
    -9.8777  -9.8281  -9.7477  -9.6271  -9.5764  -9.4916  -9.2735  -9.1180
    -9.0274  -8.9086  -8.7931  -8.7530  -8.6351  -8.5626  -8.3870  -8.3013
    -8.1850  -8.1226  -7.9068  -7.8526  -7.6742  -7.4270  -6.9965  -6.6903
    -6.6019  -6.5962  -6.5462  -6.5139  -6.3805  -6.3549  -6.3292  -6.3115
    -6.2900  -6.2608  -5.9502  -5.8190  -5.7211  -5.5372  -5.4235  -5.2102
    -5.0719  -5.0659  -5.0316  -4.9455  -4.9092  -4.8064  -4.7749  -4.7205
    -4.5794  -4.5470  -4.5425  -4.3656  -4.3094  -4.2165  -4.1366  -4.0165
    -3.9988  -3.8324  -3.7894  -3.7263  -3.7068  -3.6681  -3.6536  -3.5514
    -3.4342  -3.3888  -3.3489  -3.3360  -3.3141  -3.2660  -3.2353  -3.2317
    -3.2105  -3.1526  -3.1279  -3.0738  -3.0717  -2.9680  -2.9607  -2.9257
    -2.8799  -2.7907  -2.7005  -2.6699  -2.6650  -2.6397  -2.6088  -2.6044
    -2.5905  -2.5772  -2.5676  -2.4713  -2.4492  -2.4285  -2.4133  -2.4002
    -2.3686  -2.3624  -2.3420  -2.3171  -2.2689  -2.2411  -2.2157  -2.1820
    -2.1513  -2.1027  -2.0706  -2.0541  -2.0356  -2.0310  -2.0259  -1.9581
    -1.8530  -1.8338  -1.7942  -1.7559  -1.6329  -1.5931  -1.5718  -1.5503
    -1.5094  -1.4842  -1.4111  -1.3342  -1.3318  -1.3216  -1.3154  -1.3104
    -1.3003  -1.2597  -1.2375  -1.2301  -1.1973  -1.1533  -1.1431  -1.0978
    -1.0845  -1.0645  -1.0334  -1.0327  -1.0311  -1.0253  -1.0242  -1.0045
    -0.9955  -0.9761  -0.9709  -0.9606  -0.9571  -0.9347  -0.8833  -0.8752
    -0.8723  -0.8460  -0.8335  -0.8139  -0.8120  -0.8103  -0.8101  -0.8087
    -0.8038  -0.7829  -0.7696  -0.7550  -0.7425  -0.7347  -0.7326  -0.7223
    -0.7188  -0.6991  -0.6583  -0.6234  -0.6024  -0.5773  -0.5600  -0.5446
    -0.5428  -0.5238  -0.5015  -0.4967  -0.4934  -0.4739  -0.4731  -0.4674
    -0.4437  -0.4373  -0.4347  -0.4310  -0.4148  -0.4135  -0.4091  -0.4059
    -0.3944  -0.3655  -0.3634  -0.3610  -0.3553  -0.3468  -0.3428  -0.3411
    -0.3321  -0.3119  -0.3029  -0.2954  -0.2834  -0.2805  -0.2698  -0.2636
    -0.2624  -0.2509  -0.2426  -0.2397  -0.2341  -0.2295  -0.2233  -0.2187
    -0.2146  -0.2120  -0.2119  -0.2098  -0.2058  -0.2055  -0.2030  -0.1949
    -0.1936  -0.1811  -0.1748  -0.1317  -0.1313  -0.1288  -0.1238  -0.0822
    -0.0813  -0.0467  -0.0462  -0.0296  -0.0267  -0.0245  -0.0147  -0.0010
    -0.0003   0.0118   0.0129   0.0156   0.0182   0.0206   0.0282   0.0295
     0.0484   0.0916   0.1119   0.1500   0.1556   0.1667   0.1750   0.1803
     0.1896   0.2024   0.2034   0.2062   0.2218   0.2223   0.2231   0.2260
     0.2388   0.2406   0.2435   0.2435   0.2518   0.2622   0.2682   0.2860
     0.2866   0.2885   0.2891   0.3085   0.3097   0.3103   0.3139   0.3258
     0.3609   0.3712   0.3713   0.3738   0.3762   0.3795   0.3814   0.3822
     0.3903   0.3920   0.4144   0.4144   0.4380   0.4381   0.4445   0.4470
     0.4692   0.4753   0.4753   0.4773   0.4774   0.4907   0.4908   0.4996
     0.5101   0.5103   0.5133   0.5215   0.5289   0.5419   0.5498   0.5643
     0.5656   0.5717   0.5726   0.5750   0.5809   0.5849   0.5902   0.5904
     0.5926   0.6191   0.6191   0.6264   0.6280   0.6312   0.6331   0.6580
     0.6594   0.6605   0.6737   0.6987   0.7045   0.7057   0.7083   0.7178
     0.7249   0.7276   0.7359   0.7390   0.7531   0.7544   0.7547   0.7591
     0.7593   0.7648   0.7732   0.7753   0.7759   0.7773   0.7789   0.7804
     0.7842   0.7944   0.8039   0.8046   0.8079   0.8105   0.8127   0.8182
     0.8280   0.8325   0.8361   0.8424   0.8502   0.8635   0.8837   0.8873
     0.8874   0.8882   0.8884   0.8905   0.9053   0.9070   0.9097   0.9125
     0.9131   0.9183   0.9234   0.9543   0.9567   0.9596   1.0231   1.0261
     1.0265   1.0275   1.0355   1.0414   1.0466   1.0472   1.0478   1.0502
     1.0533   1.0541   1.0554   1.0560   1.0591   1.0598   1.0666   1.0769
     1.0791   1.0912   1.0924   1.0958   1.0980   1.1004   1.1031   1.1047
     1.1055   1.1129   1.1308   1.1329   1.1344   1.1486   1.1629   1.1767
     1.1917   1.1993   1.2013   1.2148   1.2149   1.2158   1.2191   1.2318
     1.2351   1.2421   1.2483   1.2507   1.2533   1.2571   1.2574   1.2603
     1.2654   1.2676   1.2683   1.2760   1.2911   1.3001   1.3034   1.3083
     1.3168   1.3174   1.3231   1.3248   1.3263   1.3286   1.3302   1.3462
     1.3496   1.3508   1.3644   1.3652   1.3660   1.3669   1.3683   1.3752
     1.3811   1.3848   1.3891   1.3902   1.3905   1.4090   1.4099   1.4305
     1.4343   1.4343   1.4371   1.4396   1.4422   1.4430   1.4660   1.4747
     1.4768   1.4955   1.5013   1.5123   1.5124   1.5170   1.5171   1.5229
     1.5363   1.5380   1.5428   1.5437   1.5458   1.5487   1.5539   1.5623
     1.5720   1.5757   1.5851   1.5877   1.5964   1.5967   1.6014   1.6087
     1.6262   1.6271   1.6277   1.6279   1.6300   1.6504   1.6510   1.6579
     1.6634   1.6635   1.6652   1.6657   1.6682   1.6752   1.6754   1.6773
     1.6848   1.7002   1.7054   1.7201   1.7273   1.7282   1.7388   1.7418
     1.7435   1.7579   1.7599   1.7607   1.7617   1.7647   1.7730   1.7745
     1.7770   1.7798   1.7869   1.7895   1.7898   1.7900   1.7940   1.7945
     1.7954   1.8012   1.8040   1.8043   1.8059   1.8093   1.8148   1.8242
     1.8306   1.8316   1.8357   1.8375   1.8396   1.8425   1.8484   1.8488
     1.8589   1.8615   1.8621   1.8624   1.8792   1.8795   1.8826   1.8836
     1.8842   1.8897   1.8936   1.9045   1.9073   1.9089   1.9235   1.9248
     1.9285   1.9287   1.9521   1.9538   1.9601   1.9637   1.9643   1.9654
     1.9919   1.9986   2.0021   2.0055   2.0093   2.0169   2.0184   2.0198
     2.0252   2.0276   2.0283   2.0295   2.0341   2.0472   2.0502   2.0511
     2.0547   2.0624   2.0703   2.0724   2.0724   2.0729   2.0786   2.0811
     2.0850   2.0866   2.0887   2.0898   2.0916   2.0984   2.0993   2.1020
     2.1036   2.1112   2.1122   2.1184   2.1233   2.1267   2.1271   2.1282
     2.1301   2.1333   2.1364   2.1506   2.1507   2.1542   2.1729   2.1775
     2.1808   2.1868   2.1879   2.1925   2.1951   2.1954   2.1992   2.1997
     2.2019   2.2053   2.2076   2.2082   2.2110   2.2126   2.2182   2.2347
     2.2351   2.2361   2.2424   2.2431   2.2438   2.2459   2.2501   2.2541
     2.2545   2.2660   2.2683   2.2769   2.2772   2.2814   2.2862   2.2971
     2.3023   2.3103   2.3194   2.3243   2.3372   2.3538   2.3761   2.3955
     2.3956   2.4008   2.4091   2.4167   2.4231   2.4822   2.5263   2.5281
     2.5346   2.5392   2.5576   2.5664   2.6069   2.7094   2.7715   2.8014
     2.8067   2.8419   2.8483   2.8533   2.8578   2.8666   2.9641   3.0162
     3.0178   3.2838   3.3187   3.3321   3.3348   3.3374   3.4916   3.7444
     3.7446   3.7760   3.9560   3.9629   3.9838   3.9862   3.9910   4.0379
     4.0439   4.2083   4.2341   4.3402   4.3459   4.3984   4.4041   4.4678
     4.4733   4.4827   4.4939   4.5328   4.6330   4.6401   4.7271   4.7326
     4.8884   4.9234   4.9405   5.0042   5.0470   5.1076   5.2156   5.2603
     5.3062   5.4595   5.5256   5.5609   5.5861   5.6681   5.7070   5.8246
     5.8866   5.9405   5.9789   5.9874   5.9978   6.0781   6.1764   6.2184
     6.2318   6.2519   6.2758   6.3264   6.3341   6.3665   6.4084   6.4336
     6.4695   6.4913   6.5231   6.5717   6.6104   6.6374   6.6883   6.7736
     6.7757   6.7932   6.8087   6.8712   6.9494   7.1434   7.2165   7.3556
     7.4563   7.4584   7.5035   7.5144   7.5581   7.6182   7.6593   7.7803
     7.7831   7.7923   7.7973   7.8277   7.8503   7.8974   7.9546   7.9888
     8.0167   8.0347   8.0412   8.0755   8.1465   8.2176   8.2640   8.3159
     8.3265   8.4183   8.4548   8.5086   8.5175   8.5377   8.5553   8.5693
     8.6295   8.7156   8.7538   8.7780   8.8006   8.8340   8.8708   9.0028
     9.0346   9.0765   9.0831   9.1268   9.1441   9.1464   9.1513   9.2081
     9.2170   9.3814   9.4058   9.4128   9.4816   9.6607   9.7076   9.7309
     9.8631   9.8654   9.8980   9.9095   9.9425   9.9492   9.9613   9.9686
     9.9746   9.9842   9.9963  10.0046  10.0102  10.0355  10.0442  10.1346
    10.1526  10.1657  10.2300  10.2345  10.2898  10.4217  10.4868  10.4936
    10.5356  10.5451

          k = 0.2500-0.2165 0.0000 (287100 PWs)   bands (ev):

   -15.4719 -15.4083 -15.1063 -15.0423 -14.7692 -14.6016 -14.4297 -14.4183
   -14.3139 -14.2168 -14.1230 -14.0048 -13.7308 -13.6208 -13.3421 -13.3280
   -13.1410 -13.0963 -12.8367 -12.8173 -12.5378 -12.4864 -12.2455 -12.2042
   -12.1379 -12.0415 -11.8856 -11.8681 -11.7267 -11.7104 -11.4509 -11.3347
   -11.1220 -11.0111 -10.7797 -10.7474 -10.5480 -10.3622 -10.2305 -10.1388
   -10.0914 -10.0795  -9.8855  -9.8600  -9.8210  -9.7100  -9.5701  -9.4281
    -8.8001  -8.7025  -8.4810  -8.4297  -8.3304  -8.1735  -8.1414  -8.1021
    -7.9576  -7.9159  -7.8620  -7.7935  -7.6480  -7.5473  -7.4592  -7.4331
    -7.3090  -7.2799  -7.1669  -7.1572  -6.2426  -5.8380  -5.7853  -5.7063
    -5.6591  -5.6356  -5.5428  -5.5027  -5.4675  -5.4314  -5.4052  -5.3862
    -5.3016  -5.1610  -5.1360  -5.1305  -5.0528  -4.9820  -4.9409  -4.9359
    -4.8070  -4.7724  -4.5072  -4.2422  -4.1512  -4.1167  -4.0961  -4.0300
    -3.9376  -3.9086  -3.9006  -3.8634  -3.7705  -3.7213  -3.7106  -3.6279
    -3.5844  -3.5831  -3.5518  -3.4353  -3.3521  -3.2722  -3.2497  -3.1532
    -3.0789  -3.0484  -3.0247  -3.0037  -2.9518  -2.9425  -2.9279  -2.9070
    -2.8413  -2.7843  -2.7757  -2.7349  -2.7095  -2.6993  -2.6925  -2.6733
    -2.6605  -2.6041  -2.5263  -2.4981  -2.4716  -2.4467  -2.3819  -2.3630
    -2.2234  -2.1783  -2.1512  -2.1434  -2.1421  -2.1380  -2.1306  -2.0832
    -2.0410  -2.0182  -2.0093  -1.9660  -1.9465  -1.9401  -1.8966  -1.8597
    -1.8364  -1.8058  -1.7891  -1.7228  -1.6908  -1.6270  -1.6073  -1.5480
    -1.5449  -1.5123  -1.4887  -1.4654  -1.4353  -1.4059  -1.4015  -1.4014
    -1.3793  -1.3611  -1.3514  -1.2417  -1.2410  -1.2204  -1.1896  -1.1791
    -1.1251  -1.1225  -1.0792  -1.0528  -1.0454  -1.0450  -1.0178  -0.9835
    -0.9761  -0.9586  -0.9523  -0.9407  -0.9401  -0.9345  -0.9247  -0.9113
    -0.9086  -0.9074  -0.9066  -0.9022  -0.8988  -0.8984  -0.8306  -0.8130
    -0.8125  -0.7981  -0.7914  -0.7080  -0.6992  -0.6977  -0.6893  -0.6343
    -0.6330  -0.6173  -0.5900  -0.5612  -0.5606  -0.5594  -0.5474  -0.5282
    -0.5076  -0.5070  -0.4931  -0.4930  -0.4797  -0.4790  -0.4669  -0.4655
    -0.4579  -0.4549  -0.4519  -0.4427  -0.4423  -0.4252  -0.4186  -0.4171
    -0.4168  -0.4154  -0.4133  -0.3972  -0.3605  -0.3586  -0.3556  -0.3553
    -0.3440  -0.3436  -0.3253  -0.3175  -0.3121  -0.3101  -0.2709  -0.2706
    -0.2695  -0.2629  -0.2622  -0.2567  -0.2467  -0.2265  -0.2263  -0.2184
    -0.2026  -0.1991  -0.1915  -0.1912  -0.1898  -0.1858  -0.1845  -0.1752
    -0.1536  -0.1527  -0.1518  -0.1404  -0.1058  -0.0979  -0.0975  -0.0926
    -0.0915  -0.0544  -0.0077  -0.0076  -0.0036  -0.0032  -0.0026   0.0001
     0.0198   0.0330   0.0493   0.0538   0.0578   0.0581   0.0606   0.0644
     0.0733   0.0764   0.0784   0.1176   0.1199   0.1474   0.1596   0.1648
     0.1779   0.1973   0.2042   0.2043   0.2068   0.2073   0.2345   0.2371
     0.2386   0.2407   0.2465   0.2639   0.2687   0.2711   0.2764   0.2820
     0.2860   0.3049   0.3071   0.3279   0.3284   0.3299   0.3330   0.3404
     0.3628   0.3630   0.3713   0.3753   0.3790   0.3818   0.3859   0.3895
     0.4019   0.4040   0.4068   0.4076   0.4141   0.4182   0.4191   0.4218
     0.4313   0.4364   0.4369   0.4531   0.4532   0.4773   0.4909   0.4933
     0.4950   0.4991   0.5196   0.5305   0.5308   0.5357   0.5388   0.5457
     0.5533   0.5549   0.5575   0.5578   0.5854   0.5865   0.6154   0.6165
     0.6243   0.6526   0.6527   0.6615   0.6620   0.6649   0.6670   0.6675
     0.6840   0.6840   0.6876   0.6996   0.7017   0.7038   0.7089   0.7205
     0.7251   0.7276   0.7285   0.7296   0.7299   0.7320   0.7462   0.7577
     0.7583   0.7681   0.7685   0.7697   0.7701   0.7706   0.7713   0.7748
     0.7790   0.7817   0.7961   0.8022   0.8023   0.8026   0.8036   0.8265
     0.8377   0.8378   0.8451   0.8455   0.8464   0.8517   0.8583   0.8730
     0.8742   0.8795   0.9029   0.9033   0.9123   0.9142   0.9218   0.9228
     0.9263   0.9266   0.9314   0.9407   0.9408   0.9451   0.9764   0.9776
     0.9818   1.0038   1.0405   1.0409   1.0529   1.0531   1.0549   1.0551
     1.0559   1.0579   1.0592   1.0618   1.0634   1.0649   1.0679   1.0808
     1.0881   1.0884   1.0905   1.0916   1.1048   1.1056   1.1058   1.1267
     1.1367   1.1372   1.1401   1.1500   1.1546   1.1595   1.1650   1.1737
     1.1759   1.1816   1.2003   1.2176   1.2184   1.2218   1.2238   1.2290
     1.2293   1.2405   1.2406   1.2477   1.2514   1.2524   1.2544   1.2548
     1.2559   1.2823   1.2844   1.2869   1.2919   1.2937   1.3044   1.3047
     1.3388   1.3394   1.3403   1.3423   1.3692   1.3711   1.3741   1.3784
     1.3807   1.3810   1.3859   1.3880   1.3954   1.3987   1.4035   1.4053
     1.4092   1.4149   1.4189   1.4199   1.4203   1.4292   1.4299   1.4363
     1.4375   1.4397   1.4400   1.4498   1.4515   1.4533   1.4607   1.4610
     1.4623   1.4684   1.4803   1.4809   1.4813   1.4844   1.4897   1.4912
     1.4928   1.4931   1.4970   1.5065   1.5229   1.5269   1.5359   1.5378
     1.5437   1.5644   1.5786   1.5822   1.5933   1.5949   1.5952   1.5963
     1.5966   1.6022   1.6030   1.6179   1.6226   1.6254   1.6255   1.6270
     1.6274   1.6285   1.6398   1.6550   1.6555   1.6571   1.6633   1.6678
     1.6690   1.6727   1.6809   1.6865   1.6970   1.6971   1.7215   1.7261
     1.7270   1.7330   1.7347   1.7358   1.7382   1.7392   1.7424   1.7429
     1.7660   1.7743   1.7758   1.7894   1.7914   1.8017   1.8106   1.8124
     1.8182   1.8273   1.8360   1.8507   1.8523   1.8535   1.8558   1.8570
     1.8590   1.8599   1.8613   1.8614   1.8639   1.8654   1.8658   1.8670
     1.8769   1.8775   1.8893   1.8913   1.8922   1.8993   1.9078   1.9179
     1.9231   1.9367   1.9376   1.9429   1.9434   1.9457   1.9471   1.9487
     1.9556   1.9580   1.9602   1.9617   1.9619   1.9630   1.9732   1.9753
     1.9772   1.9789   1.9888   1.9899   1.9921   1.9950   1.9956   1.9967
     1.9986   2.0036   2.0097   2.0107   2.0171   2.0181   2.0338   2.0408
     2.0458   2.0496   2.0512   2.0556   2.0656   2.0685   2.0704   2.0800
     2.0818   2.0839   2.0918   2.0946   2.0982   2.1017   2.1041   2.1077
     2.1093   2.1131   2.1182   2.1199   2.1206   2.1316   2.1333   2.1406
     2.1528   2.1531   2.1543   2.1566   2.1589   2.1604   2.1626   2.1633
     2.1638   2.1736   2.1784   2.1788   2.1808   2.1834   2.1948   2.1957
     2.2010   2.2033   2.2074   2.2077   2.2089   2.2118   2.2142   2.2169
     2.2170   2.2251   2.2254   2.2304   2.2408   2.2493   2.2493   2.2577
     2.2579   2.2684   2.2722   2.2789   2.2927   2.2980   2.2991   2.2996
     2.3200   2.3212   2.3225   2.3283   2.3285   2.3488   2.3551   2.3643
     2.4291   2.4338   2.4352   2.4728   2.4884   2.5251   2.5274   2.5347
     2.5437   2.5461   2.5543   2.5576   2.5597   2.5804   2.6053   2.6074
     2.8388   2.8957   2.8969   2.9225   2.9250   2.9630   2.9861   3.0553
     3.0569   3.3394   3.3542   3.4234   3.5522   3.5546   3.5567   3.5588
     3.5709   3.5930   3.5960   3.5984   3.7517   3.7568   3.8389   3.8434
     3.9386   4.3007   4.3039   4.3662   4.3694   4.4101   4.4116   4.6037
     4.6059   4.6113   4.6172   4.7566   4.7586   4.8258   4.8350   4.9282
     4.9291   5.1365   5.1424   5.1551   5.2014   5.2977   5.3105   5.3829
     5.4332   5.4385   5.4634   5.4806   5.5444   5.5675   5.6644   5.6949
     5.7159   5.7745   5.7862   5.7977   5.8486   5.9436   6.0135   6.0193
     6.0455   6.1074   6.1877   6.1936   6.2033   6.2183   6.2271   6.2913
     6.3764   6.5227   6.5267   6.5707   6.5907   6.6403   6.6516   6.7293
     6.7409   6.9965   7.0319   7.3306   7.3374   7.3634   7.3841   7.4022
     7.4262   7.4928   7.5232   7.5697   7.6241   7.6485   7.7078   7.7966
     7.8091   7.8413   7.8457   7.8611   7.8863   7.9704   7.9779   7.9929
     8.0909   8.0923   8.0988   8.1138   8.1225   8.1423   8.1804   8.1879
     8.1915   8.2919   8.3963   8.4279   8.4950   8.5167   8.5589   8.6308
     8.6868   8.7521   8.7549   8.7660   8.8110   8.9544   8.9557   8.9934
     9.0104   9.0449   9.1376   9.1774   9.2662   9.3227   9.3517   9.3899
     9.3946   9.4101   9.4593   9.4636   9.4741   9.5515   9.6005   9.6237
     9.6346   9.6717   9.7128   9.7178   9.7359   9.7943   9.7998   9.8805
     9.8977   9.9169   9.9418   9.9655   9.9845  10.0008  10.0328  10.0577
    10.1095  10.1206  10.1354  10.1422  10.1765  10.1864  10.2586  10.5009
    10.5343  10.5827

          k =-0.5000 0.0000 0.0000 (287172 PWs)   bands (ev):

   -15.3020 -15.0954 -14.9783 -14.8006 -14.7397 -14.7222 -14.7019 -14.6724
   -14.4480 -14.4132 -14.3864 -14.1943 -13.8134 -13.6155 -13.5971 -13.5224
   -13.3355 -13.3145 -13.2366 -13.0774 -12.2683 -11.8310 -11.8157 -11.7144
   -11.5633 -11.5471 -11.4716 -11.4169 -11.2649 -11.2374 -11.1235 -10.9726
   -10.9342 -10.9257 -10.9215 -10.7853 -10.6684 -10.6593 -10.5654 -10.5018
   -10.3286 -10.1547  -9.9816  -9.9686  -9.8217  -9.7460  -9.5970  -9.5599
    -9.1834  -9.1709  -9.0208  -8.9437  -8.8461  -8.7039  -8.6190  -8.5900
    -8.1833  -7.9923  -7.9588  -7.9428  -7.7542  -7.7140  -7.7125  -7.6612
    -6.9399  -6.5521  -6.4947  -6.4640  -6.4256  -6.4184  -6.2605  -6.2431
    -6.2404  -6.1781  -6.1328  -6.0844  -5.0988  -4.9842  -4.9090  -4.7409
    -4.6636  -4.5465  -4.5410  -4.4510  -4.2556  -4.1845  -4.0694  -4.0392
    -4.0377  -4.0360  -4.0337  -4.0229  -3.9615  -3.8766  -3.8519  -3.8034
    -3.7967  -3.7632  -3.7349  -3.7097  -3.6551  -3.6404  -3.6218  -3.6074
    -3.5786  -3.5521  -3.5185  -3.5086  -3.4828  -3.4182  -3.3705  -3.3559
    -3.3485  -3.3233  -3.3138  -3.2814  -3.2580  -3.2271  -3.2201  -3.1417
    -3.1021  -3.0972  -3.0008  -2.9063  -2.8977  -2.8760  -2.6844  -2.6581
    -2.6564  -2.6540  -2.6363  -2.6018  -2.5853  -2.5598  -2.5085  -2.4641
    -2.4490  -2.4083  -2.2973  -2.2538  -2.2496  -2.2301  -2.1935  -2.1652
    -2.1457  -2.0931  -2.0726  -2.0346  -2.0273  -2.0043  -1.9367  -1.9197
    -1.8906  -1.8884  -1.8494  -1.8287  -1.8114  -1.8056  -1.7499  -1.7186
    -1.6779  -1.6394  -1.6150  -1.5928  -1.5600  -1.5209  -1.5082  -1.5046
    -1.4584  -1.4200  -1.1931  -1.1117  -1.1115  -1.1110  -1.1109  -1.1080
    -1.1075  -1.0604  -1.0449  -1.0383  -0.9720  -0.9104  -0.9041  -0.8819
    -0.8815  -0.8814  -0.8771  -0.8342  -0.8337  -0.8325  -0.8323  -0.8233
    -0.8093  -0.7373  -0.7323  -0.7208  -0.7206  -0.7195  -0.6924  -0.6585
    -0.6561  -0.6549  -0.6523  -0.6372  -0.6367  -0.6340  -0.5881  -0.5881
    -0.5850  -0.5849  -0.5735  -0.5722  -0.5703  -0.5688  -0.5670  -0.5650
    -0.5369  -0.5288  -0.5227  -0.5222  -0.5200  -0.5081  -0.4986  -0.4985
    -0.4982  -0.4973  -0.4866  -0.4737  -0.4347  -0.4346  -0.4127  -0.4125
    -0.4120  -0.4119  -0.3990  -0.3843  -0.3838  -0.3788  -0.3764  -0.3732
    -0.3692  -0.3634  -0.3382  -0.3381  -0.3374  -0.3373  -0.3156  -0.3155
    -0.3131  -0.3103  -0.2988  -0.2855  -0.2853  -0.2834  -0.2395  -0.2394
    -0.2121  -0.2113  -0.2102  -0.2093  -0.2065  -0.1848  -0.1797  -0.1790
    -0.1774  -0.1692  -0.1622  -0.1620  -0.1617  -0.1596  -0.1590  -0.1503
    -0.1314  -0.1313  -0.1221  -0.0989  -0.0837  -0.0691  -0.0690  -0.0670
    -0.0663  -0.0239  -0.0236   0.0366   0.0580   0.0583   0.0592   0.0610
     0.0803   0.0974   0.0974   0.0986   0.0987   0.0990   0.1014   0.1124
     0.1380   0.1404   0.1411   0.1428   0.1438   0.1476   0.1518   0.1589
     0.1622   0.1642   0.1807   0.1857   0.1947   0.2307   0.2770   0.3060
     0.3108   0.3115   0.3147   0.3152   0.3168   0.3189   0.3359   0.3513
     0.3596   0.3650   0.3651   0.3665   0.3666   0.3842   0.3991   0.3995
     0.4006   0.4011   0.4058   0.4063   0.4416   0.4416   0.4426   0.4427
     0.4562   0.4747   0.4747   0.4750   0.4750   0.4869   0.4871   0.4975
     0.5125   0.5194   0.5195   0.5210   0.5210   0.5350   0.5553   0.5560
     0.5667   0.5764   0.6354   0.6354   0.6361   0.6363   0.6415   0.6418
     0.6426   0.6427   0.6778   0.6820   0.6833   0.6840   0.6931   0.7178
     0.7198   0.7413   0.7446   0.7448   0.7468   0.7472   0.7491   0.7492
     0.7496   0.7499   0.7506   0.7507   0.7525   0.7554   0.7670   0.8258
     0.8341   0.8364   0.8381   0.8434   0.8437   0.8438   0.8440   0.8480
     0.8494   0.8511   0.8514   0.8553   0.8575   0.8588   0.8600   0.8652
     0.8720   0.8724   0.8725   0.8859   0.8859   0.8861   0.8861   0.8866
     0.8873   0.8982   0.8986   0.8987   0.8990   0.9117   0.9124   0.9231
     0.9231   0.9239   0.9240   0.9278   0.9288   0.9487   0.9534   0.9773
     0.9974   1.0162   1.0490   1.0496   1.0562   1.0594   1.0600   1.0601
     1.0690   1.0907   1.0912   1.0914   1.0916   1.1060   1.1065   1.1120
     1.1134   1.1155   1.1165   1.1165   1.1189   1.1216   1.1223   1.1235
     1.1239   1.1242   1.1243   1.1266   1.1379   1.1381   1.1476   1.1579
     1.1626   1.1640   1.1661   1.1664   1.1699   1.1839   1.1930   1.2172
     1.2633   1.2633   1.2665   1.2665   1.2701   1.2710   1.2841   1.2967
     1.2972   1.2986   1.2999   1.3006   1.3010   1.3025   1.3029   1.3032
     1.3039   1.3055   1.3085   1.3087   1.3114   1.3137   1.3172   1.3176
     1.3201   1.3384   1.3549   1.3556   1.3631   1.3784   1.3796   1.3901
[...]
     atom   72 type  1   force =    -0.00002080    0.00002756   -0.00005305
     atom   73 type  1   force =     0.00000000   -0.00025874    0.00043949
     atom   74 type  1   force =    -0.00014337    0.00007615    0.00008550
     atom   75 type  1   force =     0.00000000    0.00009824    0.00007101
     atom   76 type  1   force =     0.00014337    0.00007615    0.00008550
     atom   77 type  1   force =     0.00000000   -0.00017241    0.00023912
     atom   78 type  1   force =    -0.00002770   -0.00016520    0.00031614
     atom   79 type  1   force =     0.00000000   -0.00009916    0.00014223
     atom   80 type  1   force =     0.00002770   -0.00016520    0.00031614
     atom   81 type  1   force =     0.00000000   -0.00000350   -0.00005193
     atom   82 type  1   force =     0.00003635    0.00003939    0.00003976
     atom   83 type  1   force =     0.00000000    0.00007357   -0.00013992
     atom   84 type  1   force =    -0.00003635    0.00003939    0.00003976
     atom   85 type  1   force =     0.00000000    0.00031875    0.00038925
     atom   86 type  1   force =    -0.00048904   -0.00021832    0.00038076
     atom   87 type  1   force =     0.00000000    0.00010589    0.00034617
     atom   88 type  1   force =     0.00048904   -0.00021832    0.00038076
     atom   89 type  1   force =     0.00000000   -0.00010070   -0.00019435
     atom   90 type  1   force =    -0.00041117    0.00018620    0.00002206
     atom   91 type  1   force =     0.00000000   -0.00019070   -0.00009099
     atom   92 type  1   force =     0.00041117    0.00018620    0.00002206
     atom   93 type  1   force =     0.00000000    0.00027122   -0.00002092
     atom   94 type  1   force =    -0.00032588    0.00018693    0.00045954
     atom   95 type  1   force =     0.00000000   -0.00004170   -0.00063957
     atom   96 type  1   force =     0.00032588    0.00018693    0.00045954
     atom   97 type  1   force =     0.00000000   -0.00027191    0.00055945
     atom   98 type  1   force =     0.00009512   -0.00012719    0.00015355
     atom   99 type  1   force =     0.00000000    0.00006195    0.00039000
     atom  100 type  1   force =    -0.00009512   -0.00012719    0.00015355
     atom  101 type  2   force =     0.00000000    0.00164699   -0.00056715
     atom  102 type  2   force =     0.00000000    0.00243456    0.00166922
     atom  103 type  2   force =     0.00051359   -0.00064144   -0.00217138
     atom  104 type  2   force =    -0.00224011    0.00021872    0.00086303
     atom  105 type  2   force =    -0.00183634   -0.00050383   -0.00119513
     atom  106 type  2   force =     0.00099584   -0.00016244    0.00108508
     atom  107 type  2   force =     0.00000000    0.00044395   -0.00102846
     atom  108 type  2   force =     0.00000000   -0.00014940    0.00569487
     atom  109 type  2   force =     0.00183634   -0.00050383   -0.00119513
     atom  110 type  2   force =    -0.00099584   -0.00016244    0.00108508
     atom  111 type  2   force =    -0.00051359   -0.00064144   -0.00217138
     atom  112 type  2   force =     0.00224011    0.00021872    0.00086303
     atom  113 type  2   force =     0.00000000    0.00023189    0.00790719
     atom  114 type  2   force =     0.00000000    0.00091924   -0.01071281
     atom  115 type  2   force =    -0.00161331    0.00184238    0.00289195
     atom  116 type  2   force =     0.00059183   -0.00077823    0.00218599
     atom  117 type  2   force =    -0.00015271   -0.00205812   -0.00360117
     atom  118 type  2   force =    -0.00133353    0.00333931    0.00143465
     atom  119 type  2   force =     0.00000000   -0.00101232   -0.00497055
     atom  120 type  2   force =     0.00000000   -0.00521553   -0.00496440
     atom  121 type  2   force =     0.00015271   -0.00205812   -0.00360117
     atom  122 type  2   force =     0.00133353    0.00333931    0.00143465
     atom  123 type  2   force =     0.00161331    0.00184238    0.00289195
     atom  124 type  2   force =    -0.00059183   -0.00077823    0.00218599
     atom  125 type  2   force =     0.00000000    0.00259118   -0.00577792
     atom  126 type  2   force =     0.00000000   -0.00198039   -0.00078650
     atom  127 type  2   force =     0.00011991   -0.00031033   -0.00235353
     atom  128 type  2   force =     0.00091999    0.00364292    0.00262722
     atom  129 type  2   force =    -0.00027319    0.00151331   -0.00095504
     atom  130 type  2   force =    -0.00153398   -0.00340797   -0.00060001
     atom  131 type  2   force =     0.00000000    0.00097324   -0.00532662
     atom  132 type  2   force =     0.00000000    0.00142288   -0.00515681
     atom  133 type  2   force =     0.00027319    0.00151331   -0.00095504
     atom  134 type  2   force =     0.00153398   -0.00340797   -0.00060001
     atom  135 type  2   force =    -0.00011991   -0.00031033   -0.00235353
     atom  136 type  2   force =    -0.00091999    0.00364292    0.00262722
     atom  137 type  2   force =     0.00000000    0.00040400    0.00384452
     atom  138 type  2   force =     0.00000000   -0.00078395    0.00137542
     atom  139 type  2   force =    -0.00115339   -0.00110896    0.00036596
     atom  140 type  2   force =    -0.00037418   -0.00054978   -0.00098636
     atom  141 type  2   force =     0.00180726   -0.00140867    0.00204930
     atom  142 type  2   force =     0.00016841    0.00071425    0.00316659
     atom  143 type  2   force =     0.00000000   -0.00079671   -0.00714340
     atom  144 type  2   force =     0.00000000   -0.00142923    0.00010128
     atom  145 type  2   force =    -0.00180726   -0.00140867    0.00204930
     atom  146 type  2   force =    -0.00016841    0.00071425    0.00316659
     atom  147 type  2   force =     0.00115339   -0.00110896    0.00036596
     atom  148 type  2   force =     0.00037418   -0.00054978   -0.00098636
     atom  149 type  2   force =     0.00000000   -0.00263109   -0.00128416
     atom  150 type  2   force =     0.00000000   -0.00155356   -0.00305550
     atom  151 type  2   force =     0.00002583    0.00302268   -0.00016662
     atom  152 type  2   force =     0.00187750    0.00132783   -0.00300158
     atom  153 type  2   force =     0.00007405   -0.00009313   -0.00335975
     atom  154 type  2   force =    -0.00109197   -0.00021459   -0.00032416
     atom  155 type  2   force =     0.00000000    0.00060856   -0.00120393
     atom  156 type  2   force =     0.00000000    0.00112470    0.00557012
     atom  157 type  2   force =    -0.00007405   -0.00009313   -0.00335975
     atom  158 type  2   force =     0.00109197   -0.00021459   -0.00032416
     atom  159 type  2   force =    -0.00002583    0.00302268   -0.00016662
     atom  160 type  2   force =    -0.00187750    0.00132783   -0.00300158
     atom  161 type  2   force =     0.00000000   -0.00033882    0.00171198
     atom  162 type  2   force =     0.00000000   -0.00131112    0.00174723
     atom  163 type  2   force =    -0.00027355   -0.00208623   -0.00368089
     atom  164 type  2   force =     0.00323773   -0.00122876    0.00313571
     atom  165 type  2   force =     0.00087884    0.00275973    0.00285253
     atom  166 type  2   force =    -0.00517551   -0.00191239    0.00029730
     atom  167 type  2   force =     0.00000000    0.00017150    0.00133464
     atom  168 type  2   force =     0.00000000    0.00031734    0.00219049
     atom  169 type  2   force =    -0.00087884    0.00275973    0.00285253
     atom  170 type  2   force =     0.00517551   -0.00191239    0.00029730
     atom  171 type  2   force =     0.00027355   -0.00208623   -0.00368089
     atom  172 type  2   force =    -0.00323773   -0.00122876    0.00313571
     atom  173 type  2   force =     0.00000000   -0.00182186    0.00621187
     atom  174 type  2   force =     0.00000000    0.00189863   -0.00314048
     atom  175 type  2   force =    -0.00121530    0.00049960   -0.00267700
     atom  176 type  2   force =     0.00172909   -0.00295301   -0.00442111
     atom  177 type  2   force =     0.00205737   -0.00245297    0.00160661
     atom  178 type  2   force =    -0.00228916    0.00132393    0.00137318
     atom  179 type  2   force =     0.00000000    0.00675459    0.00097450
     atom  180 type  2   force =     0.00000000   -0.00015881    0.00463067
     atom  181 type  2   force =    -0.00205737   -0.00245297    0.00160661
     atom  182 type  2   force =     0.00228916    0.00132393    0.00137318
     atom  183 type  2   force =     0.00121530    0.00049960   -0.00267700
     atom  184 type  2   force =    -0.00172909   -0.00295301   -0.00442111
     atom  185 type  2   force =     0.00000000    0.00294941   -0.00109315
     atom  186 type  2   force =     0.00000000   -0.00397452    0.00100073
     atom  187 type  2   force =    -0.00313000   -0.00073545   -0.00184755
     atom  188 type  2   force =    -0.00146131    0.00040982    0.00212564
     atom  189 type  2   force =     0.00249546    0.00108435   -0.00211630
     atom  190 type  2   force =     0.00084265   -0.00073445    0.00124323
     atom  191 type  2   force =     0.00000000    0.00249672   -0.00405211
     atom  192 type  2   force =     0.00000000   -0.00051706    0.00134936
     atom  193 type  2   force =    -0.00249546    0.00108435   -0.00211630
     atom  194 type  2   force =    -0.00084265   -0.00073445    0.00124323
     atom  195 type  2   force =     0.00313000   -0.00073545   -0.00184755
     atom  196 type  2   force =     0.00146131    0.00040982    0.00212564

     Total force =     0.038053     Total SCF correction =     0.000274

     number of scf cycles    =  12
     number of bfgs steps    =  11

     energy   old            =  -13246.8272378444 Ry
     energy   new            =  -13246.8292197344 Ry

     CASE: energy  _new < energy  _old

     new trust radius        =       0.0426318379 bohr
     new conv_thr            =       0.0000000100 Ry


ATOMIC_POSITIONS (angstrom)
Cu       0.000000000   0.000263809   7.358073105
Cu       1.844512694   1.704120394   7.359250862
Cu       3.689036991   0.000274287   7.358200711
Cu       5.533561289   1.704120394   7.359250862
Cu       0.000000000   3.407571894   7.359690869
Cu       1.844428228   5.111410901   7.358507920
Cu       3.689036991   3.407788850   7.359304564
Cu       5.533645755   5.111410901   7.358507920
Cu       0.000000000   6.815686998   7.357547739
Cu       1.844670814   8.519757217   7.358013723
Cu       3.689036991   6.815425784   7.357580501
Cu       5.533403169   8.519757217   7.358013723
Cu       0.000000000  10.223472044   7.359045928
Cu       1.844500081  11.927031537   7.359539179
Cu       3.689036991  10.223645461   7.359384965
Cu       5.533573902  11.927031537   7.359539179
Cu       0.000000000  13.630799041   7.358567691
Cu       1.844554620  15.334938772   7.357693820
Cu       3.689036991  13.630658151   7.358521064
Cu       5.533519363  15.334938772   7.357693820
Cu       0.000000000   1.703227295   9.192851214
Cu       1.844525802  -0.000693071   9.191627955
Cu       3.689036991   1.703827716   9.192585010
Cu       5.533548181  -0.000693071   9.191627955
Cu       0.000000000   5.113120195   9.192152877
Cu       1.844552841   3.408456829   9.192968704
Cu       3.689036991   5.112793093   9.192315848
Cu       5.533521142   3.408456829   9.192968704
Cu       0.000000000   8.518924084   9.191873673
Cu       1.844641199   6.816111368   9.191553575
Cu       3.689036991   8.518674618   9.192270972
Cu       5.533432784   6.816111368   9.191553575
Cu       0.000000000  11.926863162   9.193114828
Cu       1.844614908  10.222452246   9.193068339
Cu       3.689036991  11.927282203   9.193546337
Cu       5.533459075  10.222452246   9.193068339
Cu       0.000000000  15.334997402   9.191224379
Cu       1.844596579  13.631333474   9.192397435
Cu       3.689036991  15.334579873   9.191387096
Cu       5.533477404  13.631333474   9.192397435
Cu       0.000000000  -0.002324019  11.035544580
Cu       1.844734225   1.703313190  11.034470901
Cu       3.689036991  -0.001737242  11.034400196
Cu       5.533339758   1.703313190  11.034470901
Cu       0.000000000   3.410333589  11.034354272
Cu       1.844818325   5.115689445  11.036882528
Cu       3.689036991   3.410351860  11.035946754
Cu       5.533255658   5.115689445  11.036882528
Cu       0.000000000   6.817569167  11.038467729
Cu       1.844217368   8.517736356  11.038441561
Cu       3.689036991   6.817330176  11.038960939
Cu       5.533856615   8.517736356  11.038441561
Cu       0.000000000  10.220488049  11.037756783
Cu       1.844473289  11.925425823  11.037106421
Cu       3.689036991  10.220368816  11.036959851
Cu       5.533600694  11.925425823  11.037106421
Cu       0.000000000  13.631057483  11.035728772
Cu       1.844546583  15.334433744  11.036000297
Cu       3.689036991  13.630833017  11.037853072
Cu       5.533527400  15.334433744  11.036000297
Cu       0.000000000   1.704887240  12.870848022
Cu       1.845207899  -0.001120196  12.878051579
Cu       3.689036991   1.702000301  12.874721511
Cu       5.532866084  -0.001120196  12.878051579
Cu       0.000000000   5.117329916  12.880682728
Cu       1.846996700   3.411665939  12.874157507
Cu       3.689036991   5.118966433  12.884575545
Cu       5.531077283   3.411665939  12.874157507
Cu       0.000000000   8.517590438  12.891468808
Cu       1.844560805   6.819974917  12.889908838
Cu       3.689036991   8.520004083  12.889293337
Cu       5.533513178   6.819974917  12.889908838
Cu       0.000000000  11.922764885  12.880579887
Cu       1.843306166  10.216468134  12.884425056
Cu       3.689036991  11.918212018  12.879410074
Cu       5.534767817  10.216468134  12.884425056
Cu       0.000000000  15.332630916  12.881917629
Cu       1.843646439  13.628734755  12.879077015
Cu       3.689036991  15.335748122  12.881332469
Cu       5.534427544  13.628734755  12.879077015
Cu       0.000000000   0.007779020  14.692259385
Cu       1.846911245   1.706875832  14.689621929
Cu       3.689036991   0.001237912  14.705068207
Cu       5.531162738   1.706875832  14.689621929
Cu       0.000000000   3.408584605  14.684008236
Cu       1.852832849   5.110790944  14.701845658
Cu       3.689036991   3.403237785  14.698266919
Cu       5.525241134   5.110790944  14.701845658
Cu       0.000000000   6.810768184  14.717759222
Cu       1.842185405   8.520553709  14.720889788
Cu       3.689036991   6.823640423  14.720729595
Cu       5.535888578   8.520553709  14.720889788
Cu       0.000000000  10.222531556  14.717482310
Cu       1.845026979  11.920440264  14.697847204
Cu       3.689036991  10.221446706  14.718214868
Cu       5.533047004  11.920440264  14.697847204
Cu       0.000000000  13.624660847  14.705332140
Cu       1.843317789  15.334663333  14.697438056
Cu       3.689036991  13.623526925  14.690698460
Cu       5.534756194  15.334663333  14.697438056
C        0.000000000   0.710352020  17.629237503
C        0.000000000   2.131209532  17.618860675
C        1.230409524   0.001552436  17.628528556
C        1.228633366   2.839598761  17.606101297
C        2.457364263   0.710241912  17.613781476
C        2.458247195   2.129869631  17.595158376
C        3.689036991   0.000638856  17.608264560
C        3.689036991   2.841864420  17.590396721
C        4.920709719   0.710241912  17.613781476
C        4.919826787   2.129869631  17.595158376
C        6.147664459   0.001552436  17.628528556
C        6.149440617   2.839598761  17.606101297
C        0.000000000   4.969178938  17.636927862
C        0.000000000   6.388914547  17.676055930
C        1.228143886   4.259461259  17.616854418
C        1.230070095   7.098891982  17.685838795
C        2.459366046   4.969704766  17.641644557
C        2.457967603   6.390716318  17.673078730
C        3.689036991   4.260635476  17.635107045
C        3.689036991   7.101069653  17.678694545
C        4.918707936   4.969704766  17.641644557
C        4.920106379   6.390716318  17.673078730
C        6.149930097   4.259461259  17.616854418
C        6.148003888   7.098891982  17.685838795
C        0.000000000   9.229129095  17.690634949
C        0.000000000  10.647676972  17.650292395
C        1.229683095   8.519225371  17.694576766
C        1.231020790  11.359672380  17.634462587
C        2.459912501   9.231077576  17.691307252
C        2.460098903  10.650524051  17.683186075
C        3.689036991   8.521091236  17.706864665
C        3.689036991  11.361798734  17.691637342
C        4.918161481   9.231077576  17.691307252
C        4.917975079  10.650524051  17.683186075
C        6.148390888   8.519225371  17.694576766
C        6.147053193  11.359672380  17.634462587
C        0.000000000  13.489807789  17.568102417
C        0.000000000  14.910169985  17.592581173
C        1.231026317  12.779492179  17.600148353
C        1.229359809  15.621628627  17.605613255
C        2.460605462  13.489726519  17.627920132
C        2.459959784  14.910462221  17.604766156
C        3.689036991  12.780486915  17.667744909
C        3.689036991  15.619490097  17.613046544
C        4.917468520  13.489726519  17.627920132
C        4.918114198  14.910462221  17.604766156
C        6.147047666  12.779492179  17.600148353
C        6.148714174  15.621628627  17.605613255
C        0.000000000   2.130096421  20.921530870
C        0.000000000   3.550346557  20.929033451
C        1.229538913   1.419034786  20.909555430
C        1.229575856   4.260135420  20.909284608
C        2.459116032   2.129338269  20.909500277
C        2.459165435   3.549648398  20.895862531
C        3.689036991   1.419441431  20.904253384
C        3.689036991   4.259211426  20.868539455
C        4.918957950   2.129338269  20.909500277
C        4.918908547   3.549648398  20.895862531
C        6.148535070   1.419034786  20.909555430
C        6.148498127   4.260135420  20.909284608
C        0.000000000   6.390750116  20.849220218
C        0.000000000   7.810376996  20.814497378
C        1.229364270   5.680265362  20.870119327
C        1.230061791   8.520402464  20.813214499
C        2.459096691   6.389712952  20.838533322
C        2.458707989   7.809390734  20.824861774
C        3.689036991   5.678578009  20.842242624
C        3.689036991   8.519211651  20.819375268
C        4.918977291   6.389712952  20.838533322
C        4.919365993   7.809390734  20.824861774
C        6.148709713   5.680265362  20.870119327
C        6.148012192   8.520402464  20.813214499
C        0.000000000  10.650241279  20.841657770
C        0.000000000  12.070308190  20.887132053
C        1.229302076   9.940418640  20.825297293
C        1.229747600  12.779172862  20.904236775
C        2.459518472  10.649655020  20.839240900
C        2.459592870  12.069923289  20.869137643
C        3.689036991   9.939766593  20.833920345
C        3.689036991  12.779371628  20.875915498
C        4.918555510  10.649655020  20.839240900
C        4.918481112  12.069923289  20.869137643
C        6.148771907   9.940418640  20.825297293
C        6.148326383  12.779172862  20.904236775
C        0.000000000  14.908631094  20.918619049
C        0.000000000  16.328436223  20.898435578
C        1.229585337  14.198983102  20.922855426
C        1.230133432  17.038243166  20.895206760
C        2.459769604  14.909228691  20.913108988
C        2.458896463  16.328580410  20.897188131
C        3.689036991  14.198346464  20.906828336
C        3.689036991  17.037989653  20.893199775
C        4.918304378  14.909228691  20.913108988
C        4.919177519  16.328580410  20.897188131
C        6.148488646  14.198983102  20.922855426
C        6.147940551  17.038243166  20.895206760



     Writing output data file gc.save
     Check: negative starting charge=   -0.001603
     NEW-OLD atomic charge density approx. for the potential
     Check: negative starting charge=   -0.001603

     negative rho (up, down):  1.763E-03 0.000E+00

     total cpu time spent up to now is    70225.0 secs

     Self-consistent Calculation

     iteration #  1     ecut=    80.00 Ry     beta=0.70
     Davidson diagonalization with overlap
