
     Program PWSCF v.5.4.0 starts on 10Jan2017 at  8: 8:10 

     This program is part of the open-source Quantum ESPRESSO suite
     for quantum simulation of materials; please cite
         "P. Giannozzi et al., J. Phys.:Condens. Matter 21 395502 (2009);
          URL http://www.quantum-espresso.org", 
     in publications or presentations arising from this work. More details at
     http://www.quantum-espresso.org/quote

     Parallel version (MPI & OpenMP), running on      64 processor cores
     Number of MPI processes:                64
     Threads/MPI process:                     1
     R & G space division:  proc/nbgrp/npool/nimage =      64
     Waiting for input...
     Reading input from standard input
Warning: card &IONS ignored
Warning: card / ignored

     Current dimensions of program PWSCF are:
     Max number of different atomic species (ntypx) = 10
     Max number of k-points (npk) =  40000
     Max angular momentum in pseudopotentials (lmaxx) =  3
     WARNING: atomic wfc #  2 for atom type 4 has zero norm
     WARNING: atomic wfc #  4 for atom type 4 has zero norm
     WARNING: atomic wfc #  5 for atom type 4 has zero norm

     -------------------------------------
     Parameters for Dispersion Correction:
     -------------------------------------
       atom      VdW radius       C_6     

        Cu         2.952        374.666
        C_h        2.744         60.710
        C          2.744         60.710
        O          2.536         24.284

     Subspace diagonalization in iterative solution of the eigenvalue problem:
     one sub-group per band group will be used
     scalapack distributed-memory algorithm (size of sub-group:  5*  5 procs)

 
     Parallelization info
     --------------------
     sticks:   dense  smooth     PW     G-vecs:    dense   smooth      PW
     Min         178     178     47                32032    32032    4341
     Max         179     179     48                32043    32043    4347
     Sum       11433   11433   3039              2050409  2050409  278033
 


     bravais-lattice index     =            0
     lattice parameter (alat)  =      13.9425  a.u.
     unit-cell volume          =   21209.0878 (a.u.)^3
     number of atoms/cell      =          149
     number of atomic types    =            4
     number of electrons       =      1298.00
     number of Kohn-Sham states=          779
     kinetic-energy cutoff     =      80.0000  Ry
     charge density cutoff     =     320.0000  Ry
     convergence threshold     =      1.0E-08
     mixing beta               =       0.7000
     number of iterations used =            8  local-TF  mixing
     Exchange-correlation      =  SLA  PW   PBX  PBC ( 1  4  3  4 0 0)

     celldm(1)=  13.942539  celldm(2)=   0.000000  celldm(3)=   0.000000
     celldm(4)=   0.000000  celldm(5)=   0.000000  celldm(6)=   0.000000

     crystal axes: (cart. coord. in units of alat)
               a(1) = (   1.000000   0.000000   0.000000 )  
               a(2) = (   0.000000   2.309401   0.000000 )  
               a(3) = (   0.000000   0.000000   3.388418 )  

     reciprocal axes: (cart. coord. in units 2 pi/alat)
               b(1) = (  1.000000  0.000000  0.000000 )  
               b(2) = (  0.000000  0.433013  0.000000 )  
               b(3) = (  0.000000  0.000000  0.295123 )  


     PseudoPot. # 1 for Cu read from file:
     /home/549/hxw549/Short/pseudopotentials/Cu.pbe-n-van_ak.UPF
     MD5 check sum: 601f7c30f7467666bec936e0661ce3e1
     Pseudo is Ultrasoft + core correction, Zval = 11.0
     Generated by new atomic code, or converted to UPF format
     Using radial grid of  867 points,  6 beta functions with: 
                l(1) =   0
                l(2) =   0
                l(3) =   1
                l(4) =   1
                l(5) =   2
                l(6) =   2
     Q(r) pseudized with  8 coefficients,  rinner =    1.400   1.400   1.400
                                                       1.400   1.400

     PseudoPot. # 2 for C  read from file:
     /home/549/hxw549/Short/pseudopotentials/C.star1s-pbe-mt_gipaw.UPF
     MD5 check sum: ef0cb3dee31bd9e4ba2a832a2c716264
     Pseudo is Norm-conserving, Zval =  5.0
     Generated by new atomic code, or converted to UPF format
     Using radial grid of 1073 points,  1 beta functions with: 
                l(1) =   0

     PseudoPot. # 3 for C  read from file:
     /home/549/hxw549/Short/pseudopotentials/C.pbe-mt_gipaw.UPF
     MD5 check sum: 5ac2f21f2c440b14befe521540822c15
     Pseudo is Norm-conserving, Zval =  4.0
     Generated by new atomic code, or converted to UPF format
     Using radial grid of 1073 points,  1 beta functions with: 
                l(1) =   0

     PseudoPot. # 4 for O  read from file:
     /home/549/hxw549/Short/pseudopotentials/O.pbe-van_gipaw.UPF
     MD5 check sum: 5ce2a047509d4f331db576c963e74b29
     Pseudo is Ultrasoft, Zval =  6.0
     Generated by new atomic code, or converted to UPF format
     Using radial grid of 1095 points,  4 beta functions with: 
                l(1) =   0
                l(2) =   0
                l(3) =   1
                l(4) =   1
     Q(r) pseudized with 0 coefficients 


     atomic species   valence    mass     pseudopotential
        Cu            11.00    63.54600     Cu( 1.00)
        C_h            5.00    12.01070     C ( 1.00)
        C              4.00    12.01070     C ( 1.00)
        O              6.00    15.99940     O ( 1.00)

     No symmetry found



   Cartesian axes

     site n.     atom                  positions (alat units)
         1           Cu  tau(   1) = (  -0.0000081   0.0001634   0.9978611  )
         2           Cu  tau(   2) = (   0.2499603   0.2308283   0.9974647  )
         3           Cu  tau(   3) = (   0.4999608  -0.0000844   0.9975769  )
         4           Cu  tau(   4) = (   0.7500001   0.2308382   0.9975417  )
         5           Cu  tau(   5) = (  -0.0000014   0.4616908   0.9973503  )
         6           Cu  tau(   6) = (   0.2501027   0.6927721   0.9973783  )
         7           Cu  tau(   7) = (   0.4999946   0.4618506   0.9975724  )
         8           Cu  tau(   8) = (   0.7499844   0.6927910   0.9974721  )
         9           Cu  tau(   9) = (  -0.0000234   0.9237236   0.9972586  )
        10           Cu  tau(  10) = (   0.2501357   1.1546412   0.9974124  )
        11           Cu  tau(  11) = (   0.4999866   0.9237023   0.9975526  )
        12           Cu  tau(  12) = (   0.7499395   1.1546225   0.9975023  )
        13           Cu  tau(  13) = (  -0.0000076   1.3857023   0.9973616  )
        14           Cu  tau(  14) = (   0.2499537   1.6165878   0.9975801  )
        15           Cu  tau(  15) = (   0.4999978   1.3855696   0.9977238  )
        16           Cu  tau(  16) = (   0.7500038   1.6166281   0.9976115  )
        17           Cu  tau(  17) = (   0.0000099   1.8473350   0.9979274  )
        18           Cu  tau(  18) = (   0.2499132   2.0785162   0.9979250  )
        19           Cu  tau(  19) = (   0.4999414   1.8475949   0.9976049  )
        20           Cu  tau(  20) = (   0.7500361   2.0784540   0.9976750  )
        21           Cu  tau(  21) = (   0.0000930   0.2309087   1.2462392  )
        22           Cu  tau(  22) = (   0.2498566   0.0003319   1.2464328  )
        23           Cu  tau(  23) = (   0.4998974   0.2299242   1.2449315  )
        24           Cu  tau(  24) = (   0.7500971  -0.0000910   1.2459364  )
        25           Cu  tau(  25) = (   0.0002960   0.6922586   1.2447203  )
        26           Cu  tau(  26) = (   0.2497813   0.4611677   1.2449395  )
        27           Cu  tau(  27) = (   0.5001330   0.6926932   1.2455483  )
        28           Cu  tau(  28) = (   0.7503386   0.4610531   1.2448013  )
        29           Cu  tau(  29) = (   0.0002616   1.1551417   1.2446448  )
        30           Cu  tau(  30) = (   0.2502934   0.9236408   1.2451495  )
        31           Cu  tau(  31) = (   0.5001301   1.1545731   1.2456550  )
        32           Cu  tau(  32) = (   0.7500138   0.9236700   1.2454914  )
        33           Cu  tau(  33) = (   0.0000902   1.6164026   1.2463056  )
        34           Cu  tau(  34) = (   0.2497426   1.3861909   1.2449494  )
        35           Cu  tau(  35) = (   0.4999002   1.6177118   1.2448689  )
        36           Cu  tau(  36) = (   0.7503896   1.3863292   1.2448074  )
        37           Cu  tau(  37) = (   0.0000478   2.0784842   1.2460031  )
        38           Cu  tau(  38) = (   0.2498399   1.8472705   1.2463712  )
        39           Cu  tau(  39) = (   0.4998978   2.0784532   1.2457893  )
        40           Cu  tau(  40) = (   0.7501098   1.8475913   1.2459788  )
        41           Cu  tau(  41) = (   0.0001856  -0.0003195   1.4955457  )
        42           Cu  tau(  42) = (   0.2495352   0.2314793   1.4966494  )
        43           Cu  tau(  43) = (   0.4998331  -0.0003710   1.4950432  )
        44           Cu  tau(  44) = (   0.7505940   0.2299782   1.4948838  )
        45           Cu  tau(  45) = (   0.0005256   0.4612344   1.4952314  )
        46           Cu  tau(  46) = (   0.2503108   0.6899119   1.4924605  )
        47           Cu  tau(  47) = (   0.5000260   0.4580973   1.4912988  )
        48           Cu  tau(  48) = (   0.7516067   0.6899774   1.4918151  )
        49           Cu  tau(  49) = (   0.0018591   0.9238388   1.4913338  )
        50           Cu  tau(  50) = (   0.2500089   1.1575445   1.4922149  )
        51           Cu  tau(  51) = (   0.5016592   0.9235919   1.4944828  )
        52           Cu  tau(  52) = (   0.7517748   1.1574098   1.4918533  )
        53           Cu  tau(  53) = (   0.0006584   1.3858178   1.4957876  )
        54           Cu  tau(  54) = (   0.2494128   1.6157970   1.4967299  )
        55           Cu  tau(  55) = (   0.5000120   1.3896209   1.4907901  )
        56           Cu  tau(  56) = (   0.7507705   1.6172705   1.4950216  )
        57           Cu  tau(  57) = (   0.0001170   1.8476690   1.4954541  )
        58           Cu  tau(  58) = (   0.2499559   2.0784858   1.4955799  )
        59           Cu  tau(  59) = (   0.4998978   1.8478462   1.4952188  )
        60           Cu  tau(  60) = (   0.7500210   2.0784781   1.4955159  )
        61           Cu  tau(  61) = (   0.0007946   0.2300320   1.7438686  )
        62           Cu  tau(  62) = (   0.2501940  -0.0004364   1.7450082  )
        63           Cu  tau(  63) = (   0.4999517   0.2297727   1.7433026  )
        64           Cu  tau(  64) = (   0.7500662  -0.0003413   1.7448356  )
        65           Cu  tau(  65) = (   0.0042122   0.6914945   1.7435736  )
        66           Cu  tau(  66) = (   0.2507788   0.4613690   1.7463007  )
        67           Cu  tau(  67) = (   0.5027604   0.6881950   1.7365463  )
        68           Cu  tau(  68) = (   0.7518720   0.4592074   1.7422222  )
        69           Cu  tau(  69) = (   0.0055308   1.1556792   1.7463164  )
        70           Cu  tau(  70) = (   0.2512957   0.9237410   1.7299832  )
        71           Cu  tau(  71) = (   0.5021808   1.1596468   1.7355543  )
        72           Cu  tau(  72) = (   0.7603529   0.9240923   1.7347932  )
        73           Cu  tau(  73) = (   0.0009270   1.6171148   1.7446571  )
        74           Cu  tau(  74) = (   0.2499777   1.3832367   1.7498057  )
        75           Cu  tau(  75) = (   0.5000412   1.6166888   1.7430851  )
        76           Cu  tau(  76) = (   0.7529031   1.3874316   1.7428651  )
        77           Cu  tau(  77) = (   0.0000804   2.0782178   1.7452477  )
        78           Cu  tau(  78) = (   0.2499937   1.8478049   1.7446450  )
        79           Cu  tau(  79) = (   0.5000811   2.0785855   1.7452683  )
        80           Cu  tau(  80) = (   0.7503369   1.8475970   1.7447595  )
        81           Cu  tau(  81) = (   0.0004509   0.0001296   1.9905407  )
        82           Cu  tau(  82) = (   0.2511864   0.2293995   1.9909008  )
        83           Cu  tau(  83) = (   0.5005876   0.0001976   1.9920923  )
        84           Cu  tau(  84) = (   0.7519731   0.2307674   1.9899190  )
        85           Cu  tau(  85) = (   0.0045069   0.4583020   1.9902508  )
        86           Cu  tau(  86) = (   0.2491139   0.6808004   1.9910164  )
        87           Cu  tau(  87) = (   0.5024785   0.4573844   1.9900265  )
        88           Cu  tau(  88) = (   0.7570901   0.6816718   1.9879195  )
        89           Cu  tau(  89) = (  -0.0102675   0.9218760   1.9927100  )
        90           Cu  tau(  90) = (   0.2537906   1.1553815   1.9971949  )
        91           Cu  tau(  91) = (   0.5393300   0.9254001   1.9709594  )
        92           Cu  tau(  92) = (   0.7598418   1.1658442   1.9899533  )
        93           Cu  tau(  93) = (   0.0083264   1.3872563   1.9936961  )
        94           Cu  tau(  94) = (   0.2511942   1.6183421   1.9905376  )
        95           Cu  tau(  95) = (   0.5011905   1.3872377   1.9889098  )
        96           Cu  tau(  96) = (   0.7522387   1.6157143   1.9900791  )
        97           Cu  tau(  97) = (   0.0001639   1.8475130   1.9920757  )
        98           Cu  tau(  98) = (   0.2503744   2.0780833   1.9914896  )
        99           Cu  tau(  99) = (   0.5009107   1.8465106   1.9901791  )
       100           Cu  tau( 100) = (   0.7501924   2.0783533   1.9913752  )
       101           C   tau( 101) = (  -0.0002924   0.0969937   2.3854660  )
       102           C   tau( 102) = (   0.0000098   0.2896521   2.3841964  )
       103           C   tau( 103) = (   0.1663791   0.0007536   2.3866907  )
       104           C   tau( 104) = (   0.1664553   0.3859546   2.3870162  )
       105           C   tau( 105) = (   0.3328529   0.0969479   2.3836697  )
       106           C   tau( 106) = (   0.3331954   0.2896293   2.3860532  )
       107           C   tau( 107) = (   0.4996894   0.0005723   2.3839658  )
       108           C   tau( 108) = (   0.4999072   0.3859882   2.3860857  )
       109           C   tau( 109) = (   0.6665649   0.0970071   2.3831236  )
       110           C   tau( 110) = (   0.6667176   0.2897298   2.3808174  )
       111           C   tau( 111) = (   0.8330193   0.0007170   2.3862628  )
       112           C   tau( 112) = (   0.8334304   0.3860396   2.3809915  )
       113           C   tau( 113) = (   0.0002326   0.6745071   2.3936841  )
       114           C   tau( 114) = (   0.0004101   0.8669874   2.3963803  )
       115           C   tau( 115) = (   0.1670591   0.5786799   2.3921562  )
       116           C   tau( 116) = (   0.1664716   0.9627690   2.4130982  )
       117           C   tau( 117) = (   0.3334246   0.6743834   2.4084049  )
       118           C   tau( 118) = (   0.3332758   0.8663451   2.4203144  )
       119           C   tau( 119) = (   0.4997656   0.5786400   2.3938556  )
       120           C_h tau( 120) = (   0.4997301   0.9624188   2.4145037  )
       121           O   tau( 121) = (   0.3009901   0.9189763   2.0822518  )
       122           C   tau( 122) = (   0.6668103   0.6747554   2.3940492  )
       123           C   tau( 123) = (   0.6663170   0.8668645   2.4038203  )
       124           C   tau( 124) = (   0.8336803   0.5786724   2.3879795  )
       125           C   tau( 125) = (   0.8329808   0.9628350   2.3949976  )
       126           C   tau( 126) = (   0.0002716   1.2507357   2.3877300  )
       127           C   tau( 127) = (   0.0002848   1.4429545   2.3776873  )
       128           C   tau( 128) = (   0.1668984   1.1543747   2.3987677  )
       129           C   tau( 129) = (   0.1669505   1.5395933   2.3815343  )
       130           C   tau( 130) = (   0.3336537   1.2510353   2.4002906  )
       131           C   tau( 131) = (   0.3337240   1.4432847   2.3918861  )
       132           C   tau( 132) = (   0.4999100   1.1544416   2.4067025  )
       133           C   tau( 133) = (   0.5001505   1.5397080   2.3899454  )
       134           C   tau( 134) = (   0.6661853   1.2506276   2.3925093  )
       135           C   tau( 135) = (   0.6663679   1.4428858   2.3869154  )
       136           C   tau( 136) = (   0.8333508   1.1549057   2.3929345  )
       137           C   tau( 137) = (   0.8329703   1.5392929   2.3793910  )
       138           C   tau( 138) = (  -0.0001549   1.8284168   2.3825987  )
       139           C   tau( 139) = (  -0.0003498   2.0212270   2.3880416  )
       140           C   tau( 140) = (   0.1668275   1.7321956   2.3830011  )
       141           C   tau( 141) = (   0.1664164   2.1174087   2.3883288  )
       142           C   tau( 142) = (   0.3333189   1.8283245   2.3877965  )
       143           C   tau( 143) = (   0.3331995   2.0210739   2.3887166  )
       144           C   tau( 144) = (   0.5000524   1.7321500   2.3873007  )
       145           C   tau( 145) = (   0.4997004   2.1172826   2.3887600  )
       146           C   tau( 146) = (   0.6665697   1.8283077   2.3871378  )
       147           C   tau( 147) = (   0.6663708   2.0211625   2.3887760  )
       148           C   tau( 148) = (   0.8329818   1.7320388   2.3821176  )
       149           C   tau( 149) = (   0.8331890   2.1175337   2.3881764  )

     number of k points=     6  gaussian smearing, width (Ry)=  0.1000
                       cart. coord. in units 2pi/alat
        k(    1) = (   0.0000000   0.0000000   0.0000000), wk =   0.2500000
        k(    2) = (   0.0000000  -0.2165064   0.0000000), wk =   0.2500000
        k(    3) = (   0.2500000   0.0000000   0.0000000), wk =   0.5000000
        k(    4) = (   0.2500000  -0.2165064   0.0000000), wk =   0.5000000
        k(    5) = (  -0.5000000   0.0000000   0.0000000), wk =   0.2500000
        k(    6) = (  -0.5000000  -0.2165064   0.0000000), wk =   0.2500000

     Dense  grid:  2050409 G-vectors     FFT dimensions: (  80, 192, 270)

     Largest allocated arrays     est. size (Mb)     dimensions
        Kohn-Sham Wavefunctions        47.59 Mb     (    4004,  779)
        NL pseudopotentials           113.39 Mb     (    4004, 1856)
        Each V/rho on FFT grid          1.17 Mb     (   76800)
        Each G-vector array             0.24 Mb     (   32034)
        G-vector shells                 0.12 Mb     (   15554)
     Largest temporary arrays     est. size (Mb)     dimensions
        Auxiliary wavefunctions       190.38 Mb     (    4004, 3116)
        Each subspace H/S matrix        5.92 Mb     (     623,  623)
        Each <psi_i|beta_j> matrix     22.06 Mb     (    1856,  779)
        Arrays for rho mixing           9.38 Mb     (   76800,    8)

     Initial potential from superposition of free atoms
     Check: negative starting charge=   -0.001808

     starting charge 1272.81751, renormalised to 1298.00000

     negative rho (up, down):  1.844E-03 0.000E+00
     Starting wfc are 1288 randomized atomic wfcs

     total cpu time spent up to now is       96.1 secs

     Self-consistent Calculation

     iteration #  1     ecut=    80.00 Ry     beta=0.70
     Davidson diagonalization with overlap
     c_bands:  3 eigenvalues not converged
     c_bands:  3 eigenvalues not converged
     ethr =  1.00E-04,  avg # of iterations = 39.8

     negative rho (up, down):  2.792E+01 0.000E+00

     total cpu time spent up to now is     2019.6 secs

     total energy              =   -9376.22282533 Ry
     Harris-Foulkes estimate   =  -17369.88219462 Ry
     estimated scf accuracy    <  183020.42868558 Ry

     iteration #  2     ecut=    80.00 Ry     beta=0.70
     Davidson diagonalization with overlap
     ethr =  1.00E-02,  avg # of iterations = 12.7

     negative rho (up, down):  3.174E+01 0.000E+00

     total cpu time spent up to now is     2883.9 secs

     total energy              =  -12213.76804434 Ry
     Harris-Foulkes estimate   =  -13721.30470854 Ry
     estimated scf accuracy    <   24243.22291535 Ry

     iteration #  3     ecut=    80.00 Ry     beta=0.70
     Davidson diagonalization with overlap
     ethr =  1.00E-02,  avg # of iterations =  7.5

     negative rho (up, down):  3.242E+01 0.000E+00

     total cpu time spent up to now is     3386.2 secs

     total energy              =  -12493.59150869 Ry
     Harris-Foulkes estimate   =  -13451.47102224 Ry
     estimated scf accuracy    <    5968.87573110 Ry

     iteration #  4     ecut=    80.00 Ry     beta=0.70
     Davidson diagonalization with overlap
     ethr =  1.00E-02,  avg # of iterations =  5.8

     negative rho (up, down):  2.402E+01 0.000E+00

     total cpu time spent up to now is     3855.8 secs

     total energy              =  -12895.47993863 Ry
     Harris-Foulkes estimate   =  -13126.84293372 Ry
     estimated scf accuracy    <    1733.77801496 Ry

     iteration #  5     ecut=    80.00 Ry     beta=0.70
     Davidson diagonalization with overlap
     ethr =  1.00E-02,  avg # of iterations =  3.3

     negative rho (up, down):  1.645E+01 0.000E+00

     total cpu time spent up to now is     4102.2 secs

     total energy              =  -12886.86798163 Ry
     Harris-Foulkes estimate   =  -12991.40581423 Ry
     estimated scf accuracy    <     812.43744950 Ry

     iteration #  6     ecut=    80.00 Ry     beta=0.70
     Davidson diagonalization with overlap
     ethr =  1.00E-02,  avg # of iterations =  2.0

     negative rho (up, down):  1.186E+01 0.000E+00

     total cpu time spent up to now is     4268.1 secs

     total energy              =  -12861.78848468 Ry
     Harris-Foulkes estimate   =  -12915.61283626 Ry
     estimated scf accuracy    <     539.84801938 Ry

     iteration #  7     ecut=    80.00 Ry     beta=0.70
     Davidson diagonalization with overlap
     ethr =  1.00E-02,  avg # of iterations =  2.0

     negative rho (up, down):  8.540E+00 0.000E+00

     total cpu time spent up to now is     4430.5 secs

     total energy              =  -12837.19626341 Ry
     Harris-Foulkes estimate   =  -12881.52669889 Ry
     estimated scf accuracy    <     465.07749228 Ry

     iteration #  8     ecut=    80.00 Ry     beta=0.70
     Davidson diagonalization with overlap
     ethr =  1.00E-02,  avg # of iterations =  2.2

     negative rho (up, down):  7.438E+00 0.000E+00

     total cpu time spent up to now is     4591.7 secs

     total energy              =  -12831.54099541 Ry
     Harris-Foulkes estimate   =  -12848.04175899 Ry
     estimated scf accuracy    <     258.00142256 Ry

     iteration #  9     ecut=    80.00 Ry     beta=0.70
     Davidson diagonalization with overlap
     ethr =  1.00E-02,  avg # of iterations =  2.0

     negative rho (up, down):  5.199E+00 0.000E+00

     total cpu time spent up to now is     4751.1 secs

     total energy              =  -12810.90469921 Ry
     Harris-Foulkes estimate   =  -12835.46191400 Ry
     estimated scf accuracy    <     204.86902237 Ry

     iteration # 10     ecut=    80.00 Ry     beta=0.70
     Davidson diagonalization with overlap
     ethr =  1.00E-02,  avg # of iterations =  1.0

     negative rho (up, down):  1.183E+00 0.000E+00

     total cpu time spent up to now is     4900.0 secs

     total energy              =  -12771.61565872 Ry
     Harris-Foulkes estimate   =  -12813.00984520 Ry
     estimated scf accuracy    <     157.64650896 Ry

     iteration # 11     ecut=    80.00 Ry     beta=0.70
     Davidson diagonalization with overlap
     ethr =  1.00E-02,  avg # of iterations =  2.8

     negative rho (up, down):  8.780E-01 0.000E+00

     total cpu time spent up to now is     5069.2 secs

     total energy              =  -12765.22067728 Ry
     Harris-Foulkes estimate   =  -12777.56740675 Ry
     estimated scf accuracy    <     191.58706831 Ry

     iteration # 12     ecut=    80.00 Ry     beta=0.70
     Davidson diagonalization with overlap
     ethr =  1.00E-02,  avg # of iterations =  2.0

     negative rho (up, down):  1.615E+00 0.000E+00

     total cpu time spent up to now is     5229.5 secs

     total energy              =  -12754.69322047 Ry
     Harris-Foulkes estimate   =  -12772.91998556 Ry
     estimated scf accuracy    <      64.23992187 Ry

     iteration # 13     ecut=    80.00 Ry     beta=0.70
     Davidson diagonalization with overlap
     ethr =  4.95E-03,  avg # of iterations =  3.2

     negative rho (up, down):  6.143E+00 0.000E+00

     total cpu time spent up to now is     5404.6 secs

     total energy              =  -12750.56372987 Ry
     Harris-Foulkes estimate   =  -12762.03512050 Ry
     estimated scf accuracy    <      62.89492220 Ry

     iteration # 14     ecut=    80.00 Ry     beta=0.70
     Davidson diagonalization with overlap
     ethr =  4.85E-03,  avg # of iterations =  2.5

     negative rho (up, down):  7.538E+00 0.000E+00

     total cpu time spent up to now is     5571.9 secs

     total energy              =  -12749.30969499 Ry
     Harris-Foulkes estimate   =  -12752.48376711 Ry
     estimated scf accuracy    <      32.81798053 Ry

     iteration # 15     ecut=    80.00 Ry     beta=0.70
     Davidson diagonalization with overlap
     ethr =  2.53E-03,  avg # of iterations =  4.2

     negative rho (up, down):  6.692E+00 0.000E+00

     total cpu time spent up to now is     5758.0 secs

     total energy              =  -12747.09046473 Ry
     Harris-Foulkes estimate   =  -12750.20230340 Ry
     estimated scf accuracy    <      23.55838776 Ry

     iteration # 16     ecut=    80.00 Ry     beta=0.70
     Davidson diagonalization with overlap
     ethr =  1.81E-03,  avg # of iterations =  3.3

     negative rho (up, down):  6.304E+00 0.000E+00

     total cpu time spent up to now is     5934.3 secs

     total energy              =  -12745.91729822 Ry
     Harris-Foulkes estimate   =  -12748.48526098 Ry
     estimated scf accuracy    <      22.91073863 Ry

     iteration # 17     ecut=    80.00 Ry     beta=0.70
     Davidson diagonalization with overlap
     ethr =  1.77E-03,  avg # of iterations =  2.5

     negative rho (up, down):  5.120E+00 0.000E+00

     total cpu time spent up to now is     6102.3 secs

     total energy              =  -12745.95380774 Ry
     Harris-Foulkes estimate   =  -12747.62335661 Ry
     estimated scf accuracy    <      13.62821671 Ry

     iteration # 18     ecut=    80.00 Ry     beta=0.70
     Davidson diagonalization with overlap
     ethr =  1.05E-03,  avg # of iterations =  7.0

     negative rho (up, down):  3.278E+00 0.000E+00

     total cpu time spent up to now is     6324.2 secs

     total energy              =  -12744.71161217 Ry
     Harris-Foulkes estimate   =  -12746.24498798 Ry
     estimated scf accuracy    <      11.10800367 Ry

     iteration # 19     ecut=    80.00 Ry     beta=0.70
     Davidson diagonalization with overlap
     ethr =  8.56E-04,  avg # of iterations =  2.3

     negative rho (up, down):  2.257E+00 0.000E+00

     total cpu time spent up to now is     6490.2 secs

     total energy              =  -12744.05409321 Ry
     Harris-Foulkes estimate   =  -12744.90300900 Ry
     estimated scf accuracy    <       8.89193844 Ry

     iteration # 20     ecut=    80.00 Ry     beta=0.70
     Davidson diagonalization with overlap
     ethr =  6.85E-04,  avg # of iterations =  4.2

     negative rho (up, down):  1.986E+00 0.000E+00

     total cpu time spent up to now is     6677.2 secs

     total energy              =  -12743.25931296 Ry
     Harris-Foulkes estimate   =  -12744.20207772 Ry
     estimated scf accuracy    <       7.36929684 Ry

     iteration # 21     ecut=    80.00 Ry     beta=0.70
     Davidson diagonalization with overlap
     ethr =  5.68E-04,  avg # of iterations =  3.5

     negative rho (up, down):  1.150E+00 0.000E+00

     total cpu time spent up to now is     6856.8 secs

     total energy              =  -12742.74578505 Ry
     Harris-Foulkes estimate   =  -12743.35059996 Ry
     estimated scf accuracy    <       8.29992745 Ry

     iteration # 22     ecut=    80.00 Ry     beta=0.70
     Davidson diagonalization with overlap
     ethr =  5.68E-04,  avg # of iterations =  5.5

     negative rho (up, down):  1.458E-01 0.000E+00

     total cpu time spent up to now is     7060.3 secs

     total energy              =  -12740.54649945 Ry
     Harris-Foulkes estimate   =  -12742.82825102 Ry
     estimated scf accuracy    <       6.24781014 Ry

     iteration # 23     ecut=    80.00 Ry     beta=0.70
     Davidson diagonalization with overlap
     ethr =  4.81E-04,  avg # of iterations =  1.2

     negative rho (up, down):  1.334E-01 0.000E+00

     total cpu time spent up to now is     7210.9 secs

     total energy              =  -12740.02499957 Ry
     Harris-Foulkes estimate   =  -12740.75938848 Ry
     estimated scf accuracy    <       9.74449722 Ry

     iteration # 24     ecut=    80.00 Ry     beta=0.70
     Davidson diagonalization with overlap
     ethr =  4.81E-04,  avg # of iterations =  2.3

     negative rho (up, down):  2.406E-01 0.000E+00

     total cpu time spent up to now is     7374.3 secs

     total energy              =  -12739.60244447 Ry
     Harris-Foulkes estimate   =  -12740.43097933 Ry
     estimated scf accuracy    <       2.85974148 Ry

     iteration # 25     ecut=    80.00 Ry     beta=0.70
     Davidson diagonalization with overlap
     ethr =  2.20E-04,  avg # of iterations =  4.3

     negative rho (up, down):  5.571E-01 0.000E+00

     total cpu time spent up to now is     7565.4 secs

     total energy              =  -12739.29833807 Ry
     Harris-Foulkes estimate   =  -12739.69846465 Ry
     estimated scf accuracy    <       2.32187697 Ry

     iteration # 26     ecut=    80.00 Ry     beta=0.70
     Davidson diagonalization with overlap
     ethr =  1.79E-04,  avg # of iterations =  6.8

     negative rho (up, down):  7.247E-01 0.000E+00

     total cpu time spent up to now is     7784.5 secs

     total energy              =  -12739.04041376 Ry
     Harris-Foulkes estimate   =  -12739.37550251 Ry
     estimated scf accuracy    <       1.68261996 Ry

     iteration # 27     ecut=    80.00 Ry     beta=0.70
     Davidson diagonalization with overlap
     ethr =  1.30E-04,  avg # of iterations =  9.8

     negative rho (up, down):  2.934E-01 0.000E+00

     total cpu time spent up to now is     8057.4 secs

     total energy              =  -12738.97533509 Ry
     Harris-Foulkes estimate   =  -12739.12344601 Ry
     estimated scf accuracy    <       0.64306352 Ry

     iteration # 28     ecut=    80.00 Ry     beta=0.70
     Davidson diagonalization with overlap
     ethr =  4.95E-05,  avg # of iterations =  9.2

     negative rho (up, down):  2.457E-01 0.000E+00

     total cpu time spent up to now is     8331.6 secs

     total energy              =  -12738.99279779 Ry
     Harris-Foulkes estimate   =  -12739.01472358 Ry
     estimated scf accuracy    <       0.21029314 Ry

     iteration # 29     ecut=    80.00 Ry     beta=0.70
     Davidson diagonalization with overlap
     ethr =  1.62E-05,  avg # of iterations = 11.5

     negative rho (up, down):  1.134E-01 0.000E+00

     total cpu time spent up to now is     8618.7 secs

     total energy              =  -12739.00514655 Ry
     Harris-Foulkes estimate   =  -12739.00997129 Ry
     estimated scf accuracy    <       0.05778476 Ry

     iteration # 30     ecut=    80.00 Ry     beta=0.70
     Davidson diagonalization with overlap
     c_bands:  2 eigenvalues not converged
     ethr =  4.45E-06,  avg # of iterations = 16.7

     negative rho (up, down):  4.887E-02 0.000E+00

     total cpu time spent up to now is     9000.1 secs

     total energy              =  -12739.00648745 Ry
     Harris-Foulkes estimate   =  -12739.00982594 Ry
     estimated scf accuracy    <       0.01490578 Ry

     iteration # 31     ecut=    80.00 Ry     beta=0.70
     Davidson diagonalization with overlap
     c_bands:  1 eigenvalues not converged
     ethr =  1.15E-06,  avg # of iterations = 14.3

     negative rho (up, down):  3.084E-02 0.000E+00

     total cpu time spent up to now is     9345.7 secs

     total energy              =  -12739.00687664 Ry
     Harris-Foulkes estimate   =  -12739.00809923 Ry
     estimated scf accuracy    <       0.00672867 Ry

     iteration # 32     ecut=    80.00 Ry     beta=0.70
     Davidson diagonalization with overlap
     c_bands:  1 eigenvalues not converged
     c_bands:  2 eigenvalues not converged
     c_bands:  1 eigenvalues not converged
     ethr =  5.18E-07,  avg # of iterations = 15.2

     negative rho (up, down):  2.443E-02 0.000E+00

     total cpu time spent up to now is     9686.5 secs

     total energy              =  -12739.00718000 Ry
     Harris-Foulkes estimate   =  -12739.00732952 Ry
     estimated scf accuracy    <       0.00144764 Ry

     iteration # 33     ecut=    80.00 Ry     beta=0.70
     Davidson diagonalization with overlap
     ethr =  1.12E-07,  avg # of iterations =  9.3

     negative rho (up, down):  1.530E-02 0.000E+00

     total cpu time spent up to now is     9954.4 secs

     total energy              =  -12739.00706122 Ry
     Harris-Foulkes estimate   =  -12739.00733441 Ry
     estimated scf accuracy    <       0.00074717 Ry

     iteration # 34     ecut=    80.00 Ry     beta=0.70
     Davidson diagonalization with overlap
     c_bands:  1 eigenvalues not converged
     ethr =  5.76E-08,  avg # of iterations =  8.2

     negative rho (up, down):  6.663E-03 0.000E+00

     total cpu time spent up to now is    10196.0 secs

     total energy              =  -12739.00692169 Ry
     Harris-Foulkes estimate   =  -12739.00711868 Ry
     estimated scf accuracy    <       0.00017782 Ry

     iteration # 35     ecut=    80.00 Ry     beta=0.70
     Davidson diagonalization with overlap
     c_bands:  1 eigenvalues not converged
     ethr =  1.37E-08,  avg # of iterations = 11.0

     negative rho (up, down):  5.882E-03 0.000E+00

     total cpu time spent up to now is    10489.9 secs

     total energy              =  -12739.00693413 Ry
     Harris-Foulkes estimate   =  -12739.00694166 Ry
     estimated scf accuracy    <       0.00004482 Ry

     iteration # 36     ecut=    80.00 Ry     beta=0.70
     Davidson diagonalization with overlap
     ethr =  3.45E-09,  avg # of iterations =  3.2

     negative rho (up, down):  3.592E-03 0.000E+00

     total cpu time spent up to now is    10684.6 secs

     total energy              =  -12739.00690513 Ry
     Harris-Foulkes estimate   =  -12739.00694118 Ry
     estimated scf accuracy    <       0.00002900 Ry

     iteration # 37     ecut=    80.00 Ry     beta=0.70
     Davidson diagonalization with overlap
     ethr =  2.23E-09,  avg # of iterations =  4.0

     negative rho (up, down):  2.432E-03 0.000E+00

     total cpu time spent up to now is    10883.3 secs

     total energy              =  -12739.00689714 Ry
     Harris-Foulkes estimate   =  -12739.00690745 Ry
     estimated scf accuracy    <       0.00000734 Ry

     iteration # 38     ecut=    80.00 Ry     beta=0.70
     Davidson diagonalization with overlap
     ethr =  5.66E-10,  avg # of iterations =  5.3

     negative rho (up, down):  2.145E-03 0.000E+00

     total cpu time spent up to now is    11099.6 secs

     total energy              =  -12739.00689677 Ry
     Harris-Foulkes estimate   =  -12739.00689806 Ry
     estimated scf accuracy    <       0.00000400 Ry

     iteration # 39     ecut=    80.00 Ry     beta=0.70
     Davidson diagonalization with overlap
     ethr =  3.08E-10,  avg # of iterations =  2.7

     negative rho (up, down):  2.124E-03 0.000E+00

     total cpu time spent up to now is    11275.2 secs

     total energy              =  -12739.00689717 Ry
     Harris-Foulkes estimate   =  -12739.00689713 Ry
     estimated scf accuracy    <       0.00000122 Ry

     iteration # 40     ecut=    80.00 Ry     beta=0.70
     Davidson diagonalization with overlap
     ethr =  9.36E-11,  avg # of iterations =  2.2

     negative rho (up, down):  2.113E-03 0.000E+00

     total cpu time spent up to now is    11443.0 secs

     total energy              =  -12739.00689730 Ry
     Harris-Foulkes estimate   =  -12739.00689726 Ry
     estimated scf accuracy    <       0.00000037 Ry

     iteration # 41     ecut=    80.00 Ry     beta=0.70
     Davidson diagonalization with overlap
     ethr =  2.86E-11,  avg # of iterations =  2.7

     negative rho (up, down):  2.078E-03 0.000E+00

     total cpu time spent up to now is    11620.3 secs

     total energy              =  -12739.00689735 Ry
     Harris-Foulkes estimate   =  -12739.00689733 Ry
     estimated scf accuracy    <       0.00000010 Ry

     iteration # 42     ecut=    80.00 Ry     beta=0.70
     Davidson diagonalization with overlap
     ethr =  7.40E-12,  avg # of iterations =  2.2

     negative rho (up, down):  2.070E-03 0.000E+00

     total cpu time spent up to now is    11819.0 secs

     total energy              =  -12739.00689737 Ry
     Harris-Foulkes estimate   =  -12739.00689737 Ry
     estimated scf accuracy    <       0.00000004 Ry

     iteration # 43     ecut=    80.00 Ry     beta=0.70
     Davidson diagonalization with overlap
     ethr =  2.93E-12,  avg # of iterations =  2.0

     negative rho (up, down):  2.063E-03 0.000E+00

     total cpu time spent up to now is    11990.2 secs

     total energy              =  -12739.00689739 Ry
     Harris-Foulkes estimate   =  -12739.00689737 Ry
     estimated scf accuracy    <       0.00000002 Ry

     iteration # 44     ecut=    80.00 Ry     beta=0.70
     Davidson diagonalization with overlap
     ethr =  1.22E-12,  avg # of iterations =  2.0

     negative rho (up, down):  2.072E-03 0.000E+00

     total cpu time spent up to now is    12150.3 secs

     End of self-consistent calculation

          k = 0.0000 0.0000 0.0000 (256287 PWs)   bands (ev):

   -17.1907 -16.1948 -16.0348 -15.4581 -15.3670 -14.9840 -14.7173 -14.5705
   -14.2121 -14.1452 -14.0878 -14.0708 -13.4126 -13.2674 -13.0942 -13.0677
   -13.0319 -13.0233 -11.6198 -11.4804 -11.4267 -11.3347 -11.1542 -10.2914
    -9.7092  -9.7049  -9.5723  -9.4660  -8.9261  -8.7382  -8.6236  -8.5467
    -7.9889  -7.8482  -7.7092  -7.5843  -7.5240  -7.5210  -7.4814  -7.4677
    -6.3043  -6.2987  -6.0748  -6.0047  -5.9693  -5.8979  -5.8348  -5.8039
    -5.7910  -5.4905  -5.4591  -5.1419  -4.8748  -4.8010  -4.7552  -4.6183
    -4.5882  -4.5271  -4.3746  -4.2529  -4.1226  -3.9983  -3.9800  -3.9149
    -3.8870  -3.5540  -3.5262  -3.4978  -3.4686  -3.4027  -3.3990  -3.3778
    -3.3691  -3.3528  -3.1614  -3.1124  -3.0824  -3.0461  -3.0103  -3.0046
    -2.9946  -2.9630  -2.9201  -2.8655  -2.8203  -2.8037  -2.7541  -2.7403
    -2.6719  -2.6640  -2.6489  -2.6132  -2.5388  -2.4804  -2.4551  -2.3614
    -2.2949  -2.2923  -2.2078  -2.1844  -2.1786  -2.1685  -2.1518  -2.1485
    -2.1439  -2.1410  -2.1275  -2.1089  -2.0546  -2.0473  -2.0158  -2.0134
    -1.9897  -1.9831  -1.9697  -1.9214  -1.8257  -1.7674  -1.7476  -1.7327
    -1.7211  -1.7110  -1.6949  -1.6704  -1.6582  -1.6506  -1.6486  -1.6149
    -1.5955  -1.5926  -1.5577  -1.5563  -1.5465  -1.5415  -1.5346  -1.5293
    -1.5147  -1.5050  -1.5037  -1.5000  -1.4510  -1.4425  -1.3985  -1.3659
    -1.3446  -1.3432  -1.3273  -1.3113  -1.2909  -1.2617  -1.2565  -1.2478
    -1.2428  -1.2126  -1.2105  -1.1984  -1.1918  -1.1800  -1.1733  -1.1567
    -1.1533  -1.1154  -1.0924  -1.0831  -1.0679  -1.0603  -1.0469  -1.0347
    -1.0284  -1.0237  -1.0144  -1.0131  -1.0108  -1.0073  -0.9873  -0.9868
    -0.9692  -0.9652  -0.9567  -0.9377  -0.9363  -0.9219  -0.9203  -0.9169
    -0.9026  -0.8941  -0.8864  -0.8701  -0.8622  -0.8576  -0.8511  -0.8486
    -0.8482  -0.8461  -0.8445  -0.8435  -0.8420  -0.8386  -0.8368  -0.8358
    -0.8331  -0.8277  -0.8215  -0.8077  -0.8016  -0.7790  -0.7700  -0.7658
    -0.7423  -0.6861  -0.6801  -0.6771  -0.6705  -0.6576  -0.6554  -0.6402
    -0.6370  -0.6320  -0.6253  -0.6064  -0.6002  -0.5958  -0.5889  -0.5792
    -0.5736  -0.5701  -0.5541  -0.5505  -0.5490  -0.5463  -0.5399  -0.5284
    -0.5186  -0.4895  -0.4809  -0.4554  -0.4377  -0.4270  -0.4245  -0.4206
    -0.4111  -0.4035  -0.3998  -0.3964  -0.3957  -0.3949  -0.3868  -0.3843
    -0.3803  -0.3785  -0.3744  -0.3696  -0.3664  -0.3599  -0.3537  -0.3421
    -0.3224  -0.2991  -0.2966  -0.2821  -0.2804  -0.2775  -0.2734  -0.2588
    -0.2556  -0.2523  -0.2496  -0.2455  -0.2390  -0.2345  -0.2328  -0.2278
    -0.2156  -0.2105  -0.2086  -0.2042  -0.2023  -0.2000  -0.1988  -0.1976
    -0.1864  -0.1821  -0.1734  -0.1720  -0.1705  -0.1676  -0.1504  -0.1404
    -0.1264  -0.1113  -0.1091  -0.0974  -0.0851  -0.0713  -0.0649  -0.0605
    -0.0557  -0.0522  -0.0510  -0.0481  -0.0439  -0.0369  -0.0302  -0.0249
    -0.0221  -0.0023  -0.0007   0.0038   0.0123   0.0201   0.0228   0.0330
     0.0341   0.0368   0.0383   0.0431   0.0458   0.0531   0.0577   0.0600
     0.0663   0.0679   0.0692   0.0719   0.0764   0.0869   0.0911   0.0971
     0.1025   0.1074   0.1146   0.1234   0.1328   0.1421   0.1534   0.1667
     0.1736   0.1757   0.1924   0.2243   0.2296   0.2353   0.2420   0.2500
     0.2516   0.2590   0.2634   0.2667   0.2671   0.2781   0.2874   0.2922
     0.3051   0.3188   0.3336   0.3415   0.3468   0.3537   0.3596   0.3626
     0.3693   0.3809   0.3857   0.3877   0.4005   0.4020   0.4055   0.4073
     0.4252   0.4285   0.4367   0.4388   0.4433   0.4491   0.4589   0.4654
     0.4769   0.4944   0.5006   0.5036   0.5065   0.5135   0.5150   0.5222
     0.5237   0.5306   0.5398   0.5413   0.5493   0.5530   0.5567   0.5603
     0.5624   0.5650   0.5673   0.5730   0.5740   0.5773   0.5807   0.5842
     0.5999   0.6019   0.6127   0.6171   0.6252   0.6265   0.6270   0.6465
     0.6553   0.6584   0.6620   0.6654   0.6671   0.6754   0.6796   0.6814
     0.6847   0.6881   0.6934   0.6977   0.7012   0.7068   0.7087   0.7154
     0.7169   0.7236   0.7297   0.7323   0.7346   0.7406   0.7525   0.7569
     0.7602   0.7617   0.7646   0.7692   0.7694   0.7700   0.7723   0.7750
     0.7794   0.7892   0.7959   0.8016   0.8198   0.8224   0.8240   0.8260
     0.8345   0.8449   0.8489   0.8524   0.8566   0.8675   0.8699   0.8836
     0.8926   0.8976   0.8979   0.9087   0.9130   0.9154   0.9176   0.9274
     0.9283   0.9335   0.9368   0.9502   0.9539   0.9591   0.9599   0.9610
     0.9716   0.9737   0.9807   0.9820   0.9917   0.9958   0.9962   1.0012
     1.0072   1.0079   1.0144   1.0246   1.0258   1.0303   1.0354   1.0378
     1.0400   1.0423   1.0475   1.0543   1.0590   1.0593   1.0663   1.0713
     1.0734   1.0761   1.0868   1.0915   1.0973   1.1053   1.1154   1.1171
     1.1198   1.1230   1.1311   1.1331   1.1357   1.1370   1.1391   1.1402
     1.1410   1.1428   1.1531   1.1540   1.1680   1.1828   1.1855   1.1898
     1.2002   1.2039   1.2100   1.2155   1.2218   1.2232   1.2245   1.2292
     1.2302   1.2317   1.2380   1.2447   1.2468   1.2484   1.2502   1.2592
     1.2610   1.2696   1.2712   1.2728   1.2785   1.2822   1.2842   1.2874
     1.2935   1.2945   1.2956   1.3035   1.3096   1.3120   1.3135   1.3199
     1.3259   1.3271   1.3304   1.3316   1.3336   1.3357   1.3386   1.3471
     1.3554   1.3557   1.3645   1.3692   1.3717   1.3731   1.3813   1.3827
     1.3849   1.3906   1.4045   1.4068   1.4106   1.4147   1.4215   1.4231
     1.4279   1.4334   1.4369   1.4390   1.4410   1.4448   1.4492   1.4503
     1.4522   1.4531   1.4555   1.4568   1.4586   1.4671   1.4704   1.4781
     1.4803   1.4809   1.4816   1.4857   1.4961   1.5031   1.5129   1.5168
     1.5280   1.5320   1.5372   1.5424   1.5428   1.5615   1.5751   1.5798
     1.5905   1.5986   1.6035   1.6176   1.6257   1.6277   1.6399   1.6449
     1.6497   1.6507   1.6599   1.6637   1.6683   1.8479   1.8652   1.9192
     1.9769   1.9922   2.1348   2.1627   2.1948   2.2011   2.2113   2.2221
     2.2249   2.2306   2.2408   2.2461   2.2781   2.3266   2.4319   2.4458
     2.4747   2.4784   2.4855   2.5736   2.6580   2.6688   2.7113   2.7461
     2.8140   2.9704   3.0305   3.0457   3.0980   3.2480   3.3012   3.5717
     3.5905   3.8313   3.8475   3.8606   3.8717   3.8768   3.9720   3.9784
     4.0020   4.0134   4.0144   4.0177   4.0270   4.0628   4.0944   4.1391
     4.2077   4.2617   4.2833   4.4077   4.4572   4.4924   4.7622   4.7941
     4.9091   4.9330   4.9578   5.1740   5.4148   5.4457   5.4604   5.5336
     5.7363   5.7533   5.8680   5.9299   5.9340   6.0126   6.2366   6.3832
     6.4206   6.4321   6.4615   6.4948   6.5043   6.5343   6.6278   6.6548
     6.6969   6.7675   6.7946   6.8052   6.8139   6.8383   6.8483   6.9083
     7.0338   7.0797   7.0991   7.2053   7.3128   7.3495   7.4320   7.5410
     7.5874   7.5953   7.6495   7.7090   7.7583   7.8228   7.8622   8.0492
     8.0624   8.1511   8.1778   8.2467   8.2738   8.3245   8.3378   8.3401
     8.3555   8.3984   8.4263   8.4412   8.4801   8.4957   8.5739   8.5921
     8.6378   8.6770   8.6940   8.7197   8.7482   8.7841   8.8405   8.8443
     8.8861   8.9213   8.9929   9.0092   9.1283   9.1320   9.1452   9.1610
     9.2142   9.3168   9.3277   9.3439   9.4258   9.4327   9.5118   9.5298
     9.5439   9.6026   9.6960   9.7074   9.8445   9.8836   9.9202  10.0610
    10.0680  10.1061  10.1886

          k = 0.0000-0.2165 0.0000 (256176 PWs)   bands (ev):

   -17.1902 -16.2596 -15.8503 -15.6025 -15.4520 -14.9975 -14.5543 -14.3117
   -14.2963 -14.2048 -14.1764 -13.7810 -13.7140 -13.6637 -13.6337 -12.5557
   -12.3821 -12.3211 -12.2574 -12.0830 -12.0374 -10.5990 -10.5009 -10.4585
   -10.3451  -9.3866  -9.3837  -9.2405  -9.0519  -8.9419  -8.9011  -8.3572
    -8.2350  -8.1588  -8.1022  -7.4166  -7.2825  -6.9655  -6.9197  -6.8509
    -6.8410  -6.7993  -6.7842  -6.1388  -6.0333  -5.8783  -5.8631  -5.4630
    -5.3282  -5.1811  -5.1203  -5.0740  -4.9528  -4.8603  -4.8425  -4.8255
    -4.6978  -4.6885  -4.5803  -4.5574  -4.4451  -4.0951  -4.0470  -3.7564
    -3.6945  -3.6173  -3.5662  -3.3827  -3.3104  -3.2968  -3.2961  -3.1866
    -3.1760  -3.1488  -3.1204  -3.0618  -3.0481  -3.0373  -3.0219  -2.9868
    -2.8931  -2.8616  -2.8378  -2.8321  -2.7879  -2.7409  -2.7340  -2.6981
    -2.6611  -2.6160  -2.5757  -2.5751  -2.5726  -2.5645  -2.5437  -2.5296
    -2.4839  -2.4668  -2.3370  -2.3066  -2.2813  -2.2269  -2.2250  -2.2056
    -2.2014  -2.1331  -2.1204  -2.0949  -2.0577  -2.0355  -1.9968  -1.9885
    -1.9767  -1.9479  -1.9470  -1.8923  -1.8492  -1.8075  -1.7888  -1.7592
    -1.7545  -1.7493  -1.7403  -1.7368  -1.7313  -1.7141  -1.7091  -1.6848
    -1.6760  -1.6508  -1.6366  -1.6301  -1.5937  -1.5547  -1.5422  -1.4992
    -1.4531  -1.4494  -1.4439  -1.4278  -1.3582  -1.3523  -1.3259  -1.3176
    -1.3161  -1.3070  -1.3010  -1.2925  -1.2722  -1.2653  -1.2618  -1.2604
    -1.2589  -1.2565  -1.2347  -1.2243  -1.2202  -1.2147  -1.2123  -1.1964
    -1.1864  -1.1565  -1.1515  -1.1407  -1.1285  -1.0871  -1.0847  -1.0759
    -1.0508  -1.0451  -1.0411  -1.0374  -1.0356  -1.0236  -0.9961  -0.9908
    -0.9729  -0.9717  -0.9710  -0.9599  -0.9508  -0.9323  -0.9183  -0.9137
    -0.9111  -0.9083  -0.8990  -0.8885  -0.8878  -0.8750  -0.8680  -0.8314
    -0.8251  -0.8174  -0.8115  -0.8060  -0.8005  -0.8002  -0.7944  -0.7792
    -0.7739  -0.7667  -0.7493  -0.7469  -0.7389  -0.7363  -0.7224  -0.6594
    -0.6522  -0.6516  -0.6411  -0.6312  -0.6253  -0.6147  -0.5989  -0.5969
    -0.5966  -0.5952  -0.5915  -0.5888  -0.5709  -0.5652  -0.5604  -0.5460
    -0.5427  -0.5352  -0.5289  -0.5201  -0.5175  -0.5151  -0.5106  -0.4940
    -0.4930  -0.4828  -0.4712  -0.4709  -0.4663  -0.4442  -0.4398  -0.4353
    -0.4327  -0.4294  -0.4258  -0.4188  -0.4065  -0.3957  -0.3891  -0.3606
    -0.3570  -0.3533  -0.3523  -0.3401  -0.3210  -0.3153  -0.3038  -0.2891
    -0.2867  -0.2826  -0.2792  -0.2782  -0.2749  -0.2703  -0.2657  -0.2581
    -0.2543  -0.2530  -0.2497  -0.2455  -0.2449  -0.2388  -0.2352  -0.2299
    -0.2239  -0.2213  -0.2169  -0.2129  -0.2019  -0.1924  -0.1896  -0.1880
    -0.1852  -0.1593  -0.1447  -0.1365  -0.1341  -0.1290  -0.1248  -0.1242
    -0.1181  -0.1173  -0.1074  -0.1038  -0.0975  -0.0943  -0.0860  -0.0839
    -0.0737  -0.0701  -0.0687  -0.0674  -0.0640  -0.0617  -0.0576  -0.0566
    -0.0535  -0.0297  -0.0245  -0.0173  -0.0045   0.0013   0.0067   0.0084
     0.0160   0.0189   0.0231   0.0254   0.0353   0.0417   0.0434   0.0522
     0.0582   0.0626   0.0649   0.0746   0.0807   0.0869   0.0906   0.0937
     0.1008   0.1069   0.1092   0.1162   0.1264   0.1306   0.1407   0.1430
     0.1451   0.1490   0.1534   0.1721   0.1905   0.1993   0.2060   0.2099
     0.2110   0.2188   0.2234   0.2395   0.2466   0.2651   0.2726   0.2820
     0.2949   0.3056   0.3185   0.3212   0.3350   0.3492   0.3785   0.3946
     0.3982   0.4059   0.4086   0.4139   0.4211   0.4250   0.4323   0.4432
     0.4496   0.4510   0.4589   0.4639   0.4677   0.4715   0.4720   0.4760
     0.4836   0.4849   0.4870   0.4895   0.4983   0.5040   0.5070   0.5207
     0.5271   0.5316   0.5383   0.5395   0.5426   0.5482   0.5519   0.5551
     0.5571   0.5571   0.5609   0.5675   0.5754   0.5759   0.5778   0.5809
     0.5862   0.5886   0.5908   0.5971   0.5998   0.6009   0.6051   0.6065
     0.6145   0.6169   0.6234   0.6244   0.6289   0.6559   0.6568   0.6674
     0.6753   0.6764   0.6806   0.6835   0.6856   0.6924   0.6928   0.6988
     0.6993   0.7017   0.7039   0.7049   0.7092   0.7324   0.7360   0.7389
     0.7421   0.7445   0.7486   0.7575   0.7619   0.7668   0.7687   0.7784
     0.7891   0.7966   0.7971   0.7984   0.8086   0.8123   0.8155   0.8535
     0.8571   0.8586   0.8734   0.8937   0.9001   0.9046   0.9076   0.9096
     0.9109   0.9173   0.9201   0.9264   0.9280   0.9324   0.9344   0.9409
     0.9440   0.9529   0.9586   0.9602   0.9609   0.9697   0.9706   0.9745
     0.9777   0.9831   0.9864   0.9873   0.9876   0.9880   0.9934   0.9951
     0.9994   1.0038   1.0071   1.0084   1.0104   1.0120   1.0141   1.0222
     1.0281   1.0310   1.0338   1.0358   1.0404   1.0449   1.0466   1.0474
     1.0498   1.0547   1.0581   1.0611   1.0754   1.0909   1.0962   1.1022
     1.1092   1.1147   1.1201   1.1392   1.1477   1.1503   1.1546   1.1587
     1.1619   1.1690   1.1788   1.1844   1.1869   1.1889   1.1976   1.1990
     1.2066   1.2087   1.2097   1.2134   1.2156   1.2183   1.2209   1.2225
     1.2236   1.2248   1.2337   1.2363   1.2380   1.2436   1.2449   1.2494
     1.2513   1.2529   1.2587   1.2699   1.2723   1.2824   1.2855   1.2898
     1.2911   1.2952   1.2975   1.3045   1.3074   1.3123   1.3140   1.3148
     1.3186   1.3231   1.3294   1.3329   1.3333   1.3351   1.3413   1.3464
     1.3496   1.3598   1.3602   1.3638   1.3759   1.3858   1.3893   1.3925
     1.3941   1.3965   1.4048   1.4057   1.4134   1.4148   1.4152   1.4218
     1.4293   1.4332   1.4404   1.4427   1.4450   1.4565   1.4598   1.4600
     1.4668   1.4676   1.4705   1.4719   1.4738   1.4931   1.4968   1.5028
     1.5057   1.5083   1.5122   1.5129   1.5154   1.5265   1.5282   1.5373
     1.5433   1.5465   1.5485   1.5557   1.5595   1.5637   1.5908   1.5974
     1.6055   1.6264   1.6660   1.7064   1.7182   1.7261   1.7341   1.7434
     1.7557   1.7639   1.7765   1.7855   1.7991   1.8164   1.8223   1.8276
     1.8311   1.8727   1.8746   1.8833   1.9394   2.0137   2.0444   2.1152
     2.1464   2.2428   2.4366   2.4375   2.4526   2.5097   2.5212   2.5566
     2.5674   2.5935   2.6004   2.6120   2.7092   2.7237   2.7354   2.7849
     2.8030   2.8919   2.9254   2.9279   2.9786   3.0398   3.1882   3.1883
     3.2167   3.4437   3.4969   3.6201   3.6777   3.8267   3.8766   3.9528
     3.9752   4.0295   4.1233   4.1276   4.2041   4.2377   4.3260   4.3513
     4.4515   4.5076   4.5702   4.7130   4.7763   4.7940   4.7991   5.0520
     5.1045   5.1240   5.1423   5.2328   5.3520   5.3602   5.3749   5.3968
     5.4483   5.5647   5.6702   5.7053   5.7736   5.8085   5.8514   5.9767
     6.4018   6.4252   6.4668   6.4691   6.4899   6.6044   6.6110   6.6743
     6.6918   6.7681   6.8558   6.9418   7.0242   7.0407   7.0564   7.1063
     7.1200   7.1302   7.1539   7.1673   7.2440   7.2682   7.3015   7.3602
     7.4225   7.5133   7.5588   7.6207   7.6414   7.7077   7.7232   7.7553
     7.9574   8.0564   8.1904   8.2547   8.3549   8.3617   8.4398   8.4516
     8.4562   8.4737   8.4866   8.4913   8.5212   8.5704   8.6734   8.6806
     8.7318   8.7403   8.7622   8.7837   8.8693   8.9160   8.9483   8.9787
     9.0265   9.0720   9.1084   9.1535   9.2217   9.2407   9.2827   9.3093
     9.3363   9.3397   9.3728   9.4145   9.4427   9.4604   9.4863   9.4878
     9.5232   9.5710   9.5919   9.6055   9.7617   9.7924   9.8235   9.8649
     9.9120   9.9167   9.9378

          k = 0.2500 0.0000 0.0000 (256240 PWs)   bands (ev):

   -17.1388 -16.0871 -15.9119 -15.6344 -15.3923 -15.0997 -14.9481 -14.8744
   -14.8394 -14.0552 -13.8960 -13.6804 -13.1966 -13.1176 -13.0370 -12.9926
   -12.2968 -12.1775 -12.0904 -12.0255 -11.1798 -11.0723 -10.7367 -10.6306
   -10.3111 -10.1656  -9.8941  -9.8374  -9.4490  -9.2043  -9.1066  -8.6390
    -7.9377  -7.7466  -7.6686  -7.5086  -7.4867  -7.3924  -7.0324  -6.9097
    -6.2582  -6.1751  -5.9930  -5.9128  -5.8658  -5.8260  -5.4010  -5.3176
    -5.2886  -5.2448  -5.0231  -4.8663  -4.7355  -4.5778  -4.4911  -4.4653
    -4.4619  -4.4144  -4.3773  -4.3189  -4.1641  -4.1302  -4.0112  -3.9906
    -3.9749  -3.8642  -3.8534  -3.8480  -3.7533  -3.7358  -3.5786  -3.5407
    -3.5183  -3.4804  -3.4650  -3.3797  -3.3720  -3.3462  -3.2648  -3.1933
    -3.1694  -3.1675  -2.9955  -2.9460  -2.8750  -2.8442  -2.8290  -2.8018
    -2.7361  -2.7177  -2.6247  -2.5994  -2.5462  -2.5381  -2.4569  -2.3897
    -2.3340  -2.2684  -2.2629  -2.1492  -2.0982  -2.0897  -2.0783  -2.0694
    -2.0180  -1.9619  -1.9511  -1.9473  -1.8992  -1.8559  -1.8242  -1.8039
    -1.7933  -1.7847  -1.7833  -1.7734  -1.7657  -1.7426  -1.7293  -1.7124
    -1.7013  -1.6895  -1.6878  -1.6714  -1.6532  -1.6337  -1.6168  -1.5952
    -1.5754  -1.5724  -1.5703  -1.5649  -1.5609  -1.5474  -1.5052  -1.5002
    -1.4946  -1.4811  -1.4786  -1.3828  -1.3566  -1.3279  -1.3227  -1.3037
    -1.2724  -1.2556  -1.2470  -1.2381  -1.2296  -1.2285  -1.2193  -1.2142
    -1.1995  -1.1805  -1.1792  -1.1724  -1.1675  -1.1651  -1.1580  -1.1492
    -1.1329  -1.1281  -1.1229  -1.1186  -1.1060  -1.1008  -1.0941  -1.0874
    -1.0737  -1.0648  -1.0462  -1.0434  -1.0419  -1.0299  -1.0253  -1.0192
    -1.0085  -1.0024  -0.9987  -0.9919  -0.9826  -0.9753  -0.9722  -0.9689
    -0.9680  -0.9667  -0.9648  -0.9609  -0.9536  -0.9498  -0.9314  -0.9233
    -0.9203  -0.9043  -0.8976  -0.8918  -0.8744  -0.8602  -0.8485  -0.8290
    -0.8224  -0.8059  -0.8021  -0.7893  -0.7843  -0.7700  -0.7665  -0.7608
    -0.7493  -0.7468  -0.7407  -0.7320  -0.7295  -0.7236  -0.7081  -0.6431
    -0.6005  -0.5938  -0.5904  -0.5693  -0.5638  -0.5559  -0.5528  -0.5459
    -0.5377  -0.5331  -0.5243  -0.5207  -0.5178  -0.5122  -0.5091  -0.4997
    -0.4866  -0.4823  -0.4792  -0.4754  -0.4666  -0.4651  -0.4591  -0.4500
    -0.4493  -0.4407  -0.4105  -0.3947  -0.3936  -0.3881  -0.3811  -0.3787
    -0.3759  -0.3743  -0.3694  -0.3621  -0.3486  -0.3343  -0.3222  -0.3132
    -0.3109  -0.3011  -0.2934  -0.2884  -0.2850  -0.2814  -0.2793  -0.2736
    -0.2677  -0.2629  -0.2582  -0.2540  -0.2420  -0.2368  -0.2300  -0.2233
    -0.2121  -0.1975  -0.1940  -0.1911  -0.1852  -0.1806  -0.1751  -0.1741
    -0.1642  -0.1617  -0.1422  -0.1371  -0.1342  -0.1217  -0.1134  -0.1116
    -0.1087  -0.0997  -0.0954  -0.0746  -0.0689  -0.0584  -0.0562  -0.0458
    -0.0428  -0.0347  -0.0325  -0.0248  -0.0105  -0.0075  -0.0037   0.0033
     0.0045   0.0064   0.0107   0.0158   0.0188   0.0203   0.0273   0.0301
     0.0371   0.0417   0.0445   0.0479   0.0508   0.0561   0.0591   0.0734
     0.0771   0.0834   0.0906   0.1004   0.1042   0.1114   0.1180   0.1217
     0.1314   0.1329   0.1456   0.1543   0.1563   0.1643   0.1657   0.1715
     0.1794   0.1870   0.2023   0.2111   0.2368   0.2436   0.2607   0.2706
     0.2759   0.2780   0.2881   0.2907   0.2930   0.2949   0.2974   0.2990
     0.3005   0.3050   0.3072   0.3117   0.3172   0.3182   0.3236   0.3267
     0.3345   0.3377   0.3447   0.3469   0.3496   0.3557   0.3697   0.3783
     0.3858   0.3897   0.4054   0.4088   0.4182   0.4280   0.4302   0.4331
     0.4506   0.4533   0.4570   0.4600   0.4709   0.4745   0.4918   0.4958
     0.4988   0.5002   0.5021   0.5051   0.5118   0.5143   0.5173   0.5246
     0.5348   0.5389   0.5411   0.5474   0.5540   0.5604   0.5639   0.5687
     0.5715   0.5738   0.5866   0.5942   0.5965   0.6007   0.6084   0.6114
     0.6136   0.6163   0.6254   0.6319   0.6329   0.6384   0.6406   0.6458
     0.6558   0.6629   0.6739   0.6786   0.6801   0.6827   0.6844   0.6876
     0.6938   0.7001   0.7106   0.7121   0.7241   0.7419   0.7443   0.7532
     0.7560   0.7592   0.7625   0.7664   0.7721   0.7858   0.7885   0.7901
     0.7924   0.7969   0.8001   0.8055   0.8127   0.8180   0.8282   0.8337
     0.8407   0.8473   0.8537   0.8589   0.8640   0.8715   0.8814   0.8909
     0.8950   0.8961   0.9029   0.9054   0.9083   0.9106   0.9142   0.9157
     0.9192   0.9275   0.9324   0.9357   0.9407   0.9540   0.9615   0.9671
     0.9722   0.9803   0.9870   0.9904   0.9951   1.0009   1.0037   1.0081
     1.0113   1.0153   1.0197   1.0258   1.0299   1.0350   1.0360   1.0380
     1.0402   1.0424   1.0484   1.0503   1.0517   1.0547   1.0568   1.0664
     1.0683   1.0719   1.0763   1.0794   1.0849   1.0881   1.0892   1.0939
     1.0954   1.1015   1.1073   1.1160   1.1197   1.1213   1.1254   1.1320
     1.1397   1.1449   1.1500   1.1525   1.1559   1.1604   1.1651   1.1700
     1.1727   1.1768   1.1829   1.1930   1.2008   1.2035   1.2054   1.2079
     1.2226   1.2376   1.2467   1.2540   1.2556   1.2573   1.2596   1.2640
     1.2676   1.2698   1.2732   1.2795   1.2815   1.2866   1.2893   1.2907
     1.2959   1.2969   1.2996   1.3033   1.3089   1.3124   1.3199   1.3235
     1.3242   1.3256   1.3274   1.3313   1.3334   1.3383   1.3429   1.3483
     1.3529   1.3605   1.3642   1.3694   1.3703   1.3723   1.3774   1.3812
     1.3878   1.3901   1.3923   1.3989   1.4042   1.4108   1.4122   1.4228
     1.4261   1.4323   1.4345   1.4356   1.4385   1.4399   1.4473   1.4486
     1.4526   1.4540   1.4573   1.4595   1.4614   1.4639   1.4744   1.4781
     1.4794   1.4852   1.4873   1.4908   1.4917   1.5016   1.5033   1.5064
     1.5124   1.5169   1.5254   1.5269   1.5301   1.5370   1.5395   1.5569
     1.5700   1.5709   1.5753   1.5965   1.6332   1.6410   1.6432   1.6520
     1.6581   1.6728   1.6972   1.7271   1.7608   1.7765   1.7819   1.8001
     1.8176   1.8575   1.8998   1.9229   1.9509   2.0323   2.0446   2.0883
     2.1010   2.1320   2.2129   2.2839   2.3133   2.3462   2.4918   2.5671
     2.6441   2.7355   2.8359   2.9866   2.9978   3.0809   3.2036   3.2194
     3.2351   3.2370   3.3054   3.4042   3.5241   3.5292   3.5991   3.6144
     3.6354   3.6813   3.6896   3.7213   3.7420   3.7801   3.8451   3.8796
     3.9425   4.0157   4.0411   4.1277   4.2003   4.2476   4.3038   4.3484
     4.4098   4.4514   4.6106   4.7612   4.8320   4.8630   4.8902   5.1501
     5.2127   5.2341   5.2480   5.3026   5.3552   5.4106   5.4755   5.5268
     5.5794   5.6188   5.6301   5.6597   5.7002   5.7439   5.7854   5.8053
     5.8294   5.8390   5.9155   6.0097   6.0327   6.0619   6.1263   6.4419
     6.5019   6.6490   6.7136   6.7506   6.7606   6.7842   6.7938   6.8441
     6.9316   6.9393   7.0297   7.0682   7.1016   7.1046   7.2977   7.3083
     7.3240   7.4788   7.4997   7.5275   7.5432   7.5976   7.6871   7.7020
     7.7351   7.8243   7.8295   7.9580   8.0334   8.0581   8.0811   8.1057
     8.2123   8.2187   8.2402   8.2583   8.3151   8.3474   8.3671   8.4344
     8.4433   8.4980   8.6076   8.6171   8.7498   8.8707   8.9825   9.0095
     9.0119   9.0243   9.0432   9.1526   9.2023   9.2222   9.2574   9.2842
     9.3141   9.3691   9.3862   9.3956   9.4623   9.4748   9.5009   9.5304
     9.5816   9.6085   9.6935   9.7197   9.7808   9.8433   9.8531   9.8613
     9.8724   9.8874   9.9976

          k = 0.2500-0.2165 0.0000 (256316 PWs)   bands (ev):

   -17.1385 -16.1356 -15.8246 -15.5187 -15.4707 -15.3012 -15.1478 -14.6643
   -14.5039 -14.1896 -14.0593 -13.6313 -13.2241 -13.1960 -13.1050 -12.7180
   -12.6035 -12.0863 -11.9827 -11.4526 -11.3741 -11.2224 -11.0811 -10.8911
   -10.5804  -9.8095  -9.7138  -9.3387  -9.3065  -9.0647  -8.9937  -8.6248
    -8.5709  -8.4155  -8.3699  -7.2268  -6.9678  -6.7767  -6.6188  -6.5564
    -6.4450  -6.4091  -6.2650  -6.0324  -5.9810  -5.7003  -5.6874  -5.3723
    -5.2079  -5.0254  -4.9868  -4.8778  -4.7901  -4.6802  -4.6686  -4.5558
    -4.4800  -4.4143  -4.3445  -4.3380  -4.2916  -4.1423  -4.1150  -4.0868
    -3.9985  -3.9093  -3.7397  -3.7093  -3.6842  -3.5566  -3.5469  -3.4892
    -3.4718  -3.4594  -3.4289  -3.3286  -3.2697  -3.2536  -3.1489  -3.1215
    -3.0589  -3.0443  -2.9820  -2.9684  -2.9262  -2.9148  -2.8976  -2.8693
    -2.8373  -2.6367  -2.6300  -2.6178  -2.6078  -2.4951  -2.4611  -2.3299
    -2.3061  -2.2837  -2.2196  -2.1926  -2.1639  -2.1551  -2.1037  -2.0631
    -2.0494  -2.0054  -1.9942  -1.9555  -1.9373  -1.9318  -1.9097  -1.8540
    -1.8398  -1.8114  -1.8088  -1.8012  -1.7692  -1.7402  -1.7297  -1.7210
    -1.7050  -1.6997  -1.6937  -1.6821  -1.6756  -1.6685  -1.6675  -1.6653
    -1.6577  -1.6485  -1.6326  -1.5897  -1.5717  -1.5053  -1.4546  -1.4470
    -1.3864  -1.3592  -1.3340  -1.3191  -1.3144  -1.3055  -1.2747  -1.2701
    -1.2655  -1.2562  -1.2520  -1.2454  -1.2426  -1.2347  -1.2253  -1.2161
    -1.2159  -1.2047  -1.2011  -1.2003  -1.1951  -1.1936  -1.1828  -1.1718
    -1.1541  -1.1404  -1.1249  -1.1181  -1.1148  -1.1073  -1.1028  -1.0996
    -1.0940  -1.0861  -1.0729  -1.0486  -1.0415  -1.0304  -1.0280  -1.0228
    -1.0171  -1.0048  -1.0029  -0.9910  -0.9888  -0.9781  -0.9644  -0.9549
    -0.9522  -0.9449  -0.9396  -0.9303  -0.9168  -0.9122  -0.9084  -0.9035
    -0.8815  -0.8704  -0.8667  -0.8592  -0.8575  -0.8546  -0.8485  -0.8230
    -0.8016  -0.7907  -0.7722  -0.7644  -0.7610  -0.7572  -0.7540  -0.7252
    -0.7145  -0.7119  -0.7047  -0.7008  -0.6919  -0.6883  -0.6772  -0.6559
    -0.6442  -0.6360  -0.6341  -0.6088  -0.5994  -0.5698  -0.5637  -0.5592
    -0.5537  -0.5491  -0.5414  -0.5243  -0.5193  -0.5161  -0.5048  -0.5000
    -0.4884  -0.4865  -0.4745  -0.4698  -0.4617  -0.4586  -0.4502  -0.4442
    -0.4399  -0.4357  -0.4150  -0.4115  -0.3992  -0.3942  -0.3885  -0.3844
    -0.3763  -0.3671  -0.3601  -0.3575  -0.3545  -0.3522  -0.3500  -0.3475
    -0.3438  -0.3368  -0.3337  -0.3288  -0.3178  -0.3140  -0.3054  -0.3007
    -0.2773  -0.2745  -0.2616  -0.2517  -0.2436  -0.2328  -0.2319  -0.2219
    -0.2182  -0.2148  -0.2021  -0.1980  -0.1927  -0.1834  -0.1670  -0.1436
    -0.1383  -0.1302  -0.1117  -0.1058  -0.1006  -0.0946  -0.0909  -0.0867
    -0.0839  -0.0786  -0.0726  -0.0647  -0.0539  -0.0532  -0.0498  -0.0420
    -0.0380  -0.0346  -0.0309  -0.0272  -0.0215  -0.0189  -0.0127  -0.0059
     0.0015   0.0054   0.0078   0.0109   0.0137   0.0157   0.0195   0.0243
     0.0274   0.0294   0.0402   0.0425   0.0467   0.0499   0.0660   0.0705
     0.0777   0.0796   0.0878   0.1022   0.1054   0.1108   0.1330   0.1392
     0.1425   0.1468   0.1494   0.1517   0.1531   0.1631   0.1662   0.1687
     0.1734   0.1845   0.1877   0.1911   0.1959   0.2108   0.2252   0.2479
     0.2552   0.2778   0.2882   0.2911   0.2952   0.3009   0.3025   0.3034
     0.3067   0.3087   0.3180   0.3214   0.3253   0.3348   0.3370   0.3395
     0.3401   0.3449   0.3468   0.3518   0.3565   0.3707   0.3775   0.3920
     0.3997   0.4062   0.4133   0.4186   0.4265   0.4318   0.4389   0.4488
     0.4564   0.4644   0.4659   0.4724   0.4747   0.4825   0.4847   0.4883
     0.4894   0.4982   0.4996   0.5032   0.5059   0.5157   0.5220   0.5322
     0.5389   0.5476   0.5495   0.5562   0.5747   0.5797   0.5831   0.5864
     0.5899   0.5997   0.6091   0.6116   0.6165   0.6205   0.6230   0.6301
     0.6340   0.6358   0.6389   0.6447   0.6505   0.6553   0.6606   0.6668
     0.6740   0.6763   0.6794   0.6826   0.6866   0.6900   0.6909   0.6950
     0.6975   0.7016   0.7063   0.7071   0.7131   0.7152   0.7174   0.7216
     0.7261   0.7283   0.7325   0.7351   0.7386   0.7399   0.7636   0.7729
     0.7737   0.7859   0.7871   0.8119   0.8155   0.8202   0.8275   0.8348
     0.8380   0.8422   0.8455   0.8501   0.8590   0.8622   0.8669   0.8717
     0.8733   0.8748   0.8767   0.8831   0.8859   0.8912   0.8949   0.8995
     0.9040   0.9108   0.9186   0.9261   0.9308   0.9400   0.9419   0.9476
     0.9530   0.9581   0.9627   0.9713   0.9772   0.9806   0.9832   0.9842
     0.9936   0.9980   1.0085   1.0130   1.0183   1.0225   1.0374   1.0376
     1.0465   1.0514   1.0584   1.0728   1.0791   1.0813   1.0853   1.0923
     1.0953   1.1011   1.1046   1.1062   1.1071   1.1104   1.1114   1.1123
     1.1168   1.1214   1.1238   1.1319   1.1377   1.1407   1.1445   1.1535
     1.1592   1.1712   1.1773   1.1802   1.1842   1.1863   1.1895   1.1934
     1.1986   1.2005   1.2024   1.2072   1.2080   1.2097   1.2135   1.2168
     1.2192   1.2228   1.2240   1.2268   1.2287   1.2324   1.2350   1.2370
     1.2487   1.2516   1.2594   1.2611   1.2728   1.2746   1.2838   1.2872
     1.2900   1.2942   1.2986   1.3002   1.3104   1.3123   1.3169   1.3226
     1.3282   1.3297   1.3326   1.3411   1.3428   1.3466   1.3526   1.3544
     1.3589   1.3622   1.3645   1.3669   1.3688   1.3771   1.3820   1.3854
     1.3898   1.3952   1.3979   1.3997   1.4030   1.4071   1.4090   1.4121
     1.4147   1.4179   1.4212   1.4245   1.4293   1.4341   1.4401   1.4464
     1.4499   1.4510   1.4519   1.4546   1.4568   1.4586   1.4590   1.4632
     1.4661   1.4693   1.4737   1.4972   1.4978   1.5065   1.5086   1.5117
     1.5155   1.5214   1.5263   1.5385   1.5400   1.5491   1.5609   1.5617
     1.5733   1.5757   1.5866   1.5892   1.6074   1.6177   1.6344   1.6544
     1.6676   1.7093   1.7343   1.7465   1.7667   1.7721   1.7801   1.7876
     1.7987   1.8065   1.8323   1.8637   1.9374   1.9560   2.0486   2.0856
     2.1462   2.1520   2.2123   2.3053   2.3962   2.4763   2.5972   2.6212
     2.7932   2.7946   2.8039   2.8079   2.8367   2.8728   2.9671   2.9738
     3.0559   3.1100   3.1507   3.3251   3.5511   3.6234   3.6459   3.7010
     3.7197   3.7850   3.8411   3.8575   3.8992   3.9493   3.9729   4.0330
     4.0959   4.1381   4.1766   4.1848   4.2928   4.3679   4.3917   4.4662
     4.4888   4.6126   4.6172   4.6545   4.7006   4.7484   4.7810   4.9372
     4.9478   5.0393   5.0605   5.1134   5.1977   5.2316   5.3110   5.4066
     5.4454   5.4643   5.4705   5.4958   5.5953   5.7621   5.7839   5.8532
     5.8740   5.9136   5.9666   5.9884   6.0257   6.2538   6.5878   6.6286
     6.6788   6.7173   6.7942   6.8088   6.8621   6.9057   6.9386   7.0623
     7.0700   7.1112   7.1234   7.1570   7.1749   7.2257   7.2453   7.2645
     7.3084   7.3312   7.3977   7.4362   7.4463   7.4574   7.6176   7.6524
     7.6756   7.7638   7.8139   7.8820   7.8936   7.9601   8.1272   8.1737
     8.2118   8.2310   8.2679   8.3424   8.3647   8.4326   8.6198   8.6236
     8.6285   8.6649   8.6869   8.7378   8.7529   8.8094   8.8403   8.8440
     8.9381   8.9799   8.9988   9.0518   9.1022   9.1278   9.1618   9.1975
     9.2025   9.2191   9.2509   9.2572   9.2850   9.3231   9.3644   9.3796
     9.4597   9.4953   9.5031   9.5117   9.6404   9.6569   9.6836   9.7773
     9.9841   9.9913  10.0154

          k =-0.5000 0.0000 0.0000 (256496 PWs)   bands (ev):

   -17.0769 -15.9559 -15.7029 -15.5927 -15.5706 -15.5116 -15.3756 -14.7584
   -14.5578 -14.4515 -14.4274 -13.1486 -12.8478 -12.7028 -12.6514 -12.3710
   -12.3451 -11.8692 -11.8449 -11.7598 -11.7472 -11.1962 -11.1586 -10.9341
   -10.7001 -10.2722 -10.2364 -10.0183  -9.7030  -9.0952  -9.0871  -8.9289
    -8.8942  -7.7675  -7.5945  -7.5470  -7.3537  -7.3131  -7.2929  -6.2317
    -6.1650  -5.7780  -5.3144  -5.2883  -5.2605  -5.0947  -4.9254  -4.8534
    -4.8222  -4.8152  -4.8046  -4.7784  -4.7635  -4.7403  -4.7115  -4.6902
    -4.6430  -4.6162  -4.4819  -4.4740  -4.4278  -4.3416  -4.3371  -4.2834
    -4.0388  -4.0327  -3.9911  -3.9657  -3.8705  -3.6601  -3.6372  -3.5743
    -3.5687  -3.5452  -3.5383  -3.4662  -3.4410  -3.4107  -3.4006  -3.3740
    -3.3628  -3.3276  -3.3156  -3.0559  -2.9327  -2.8891  -2.8587  -2.8278
    -2.8054  -2.7557  -2.7455  -2.6769  -2.5992  -2.5518  -2.5044  -2.4644
    -2.4359  -2.4251  -2.4012  -2.3000  -2.2257  -2.1832  -2.1310  -1.9171
    -1.8793  -1.8756  -1.8736  -1.8692  -1.8625  -1.8174  -1.8094  -1.7719
    -1.7500  -1.7284  -1.7171  -1.6860  -1.6464  -1.6402  -1.6304  -1.6294
    -1.6044  -1.5979  -1.5933  -1.5913  -1.5415  -1.5000  -1.4784  -1.4770
    -1.4481  -1.4410  -1.4327  -1.4245  -1.4218  -1.4158  -1.4082  -1.4011
    -1.3957  -1.3827  -1.3540  -1.3490  -1.3484  -1.3375  -1.3338  -1.3310
    -1.3285  -1.3116  -1.3031  -1.2850  -1.2844  -1.2810  -1.2796  -1.2676
    -1.2631  -1.2597  -1.2540  -1.2032  -1.1953  -1.1937  -1.1855  -1.1751
    -1.1701  -1.1654  -1.1549  -1.1528  -1.1450  -1.1432  -1.1361  -1.1101
    -1.1061  -1.1042  -1.0983  -1.0820  -1.0788  -1.0751  -1.0551  -1.0495
    -1.0404  -1.0312  -1.0225  -1.0023  -0.9923  -0.9810  -0.9750  -0.9720
    -0.9699  -0.9665  -0.9621  -0.9456  -0.9434  -0.9394  -0.9350  -0.9273
    -0.9217  -0.9159  -0.9150  -0.9101  -0.8965  -0.8846  -0.8784  -0.8622
    -0.8356  -0.8316  -0.8170  -0.8000  -0.7862  -0.7670  -0.7261  -0.7109
    -0.7093  -0.7029  -0.6972  -0.6759  -0.6731  -0.6706  -0.6623  -0.6611
    -0.6463  -0.6400  -0.6313  -0.6279  -0.6222  -0.6145  -0.6109  -0.6102
    -0.6063  -0.5961  -0.5887  -0.5827  -0.5749  -0.5522  -0.5176  -0.5014
    -0.4973  -0.4953  -0.4851  -0.4771  -0.4634  -0.4486  -0.4317  -0.4300
    -0.4095  -0.4065  -0.3983  -0.3934  -0.3906  -0.3889  -0.3750  -0.3640
    -0.3566  -0.3550  -0.3540  -0.3516  -0.3484  -0.3307  -0.3253  -0.3238
    -0.3056  -0.2968  -0.2849  -0.2840  -0.2826  -0.2796  -0.2770  -0.2741
    -0.2434  -0.2413  -0.2399  -0.2372  -0.2347  -0.2303  -0.2271  -0.2017
    -0.1951  -0.1890  -0.1871  -0.1442  -0.1352  -0.1265  -0.1226  -0.1195
    -0.1169  -0.1157  -0.1049  -0.1003  -0.0890  -0.0823  -0.0778  -0.0594
    -0.0472  -0.0416  -0.0335  -0.0269  -0.0123  -0.0111  -0.0092  -0.0075
    -0.0056  -0.0016  -0.0008  -0.0003   0.0048   0.0078   0.0134   0.0191
     0.0446   0.0519   0.0657   0.0721   0.0741   0.0774   0.0790   0.0832
     0.0834   0.0860   0.0884   0.0947   0.0968   0.0996   0.1042   0.1105
     0.1173   0.1227   0.1230   0.1247   0.1264   0.1332   0.1352   0.1365
     0.1382   0.1392   0.1405   0.1409   0.1509   0.1533   0.1565   0.1654
     0.1676   0.1696   0.1720   0.1723   0.1773   0.1885   0.1943   0.1999
     0.2240   0.2559   0.2683   0.2774   0.2893   0.3060   0.3125   0.3244
     0.3303   0.3318   0.3328   0.3431   0.3486   0.3499   0.3553   0.3563
     0.3596   0.3606   0.3627   0.3651   0.3657   0.3688   0.3711   0.3734
     0.3746   0.3816   0.3842   0.3859   0.3904   0.3932   0.3958   0.3997
     0.4067   0.4076   0.4156   0.4270   0.4319   0.4525   0.4568   0.4661
     0.4758   0.5001   0.5049   0.5129   0.5144   0.5208   0.5282   0.5340
     0.5366   0.5385   0.5419   0.5443   0.5462   0.5465   0.5509   0.5519
     0.5546   0.5574   0.5581   0.5609   0.5653   0.5694   0.5743   0.5836
     0.5901   0.5920   0.5963   0.6009   0.6148   0.6169   0.6234   0.6265
     0.6373   0.6380   0.6416   0.6450   0.6471   0.6501   0.6533   0.6591
     0.6610   0.6646   0.6696   0.6713   0.6735   0.6825   0.6860   0.6886
     0.6962   0.7064   0.7186   0.7211   0.7219   0.7274   0.7320   0.7387
     0.7410   0.7442   0.7692   0.7743   0.7820   0.7850   0.7973   0.8016
     0.8148   0.8390   0.8400   0.8479   0.8485   0.8552   0.8571   0.8603
     0.8604   0.8614   0.8618   0.8689   0.8727   0.8742   0.8765   0.8818
     0.8876   0.8915   0.8967   0.9007   0.9065   0.9089   0.9113   0.9167
     0.9228   0.9296   0.9303   0.9466   0.9530   0.9538   0.9613   0.9647
     0.9738   0.9924   1.0013   1.0227   1.0269   1.0275   1.0320   1.0340
     1.0415   1.0499   1.0569   1.0633   1.0708   1.0765   1.0799   1.0842
     1.0948   1.0971   1.1026   1.1058   1.1116   1.1161   1.1256   1.1299
     1.1322   1.1369   1.1394   1.1399   1.1432   1.1448   1.1490   1.1503
     1.1531   1.1563   1.1571   1.1578   1.1601   1.1744   1.1925   1.1950
     1.1954   1.1961   1.1995   1.2044   1.2113   1.2172   1.2196   1.2270
     1.2343   1.2378   1.2450   1.2467   1.2504   1.2559   1.2574   1.2598
     1.2618   1.2622   1.2658   1.2688   1.2697   1.2751   1.2774   1.2834
     1.2891   1.2989   1.3048   1.3186   1.3226   1.3251   1.3281   1.3298
     1.3325   1.3352   1.3365   1.3378   1.3405   1.3410   1.3428   1.3436
     1.3460   1.3490   1.3507   1.3529   1.3536   1.3545   1.3558   1.3590
     1.3630   1.3651   1.3671   1.3734   1.3818   1.3829   1.3898   1.3921
     1.3982   1.4030   1.4050   1.4104   1.4242   1.4264   1.4283   1.4331
     1.4374   1.4408   1.4451   1.4485   1.4495   1.4549   1.4574   1.4603
     1.4626   1.4693   1.4706   1.4796   1.4814   1.4824   1.4858   1.4876
     1.4905   1.4916   1.4926   1.4988   1.5107   1.5207   1.5292   1.5305
     1.5320   1.5344   1.5346   1.5358   1.5470   1.5498   1.5638   1.5901
     1.6005   1.6081   1.6116   1.6258   1.6295   1.6385   1.6453   1.8130
     1.8312   1.9639   2.0435   2.0439   2.1603   2.2232   2.2571   2.2695
     2.2967   2.3004   2.3028   2.3743   2.3890   2.4927   2.6396   2.6464
     2.6833   2.7467   2.8387   2.8426   3.0035   3.0765   3.1822   3.2028
     3.2401   3.2613   3.5085   3.5809   3.7658   3.7776   3.8005   3.8427
     3.8914   3.9278   3.9625   4.0434   4.0682   4.0752   4.1577   4.1743
     4.2463   4.2948   4.4348   4.4463   4.5053   4.5799   4.7621   4.7801
     4.8063   4.8278   4.8428   4.8566   4.8855   4.9247   4.9552   5.0281
     5.0419   5.0456   5.0536   5.0653   5.0719   5.0898   5.1303   5.1422
     5.1522   5.2097   5.2731   5.4020   5.5025   5.5272   5.6399   5.7330
     5.7493   5.7838   5.8148   5.8562   5.9841   6.0220   6.0335   6.0563
     6.0745   6.0868   6.1408   6.2601   6.4296   6.4445   6.4568   6.4615
     6.4886   6.5091   6.5638   6.8604   7.1099   7.1236   7.1503   7.2097
     7.2306   7.4052   7.6023   7.6135   7.6204   7.6256   7.6284   7.6895
     7.7079   7.7761   7.8176   7.8455   7.8991   7.9194   7.9689   8.0049
     8.0283   8.0864   8.1106   8.1287   8.1618   8.1853   8.2325   8.2915
     8.6130   8.6463   8.7088   8.7231   8.7332   8.7425   8.8341   8.8784
     8.9045   8.9150   9.0064   9.0122   9.0260   9.0850   9.1074   9.1581
     9.2059   9.2713   9.3840   9.4089   9.4338   9.4619   9.5181   9.5209
     9.5219   9.5256   9.5404   9.5515   9.5738   9.6395   9.6899   9.7791
     9.8582   9.8736  10.0280

          k =-0.5000-0.2165 0.0000 (256328 PWs)   bands (ev):

   -17.0767 -15.9223 -15.7753 -15.7547 -15.4290 -15.3385 -15.1548 -15.0768
   -15.0581 -14.0021 -13.7822 -13.6497 -13.6195 -12.5950 -12.3658 -11.9571
   -11.9536 -11.8571 -11.7313 -11.6083 -11.5514 -11.4835 -11.4813 -11.3748
   -11.3557  -9.9692  -9.9674  -9.7250  -9.6806  -9.1719  -8.8589  -8.7436
    -8.7040  -8.2106  -8.1671  -7.9831  -7.9630  -6.4819  -6.2684  -6.0730
    -5.8982  -5.7813  -5.5679  -5.3227  -5.2592  -5.2549  -5.1979  -5.1770
    -5.1728  -5.1527  -5.1482  -4.9739  -4.9651  -4.7975  -4.4609  -4.3484
    -4.3206  -4.3150  -4.2969  -4.2164  -4.2087  -4.2027  -4.1929  -4.1816
    -4.1611  -4.0529  -4.0341  -3.9182  -3.8429  -3.8387  -3.8186  -3.7129
    -3.6906  -3.6406  -3.6308  -3.5819  -3.5646  -3.5551  -3.5412  -3.4431
    -3.4291  -3.1674  -3.0829  -3.0526  -3.0383  -2.8177  -2.7333  -2.5873
    -2.5764  -2.5728  -2.5679  -2.5553  -2.5285  -2.5125  -2.4863  -2.4724
    -2.3581  -2.3548  -2.2989  -2.1289  -2.1141  -2.1032  -2.0855  -2.0671
    -2.0620  -2.0615  -2.0172  -2.0137  -1.9759  -1.9513  -1.9394  -1.8369
    -1.8212  -1.8029  -1.7961  -1.7902  -1.7283  -1.7109  -1.6348  -1.6050
    -1.5285  -1.5014  -1.4984  -1.4864  -1.4850  -1.4843  -1.4802  -1.4448
    -1.4392  -1.4271  -1.4263  -1.4246  -1.4216  -1.4209  -1.4180  -1.3862
    -1.3841  -1.3809  -1.3773  -1.3724  -1.3713  -1.3706  -1.3663  -1.3550
    -1.3541  -1.3518  -1.3487  -1.3013  -1.2999  -1.2961  -1.2900  -1.2683
    -1.2308  -1.2260  -1.2107  -1.2046  -1.1919  -1.1860  -1.1806  -1.1775
    -1.1748  -1.1599  -1.1411  -1.1382  -1.1320  -1.1110  -1.1100  -1.1090
    -1.1079  -1.1050  -1.1019  -1.0959  -1.0873  -1.0840  -1.0766  -1.0557
    -1.0486  -1.0457  -1.0441  -1.0384  -1.0371  -1.0330  -1.0304  -1.0291
    -1.0275  -1.0259  -1.0225  -1.0019  -0.9904  -0.9843  -0.9746  -0.9401
    -0.8812  -0.8725  -0.8649  -0.8535  -0.8466  -0.8459  -0.8444  -0.7875
    -0.7799  -0.7766  -0.7619  -0.7596  -0.7549  -0.7538  -0.7499  -0.7448
    -0.7415  -0.7355  -0.7238  -0.7001  -0.6974  -0.6916  -0.6877  -0.6872
    -0.6801  -0.6757  -0.6669  -0.6611  -0.6553  -0.6465  -0.6376  -0.6091
    -0.6063  -0.5688  -0.5608  -0.5556  -0.5530  -0.5480  -0.5400  -0.5191
    -0.4990  -0.4916  -0.4751  -0.4494  -0.4412  -0.4389  -0.4360  -0.4301
    -0.4235  -0.4202  -0.4147  -0.4094  -0.4079  -0.3910  -0.3872  -0.3835
    -0.3820  -0.3722  -0.3702  -0.3665  -0.3543  -0.3414  -0.3261  -0.2779
    -0.2726  -0.2678  -0.2628  -0.2607  -0.2514  -0.2453  -0.2443  -0.2429
    -0.2335  -0.2312  -0.2232  -0.2195  -0.1731  -0.1615  -0.1594  -0.1524
    -0.1464  -0.1442  -0.1402  -0.1373  -0.1344  -0.1327  -0.1254  -0.1215
    -0.1022  -0.0987  -0.0951  -0.0940  -0.0886  -0.0885  -0.0850  -0.0817
    -0.0776  -0.0750  -0.0723  -0.0707  -0.0437  -0.0309  -0.0254  -0.0152
    -0.0090  -0.0076   0.0139   0.0183   0.0209   0.0249   0.0394   0.0654
     0.0713   0.0724   0.0781   0.0839   0.0872   0.0902   0.0936   0.0951
     0.0968   0.1014   0.1025   0.1044   0.1077   0.1095   0.1124   0.1160
     0.1167   0.1202   0.1232   0.1261   0.1274   0.1280   0.1289   0.1373
     0.1384   0.1430   0.1536   0.1572   0.1671   0.1676   0.1685   0.1697
     0.1700   0.1792   0.1835   0.1992   0.2061   0.2204   0.2237   0.2263
     0.2461   0.2489   0.2511   0.2602   0.2676   0.2862   0.3112   0.3235
     0.3242   0.3347   0.3412   0.3428   0.3441   0.3487   0.3537   0.3558
     0.3593   0.3631   0.3675   0.3697   0.3702   0.3739   0.3750   0.3777
     0.3797   0.3811   0.3837   0.3882   0.3904   0.3960   0.3999   0.4070
     0.4111   0.4202   0.4231   0.4338   0.4401   0.4476   0.4570   0.4638
     0.4833   0.4879   0.4895   0.4910   0.4936   0.5004   0.5028   0.5089
     0.5131   0.5226   0.5238   0.5279   0.5289   0.5347   0.5389   0.5465
     0.5524   0.5619   0.5657   0.5718   0.5771   0.5783   0.5816   0.5855
     0.5888   0.5902   0.5924   0.5945   0.5967   0.6027   0.6038   0.6056
     0.6061   0.6093   0.6160   0.6248   0.6277   0.6536   0.6587   0.6712
     0.6795   0.6870   0.6930   0.6956   0.6971   0.7008   0.7040   0.7077
     0.7085   0.7119   0.7197   0.7225   0.7261   0.7334   0.7355   0.7375
     0.7440   0.7449   0.7485   0.7499   0.7523   0.7571   0.7716   0.7807
     0.7898   0.7980   0.8034   0.8066   0.8145   0.8258   0.8303   0.8356
     0.8419   0.8464   0.8551   0.8652   0.8668   0.8701   0.8733   0.8852
     0.8885   0.8921   0.9206   0.9302   0.9325   0.9428   0.9480   0.9521
     0.9580   0.9814   0.9861   0.9988   1.0099   1.0153   1.0233   1.0242
     1.0317   1.0327   1.0356   1.0383   1.0421   1.0435   1.0510   1.0558
     1.0601   1.0622   1.0632   1.0640   1.0664   1.0688   1.0693   1.0709
     1.0748   1.0812   1.0853   1.0877   1.0913   1.0937   1.0961   1.0988
     1.1044   1.1089   1.1104   1.1143   1.1184   1.1240   1.1312   1.1387
     1.1422   1.1440   1.1446   1.1465   1.1506   1.1546   1.1555   1.1589
     1.1614   1.1681   1.1699   1.1966   1.1992   1.2072   1.2100   1.2124
     1.2145   1.2229   1.2270   1.2316   1.2323   1.2393   1.2475   1.2539
     1.2543   1.2599   1.2681   1.2686   1.2729   1.2767   1.2821   1.2863
     1.2912   1.2938   1.2959   1.2977   1.3018   1.3039   1.3073   1.3093
     1.3188   1.3411   1.3442   1.3473   1.3524   1.3587   1.3619   1.3682
     1.3709   1.3713   1.3731   1.3747   1.3775   1.3811   1.3841   1.3857
     1.3882   1.3905   1.3934   1.3939   1.3971   1.3987   1.4020   1.4042
     1.4053   1.4077   1.4095   1.4141   1.4160   1.4179   1.4202   1.4233
     1.4236   1.4254   1.4297   1.4328   1.4414   1.4433   1.4580   1.4605
     1.4662   1.4686   1.4700   1.4775   1.4837   1.4900   1.4925   1.4997
     1.5026   1.5128   1.5172   1.5185   1.5205   1.5514   1.5600   1.5652
     1.5658   1.5735   1.5904   1.5911   1.5949   1.6018   1.6079   1.6114
     1.6183   1.6204   1.6222   1.6241   1.6298   1.6328   1.6358   1.6424
     1.6816   1.7545   1.7886   1.8460   1.8465   1.8905   2.1342   2.3057
     2.3649   2.3704   2.3968   2.4666   2.5666   2.5759   2.5865   2.7061
     2.8006   2.8052   2.9236   3.0063   3.1063   3.1333   3.1663   3.3573
     3.4581   3.4652   3.5169   3.5308   3.6521   3.6593   3.7530   3.8163
     3.9291   3.9436   3.9690   4.0008   4.1110   4.2300   4.2449   4.2864
     4.3137   4.3605   4.3716   4.3773   4.4659   4.5524   4.5612   4.5681
     4.5921   4.6135   4.7077   4.7595   4.8427   4.8708   4.8984   4.9342
     4.9539   5.0594   5.0914   5.1196   5.1798   5.1870   5.2015   5.2545
     5.2765   5.2879   5.3151   5.3710   5.4260   5.4714   5.5548   5.5835
     5.6328   5.7008   5.7454   5.7536   5.7566   5.7667   5.7818   5.9030
     5.9173   5.9185   6.0310   6.5050   6.7565   6.7995   6.8172   6.8358
     7.1190   7.1388   7.1449   7.1528   7.1730   7.2289   7.2521   7.2863
     7.3079   7.3121   7.3328   7.3939   7.4158   7.4275   7.4461   7.5825
     7.6390   7.6446   7.7050   7.7570   7.8311   7.9272   7.9428   7.9763
     7.9949   8.0627   8.1416   8.2111   8.2280   8.2654   8.2804   8.3330
     8.3854   8.3904   8.5642   8.6445   8.8956   8.9080   8.9217   8.9404
     8.9411   8.9446   8.9550   8.9620   9.0034   9.0850   9.1223   9.1391
     9.1421   9.1437   9.1526   9.3086   9.3518   9.3574   9.3740   9.4238
     9.5381   9.5549   9.5800   9.5839   9.6089   9.6808   9.7312   9.8411
     9.9648   9.9909   9.9963

     the Fermi energy is     3.3438 ev

!    total energy              =  -12739.00689738 Ry
     Harris-Foulkes estimate   =  -12739.00689739 Ry
     estimated scf accuracy    <          2.7E-09 Ry

     The total energy is the sum of the following terms:

     one-electron contribution = -109970.27059797 Ry
     hartree contribution      =   56350.64698743 Ry
     xc contribution           =   -4454.86160883 Ry
     ewald contribution        =   45341.83774893 Ry
     Dispersion Correction     =      -3.00122565 Ry
     smearing contrib. (-TS)   =      -3.35820128 Ry

     convergence has been achieved in  44 iterations

     Writing output data file gc.save
 
     init_run     :     89.65s CPU     95.50s WALL (       1 calls)
     electrons    :  11352.47s CPU  12054.64s WALL (       1 calls)

     Called by init_run:
     wfcinit      :     87.11s CPU     92.38s WALL (       1 calls)
     potinit      :      0.43s CPU      0.44s WALL (       1 calls)

     Called by electrons:
     c_bands      :  10468.22s CPU  11091.24s WALL (      44 calls)
     sum_band     :    698.83s CPU    744.63s WALL (      44 calls)
     v_of_rho     :      4.04s CPU      4.77s WALL (      45 calls)
     newd         :      8.28s CPU     14.29s WALL (      45 calls)
     mix_rho      :    172.75s CPU    196.76s WALL (      44 calls)

     Called by c_bands:
     init_us_2    :     35.89s CPU     36.63s WALL (     534 calls)
     cegterg      :  10318.74s CPU  10931.33s WALL (     271 calls)

     Called by sum_band:
     sum_band:bec :      5.59s CPU      6.24s WALL (     264 calls)
     addusdens    :      8.42s CPU     13.96s WALL (      44 calls)

     Called by *egterg:
     h_psi        :   3434.91s CPU   3613.51s WALL (    1881 calls)
     s_psi        :    910.34s CPU    929.12s WALL (    1881 calls)
     g_psi        :      9.73s CPU      9.76s WALL (    1604 calls)
     cdiaghg      :   3269.07s CPU   3399.48s WALL (    1868 calls)

     Called by h_psi:
     add_vuspsi   :    909.74s CPU    928.72s WALL (    1881 calls)

     General routines
     calbec       :   1289.74s CPU   1304.86s WALL (    2145 calls)
     fft          :      4.72s CPU      5.49s WALL (     584 calls)
     ffts         :    107.65s CPU    123.04s WALL (   25999 calls)
     fftw         :   1781.54s CPU   1868.46s WALL ( 1288250 calls)
     davcio       :      0.21s CPU      3.73s WALL (       6 calls)
 
     Parallel routines
     fft_scatter  :    980.39s CPU    994.92s WALL ( 1314833 calls)
 
     PWSCF        :     3h10m CPU        3h22m WALL

 
   This run was terminated on:  11:30:50  10Jan2017            

=------------------------------------------------------------------------------=
   JOB DONE.
=------------------------------------------------------------------------------=
