mpirun: INFO: switching to OpenMPI runtime version 1.10.2

     Program PWSCF v.5.4.0 starts on  5Oct2017 at  7:43:56 

     This program is part of the open-source Quantum ESPRESSO suite
     for quantum simulation of materials; please cite
         "P. Giannozzi et al., J. Phys.:Condens. Matter 21 395502 (2009);
          URL http://www.quantum-espresso.org", 
     in publications or presentations arising from this work. More details at
     http://www.quantum-espresso.org/quote

     Parallel version (MPI & OpenMP), running on      28 processor cores
     Number of MPI processes:                28
     Threads/MPI process:                     1
     R & G space division:  proc/nbgrp/npool/nimage =      28
     Waiting for input...
     Reading input from standard input
Warning: card &IONS ignored
Warning: card / ignored

     Current dimensions of program PWSCF are:
     Max number of different atomic species (ntypx) = 10
     Max number of k-points (npk) =  40000
     Max angular momentum in pseudopotentials (lmaxx) =  3
     WARNING: atomic wfc #  2 for atom type 4 has zero norm
     WARNING: atomic wfc #  4 for atom type 4 has zero norm
     WARNING: atomic wfc #  5 for atom type 4 has zero norm

     -------------------------------------
     Parameters for Dispersion Correction:
     -------------------------------------
       atom      VdW radius       C_6     

        Cu         2.952        374.666
        C_h        2.744         60.710
        C          2.744         60.710
        O          2.536         24.284

     Subspace diagonalization in iterative solution of the eigenvalue problem:
     one sub-group per band group will be used
     scalapack distributed-memory algorithm (size of sub-group:  3*  3 procs)

 
     Parallelization info
     --------------------
     sticks:   dense  smooth     PW     G-vecs:    dense   smooth      PW
     Min         408     408    108                73226    73226    9928
     Max         410     410    109                73231    73231    9931
     Sum       11433   11433   3039              2050409  2050409  278033
 


     bravais-lattice index     =            0
     lattice parameter (alat)  =      13.9425  a.u.
     unit-cell volume          =   21209.0878 (a.u.)^3
     number of atoms/cell      =          150
     number of atomic types    =            4
     number of electrons       =      1302.00
     number of Kohn-Sham states=          781
     kinetic-energy cutoff     =      80.0000  Ry
     charge density cutoff     =     320.0000  Ry
     convergence threshold     =      1.0E-08
     mixing beta               =       0.7000
     number of iterations used =            8  local-TF  mixing
     Exchange-correlation      =  SLA  PW   PBX  PBC ( 1  4  3  4 0 0)

     celldm(1)=  13.942539  celldm(2)=   0.000000  celldm(3)=   0.000000
     celldm(4)=   0.000000  celldm(5)=   0.000000  celldm(6)=   0.000000

     crystal axes: (cart. coord. in units of alat)
               a(1) = (   1.000000   0.000000   0.000000 )  
               a(2) = (   0.000000   2.309401   0.000000 )  
               a(3) = (   0.000000   0.000000   3.388418 )  

     reciprocal axes: (cart. coord. in units 2 pi/alat)
               b(1) = (  1.000000  0.000000  0.000000 )  
               b(2) = (  0.000000  0.433013  0.000000 )  
               b(3) = (  0.000000  0.000000  0.295123 )  


     PseudoPot. # 1 for Cu read from file:
     /home/549/hxw549/Short/pseudopotentials/Cu.pbe-n-van_ak.UPF
     MD5 check sum: 601f7c30f7467666bec936e0661ce3e1
     Pseudo is Ultrasoft + core correction, Zval = 11.0
     Generated by new atomic code, or converted to UPF format
     Using radial grid of  867 points,  6 beta functions with: 
                l(1) =   0
                l(2) =   0
                l(3) =   1
                l(4) =   1
                l(5) =   2
                l(6) =   2
     Q(r) pseudized with  8 coefficients,  rinner =    1.400   1.400   1.400
                                                       1.400   1.400

     PseudoPot. # 2 for C  read from file:
     /home/549/hxw549/Short/pseudopotentials/C.star1s-pbe-mt_gipaw.UPF
     MD5 check sum: ef0cb3dee31bd9e4ba2a832a2c716264
     Pseudo is Norm-conserving, Zval =  5.0
     Generated by new atomic code, or converted to UPF format
     Using radial grid of 1073 points,  1 beta functions with: 
                l(1) =   0

     PseudoPot. # 3 for C  read from file:
     /home/549/hxw549/Short/pseudopotentials/C.pbe-mt_gipaw.UPF
     MD5 check sum: 5ac2f21f2c440b14befe521540822c15
     Pseudo is Norm-conserving, Zval =  4.0
     Generated by new atomic code, or converted to UPF format
     Using radial grid of 1073 points,  1 beta functions with: 
                l(1) =   0

     PseudoPot. # 4 for O  read from file:
     /home/549/hxw549/Short/pseudopotentials/O.pbe-van_gipaw.UPF
     MD5 check sum: 5ce2a047509d4f331db576c963e74b29
     Pseudo is Ultrasoft, Zval =  6.0
     Generated by new atomic code, or converted to UPF format
     Using radial grid of 1095 points,  4 beta functions with: 
                l(1) =   0
                l(2) =   0
                l(3) =   1
                l(4) =   1
     Q(r) pseudized with 0 coefficients 


     atomic species   valence    mass     pseudopotential
        Cu            11.00    63.54600     Cu( 1.00)
        C_h            5.00    12.01070     C ( 1.00)
        C              4.00    12.01070     C ( 1.00)
        O              6.00    15.99940     O ( 1.00)

     No symmetry found



   Cartesian axes

     site n.     atom                  positions (alat units)
         1           Cu  tau(   1) = (   0.0007746  -0.0017263   0.9974341  )
         2           Cu  tau(   2) = (   0.2507737   0.2258138   0.9973260  )
         3           Cu  tau(   3) = (   0.5008760  -0.0022365   0.9966779  )
         4           Cu  tau(   4) = (   0.7508471   0.2263841   0.9980016  )
         5           Cu  tau(   5) = (   0.0008392   0.4565406   0.9985792  )
         6           Cu  tau(   6) = (   0.2509427   0.6897855   0.9999657  )
         7           Cu  tau(   7) = (   0.5008379   0.4568514   0.9990575  )
         8           Cu  tau(   8) = (   0.7507194   0.6897031   0.9999838  )
         9           Cu  tau(   9) = (   0.0006685   0.9241902   1.0001491  )
        10           Cu  tau(  10) = (   0.2508199   1.1585893   0.9994315  )
        11           Cu  tau(  11) = (   0.5008540   0.9240586   1.0006399  )
        12           Cu  tau(  12) = (   0.7507433   1.1584370   0.9997064  )
        13           Cu  tau(  13) = (   0.0007724   1.3915619   0.9981007  )
        14           Cu  tau(  14) = (   0.2507485   1.6225299   0.9965829  )
        15           Cu  tau(  15) = (   0.5008122   1.3916616   0.9979961  )
        16           Cu  tau(  16) = (   0.7508119   1.6227756   0.9965609  )
        17           Cu  tau(  17) = (   0.0009883   1.8518082   0.9959401  )
        18           Cu  tau(  18) = (   0.2507237   2.0803995   0.9968330  )
        19           Cu  tau(  19) = (   0.5006394   1.8518782   0.9959625  )
        20           Cu  tau(  20) = (   0.7509541   2.0796587   0.9956860  )
        21           Cu  tau(  21) = (   0.0010190   0.2258085   1.2493909  )
        22           Cu  tau(  22) = (   0.2504775  -0.0015663   1.2511192  )
        23           Cu  tau(  23) = (   0.5007592   0.2244625   1.2474139  )
        24           Cu  tau(  24) = (   0.7511204  -0.0032534   1.2489893  )
        25           Cu  tau(  25) = (   0.0011318   0.6883266   1.2442935  )
        26           Cu  tau(  26) = (   0.2506634   0.4550101   1.2457739  )
        27           Cu  tau(  27) = (   0.5010434   0.6889459   1.2455869  )
        28           Cu  tau(  28) = (   0.7513247   0.4551755   1.2463317  )
        29           Cu  tau(  29) = (   0.0009417   1.1597158   1.2443880  )
        30           Cu  tau(  30) = (   0.2512312   0.9241298   1.2444880  )
        31           Cu  tau(  31) = (   0.5007499   1.1593901   1.2450686  )
        32           Cu  tau(  32) = (   0.7508296   0.9240397   1.2450130  )
        33           Cu  tau(  33) = (   0.0007793   1.6243336   1.2463775  )
        34           Cu  tau(  34) = (   0.2504282   1.3930798   1.2451551  )
        35           Cu  tau(  35) = (   0.5008090   1.6252398   1.2451280  )
        36           Cu  tau(  36) = (   0.7512192   1.3936504   1.2446248  )
        37           Cu  tau(  37) = (   0.0010877   2.0797516   1.2492188  )
        38           Cu  tau(  38) = (   0.2507223   1.8528469   1.2475014  )
        39           Cu  tau(  39) = (   0.5004398   2.0799192   1.2488390  )
        40           Cu  tau(  40) = (   0.7508180   1.8531203   1.2475507  )
        41           Cu  tau(  41) = (   0.0016658  -0.0022985   1.5045196  )
        42           Cu  tau(  42) = (   0.2503972   0.2291600   1.5050437  )
        43           Cu  tau(  43) = (   0.5000117  -0.0022562   1.5036487  )
        44           Cu  tau(  44) = (   0.7517889   0.2249026   1.5000298  )
        45           Cu  tau(  45) = (   0.0021806   0.4573907   1.4979107  )
        46           Cu  tau(  46) = (   0.2515336   0.6876551   1.4914913  )
        47           Cu  tau(  47) = (   0.5009200   0.4538841   1.4935295  )
        48           Cu  tau(  48) = (   0.7528141   0.6875879   1.4907110  )
        49           Cu  tau(  49) = (   0.0033450   0.9232828   1.4888842  )
        50           Cu  tau(  50) = (   0.2503503   1.1598614   1.4909692  )
        51           Cu  tau(  51) = (   0.5011269   0.9241898   1.4909779  )
        52           Cu  tau(  52) = (   0.7519249   1.1613568   1.4891627  )
        53           Cu  tau(  53) = (   0.0011131   1.3942307   1.4938872  )
        54           Cu  tau(  54) = (   0.2503927   1.6255964   1.4976503  )
        55           Cu  tau(  55) = (   0.5006234   1.3972544   1.4901219  )
        56           Cu  tau(  56) = (   0.7512735   1.6255407   1.4977139  )
        57           Cu  tau(  57) = (   0.0005637   1.8528289   1.5024635  )
        58           Cu  tau(  58) = (   0.2506219   2.0792198   1.5045906  )
        59           Cu  tau(  59) = (   0.5009250   1.8529925   1.5021785  )
        60           Cu  tau(  60) = (   0.7508082   2.0800280   1.5044375  )
        61           Cu  tau(  61) = (   0.0038475   0.2303557   1.7544175  )
        62           Cu  tau(  62) = (   0.2510972  -0.0016110   1.7589938  )
        63           Cu  tau(  63) = (   0.4999193   0.2298937   1.7528921  )
        64           Cu  tau(  64) = (   0.7511849   0.0002495   1.7583826  )
        65           Cu  tau(  65) = (   0.0060098   0.6915091   1.7456589  )
        66           Cu  tau(  66) = (   0.2526343   0.4668484   1.7573948  )
        67           Cu  tau(  67) = (   0.5044723   0.6882987   1.7340652  )
        68           Cu  tau(  68) = (   0.7534858   0.4575929   1.7448602  )
        69           Cu  tau(  69) = (   0.0030806   1.1601133   1.7386452  )
        70           Cu  tau(  70) = (   0.2518379   0.9215057   1.7366438  )
        71           Cu  tau(  71) = (   0.5015939   1.1634386   1.7317629  )
        72           Cu  tau(  72) = (   0.7569360   0.9256709   1.7318463  )
        73           Cu  tau(  73) = (   0.0006284   1.6228987   1.7514313  )
        74           Cu  tau(  74) = (   0.2495296   1.3943295   1.7430802  )
        75           Cu  tau(  75) = (   0.5008934   1.6219922   1.7510664  )
        76           Cu  tau(  76) = (   0.7524006   1.3939441   1.7423004  )
        77           Cu  tau(  77) = (   0.0004462   2.0792281   1.7605390  )
        78           Cu  tau(  78) = (   0.2505914   1.8507081   1.7580746  )
        79           Cu  tau(  79) = (   0.5012530   2.0794473   1.7601117  )
        80           Cu  tau(  80) = (   0.7509891   1.8507123   1.7576061  )
        81           Cu  tau(  81) = (   0.0008286   0.0033963   2.0092933  )
        82           Cu  tau(  82) = (   0.2531685   0.2321805   2.0065704  )
        83           Cu  tau(  83) = (   0.5029616   0.0032808   2.0095555  )
        84           Cu  tau(  84) = (   0.7539833   0.2369850   2.0035455  )
        85           Cu  tau(  85) = (   0.0065270   0.4656567   2.0017021  )
        86           Cu  tau(  86) = (   0.2464865   0.6933756   2.0151552  )
        87           Cu  tau(  87) = (   0.5030727   0.4630537   1.9968478  )
        88           Cu  tau(  88) = (   0.7554598   0.6904527   1.9839067  )
        89           Cu  tau(  89) = (  -0.0046798   0.9283144   1.9874394  )
        90           Cu  tau(  90) = (   0.2487659   1.1590837   1.9772863  )
        91           Cu  tau(  91) = (   0.5151132   0.9293281   1.9559442  )
        92           Cu  tau(  92) = (   0.7550174   1.1625438   1.9831995  )
        93           Cu  tau(  93) = (   0.0028197   1.3884207   1.9964466  )
        94           Cu  tau(  94) = (   0.2520994   1.6161203   2.0043589  )
        95           Cu  tau(  95) = (   0.5000456   1.3851001   1.9926923  )
        96           Cu  tau(  96) = (   0.7493302   1.6156245   2.0040319  )
        97           Cu  tau(  97) = (   0.0005987   1.8456515   2.0105564  )
        98           Cu  tau(  98) = (   0.2507723   2.0792808   2.0122620  )
        99           Cu  tau(  99) = (   0.5009208   1.8468742   2.0092992  )
       100           Cu  tau( 100) = (   0.7514130   2.0792294   2.0116684  )
       101           C   tau( 101) = (   0.0000041   0.1004607   2.4706174  )
       102           C   tau( 102) = (   0.0000464   0.2911966   2.5077514  )
       103           C   tau( 103) = (   0.1667510   0.0039812   2.4555312  )
       104           C   tau( 104) = (   0.1667002   0.3869974   2.5272644  )
       105           C   tau( 105) = (   0.3333424   0.1007420   2.4699883  )
       106           C   tau( 106) = (   0.3334363   0.2919992   2.5051734  )
       107           C   tau( 107) = (   0.5000066   0.0039836   2.4560683  )
       108           C   tau( 108) = (   0.4999469   0.3882212   2.5232037  )
       109           C   tau( 109) = (   0.6666958   0.1005847   2.4714172  )
       110           C   tau( 110) = (   0.6665358   0.2920099   2.5054082  )
       111           C   tau( 111) = (   0.8332310   0.0038601   2.4560699  )
       112           C   tau( 112) = (   0.8332509   0.3869252   2.5270840  )
       113           C   tau( 113) = (  -0.0001934   0.6737688   2.5777695  )
       114           C   tau( 114) = (  -0.0001856   0.8672651   2.5944491  )
       115           C   tau( 115) = (   0.1667594   0.5776866   2.5647008  )
       116           C   tau( 116) = (   0.1666435   0.9646073   2.6006922  )
       117           C   tau( 117) = (   0.3331110   0.6740993   2.5851705  )
       118           C   tau( 118) = (   0.3329710   0.8670446   2.6096596  )
       119           C_h tau( 119) = (   0.4997466   0.5783682   2.5647021  )
       120           C   tau( 120) = (   0.4999838   0.9653277   2.6122075  )
       121           C   tau( 121) = (   0.6664953   0.6742678   2.5820520  )
       122           C   tau( 122) = (   0.6663998   0.8673954   2.6037964  )
       123           C   tau( 123) = (   0.8331008   0.5776885   2.5641855  )
       124           C   tau( 124) = (   0.8332477   0.9647019   2.5973254  )
       125           C   tau( 125) = (   0.0000710   1.2537597   2.5618756  )
       126           C   tau( 126) = (   0.0001158   1.4445822   2.5252882  )
       127           C   tau( 127) = (   0.1668448   1.1579586   2.5811571  )
       128           C   tau( 128) = (   0.1667803   1.5400959   2.5059542  )
       129           C   tau( 129) = (   0.3335356   1.2546126   2.5695193  )
       130           C   tau( 130) = (   0.3335027   1.4444043   2.5269442  )
       131           C   tau( 131) = (   0.5000824   1.1587316   2.5904068  )
       132           C   tau( 132) = (   0.5000760   1.5393962   2.5038670  )
       133           C   tau( 133) = (   0.6665019   1.2546303   2.5687975  )
       134           C   tau( 134) = (   0.6665495   1.4443316   2.5269178  )
       135           C   tau( 135) = (   0.8334671   1.1581306   2.5807843  )
       136           C   tau( 136) = (   0.8333255   1.5402118   2.5066151  )
       137           C   tau( 137) = (   0.0000004   1.8277352   2.4539580  )
       138           C   tau( 138) = (  -0.0000015   2.0216453   2.4380816  )
       139           C   tau( 139) = (   0.1667979   1.7311224   2.4699837  )
       140           C   tau( 140) = (   0.1667608   2.1194820   2.4391038  )
       141           C   tau( 141) = (   0.3334638   1.8277274   2.4563194  )
       142           C   tau( 142) = (   0.3334790   2.0215976   2.4405198  )
       143           C   tau( 143) = (   0.4999842   1.7306087   2.4686680  )
       144           C   tau( 144) = (   0.5000116   2.1195299   2.4408306  )
       145           C   tau( 145) = (   0.6666293   1.8276257   2.4559927  )
       146           C   tau( 146) = (   0.6665863   2.0215855   2.4403438  )
       147           C   tau( 147) = (   0.8331931   1.7310805   2.4699489  )
       148           C   tau( 148) = (   0.8332380   2.1195278   2.4386194  )
       149           C   tau( 149) = (   0.3726381   0.8371666   2.1777400  )
       150           O   tau( 150) = (   0.4493068   0.9396855   2.2775618  )

     number of k points=     6  gaussian smearing, width (Ry)=  0.1000
                       cart. coord. in units 2pi/alat
        k(    1) = (   0.0000000   0.0000000   0.0000000), wk =   0.2500000
        k(    2) = (   0.0000000  -0.2165064   0.0000000), wk =   0.2500000
        k(    3) = (   0.2500000   0.0000000   0.0000000), wk =   0.5000000
        k(    4) = (   0.2500000  -0.2165064   0.0000000), wk =   0.5000000
        k(    5) = (  -0.5000000   0.0000000   0.0000000), wk =   0.2500000
        k(    6) = (  -0.5000000  -0.2165064   0.0000000), wk =   0.2500000

     Dense  grid:  2050409 G-vectors     FFT dimensions: (  80, 192, 270)

     Largest allocated arrays     est. size (Mb)     dimensions
        Kohn-Sham Wavefunctions       109.29 Mb     (    9171,  781)
        NL pseudopotentials           259.87 Mb     (    9171, 1857)
        Each V/rho on FFT grid          2.34 Mb     (  153600)
        Each G-vector array             0.56 Mb     (   73230)
        G-vector shells                 0.27 Mb     (   35784)
     Largest temporary arrays     est. size (Mb)     dimensions
        Auxiliary wavefunctions       437.17 Mb     (    9171, 3124)
        Each subspace H/S matrix       16.54 Mb     (    1041, 1041)
        Each <psi_i|beta_j> matrix     22.13 Mb     (    1857,  781)
        Arrays for rho mixing          18.75 Mb     (  153600,    8)

     Initial potential from superposition of free atoms
     Check: negative starting charge=   -0.001515

     starting charge 1276.31751, renormalised to 1302.00000

     negative rho (up, down):  1.545E-03 0.000E+00
     Starting wfc are 1296 randomized atomic wfcs

     total cpu time spent up to now is      200.2 secs

     Self-consistent Calculation

     iteration #  1     ecut=    80.00 Ry     beta=0.70
     Davidson diagonalization with overlap
     c_bands:  5 eigenvalues not converged
     c_bands:  3 eigenvalues not converged
     ethr =  1.00E-04,  avg # of iterations = 46.3

     negative rho (up, down):  2.499E+01 0.000E+00

     total cpu time spent up to now is     4868.8 secs

     total energy              =  -10000.98549614 Ry
     Harris-Foulkes estimate   =  -18258.11791340 Ry
     estimated scf accuracy    <  210988.94091778 Ry

     iteration #  2     ecut=    80.00 Ry     beta=0.70
     Davidson diagonalization with overlap
     ethr =  1.00E-02,  avg # of iterations = 14.0

     negative rho (up, down):  3.303E+01 0.000E+00

     total cpu time spent up to now is     6887.9 secs

     total energy              =  -11859.67559756 Ry
     Harris-Foulkes estimate   =  -13824.76305489 Ry
     estimated scf accuracy    <   36680.85291634 Ry

     iteration #  3     ecut=    80.00 Ry     beta=0.70
     Davidson diagonalization with overlap
     ethr =  1.00E-02,  avg # of iterations = 18.3

     negative rho (up, down):  3.139E+01 0.000E+00

     total cpu time spent up to now is     8828.7 secs

     total energy              =  -12127.69196425 Ry
     Harris-Foulkes estimate   =  -13742.08475525 Ry
     estimated scf accuracy    <    6760.89570392 Ry

     iteration #  4     ecut=    80.00 Ry     beta=0.70
     Davidson diagonalization with overlap
     ethr =  1.00E-02,  avg # of iterations =  4.0

     negative rho (up, down):  2.185E+01 0.000E+00

     total cpu time spent up to now is     9798.9 secs

     total energy              =  -12876.92515012 Ry
     Harris-Foulkes estimate   =  -13099.69245178 Ry
     estimated scf accuracy    <     981.94041477 Ry

     iteration #  5     ecut=    80.00 Ry     beta=0.70
     Davidson diagonalization with overlap
     ethr =  1.00E-02,  avg # of iterations =  2.5

     negative rho (up, down):  1.744E+01 0.000E+00

     total cpu time spent up to now is    10287.8 secs

     total energy              =  -12882.99044873 Ry
     Harris-Foulkes estimate   =  -12946.72746509 Ry
     estimated scf accuracy    <    1219.42472534 Ry

     iteration #  6     ecut=    80.00 Ry     beta=0.70
     Davidson diagonalization with overlap
     ethr =  1.00E-02,  avg # of iterations =  1.2

     negative rho (up, down):  1.249E+01 0.000E+00

     total cpu time spent up to now is    10610.1 secs

     total energy              =  -12848.50998248 Ry
     Harris-Foulkes estimate   =  -12906.08268341 Ry
     estimated scf accuracy    <     519.03977313 Ry

     iteration #  7     ecut=    80.00 Ry     beta=0.70
     Davidson diagonalization with overlap
     ethr =  1.00E-02,  avg # of iterations =  2.0

     negative rho (up, down):  7.905E+00 0.000E+00

     total cpu time spent up to now is    10956.9 secs

     total energy              =  -12832.11621717 Ry
     Harris-Foulkes estimate   =  -12871.66605402 Ry
     estimated scf accuracy    <     375.17732333 Ry

     iteration #  8     ecut=    80.00 Ry     beta=0.70
     Davidson diagonalization with overlap
     ethr =  1.00E-02,  avg # of iterations =  1.0

     negative rho (up, down):  6.210E+00 0.000E+00

     total cpu time spent up to now is    11277.6 secs

     total energy              =  -12818.89531542 Ry
     Harris-Foulkes estimate   =  -12839.38634925 Ry
     estimated scf accuracy    <     322.21280027 Ry

     iteration #  9     ecut=    80.00 Ry     beta=0.70
     Davidson diagonalization with overlap
     ethr =  1.00E-02,  avg # of iterations =  1.3

     negative rho (up, down):  5.215E+00 0.000E+00

     total cpu time spent up to now is    11604.3 secs

     total energy              =  -12814.08365855 Ry
     Harris-Foulkes estimate   =  -12824.80671423 Ry
     estimated scf accuracy    <     202.12129401 Ry

     iteration # 10     ecut=    80.00 Ry     beta=0.70
     Davidson diagonalization with overlap
     ethr =  1.00E-02,  avg # of iterations =  1.0

     negative rho (up, down):  9.635E-01 0.000E+00

     total cpu time spent up to now is    11924.0 secs

     total energy              =  -12779.69458299 Ry
     Harris-Foulkes estimate   =  -12816.17085740 Ry
     estimated scf accuracy    <     163.96003294 Ry

     iteration # 11     ecut=    80.00 Ry     beta=0.70
     Davidson diagonalization with overlap
     ethr =  1.00E-02,  avg # of iterations =  2.0

     negative rho (up, down):  4.230E-01 0.000E+00

     total cpu time spent up to now is    12265.3 secs

     total energy              =  -12768.59611143 Ry
     Harris-Foulkes estimate   =  -12788.10895936 Ry
     estimated scf accuracy    <     181.65077452 Ry

     iteration # 12     ecut=    80.00 Ry     beta=0.70
     Davidson diagonalization with overlap
     ethr =  1.00E-02,  avg # of iterations =  2.0

     negative rho (up, down):  7.865E-01 0.000E+00

     total cpu time spent up to now is    12609.3 secs

     total energy              =  -12766.48135714 Ry
     Harris-Foulkes estimate   =  -12778.82497928 Ry
     estimated scf accuracy    <      73.42076299 Ry

     iteration # 13     ecut=    80.00 Ry     beta=0.70
     Davidson diagonalization with overlap
     ethr =  5.64E-03,  avg # of iterations =  2.0

     negative rho (up, down):  3.019E+00 0.000E+00

     total cpu time spent up to now is    12951.8 secs

     total energy              =  -12762.19652012 Ry
     Harris-Foulkes estimate   =  -12770.71122980 Ry
     estimated scf accuracy    <      52.88186128 Ry

     iteration # 14     ecut=    80.00 Ry     beta=0.70
     Davidson diagonalization with overlap
     ethr =  4.06E-03,  avg # of iterations =  2.3

     negative rho (up, down):  2.858E+00 0.000E+00

     total cpu time spent up to now is    13298.7 secs

     total energy              =  -12753.64462851 Ry
     Harris-Foulkes estimate   =  -12764.14163881 Ry
     estimated scf accuracy    <      69.81466054 Ry

     iteration # 15     ecut=    80.00 Ry     beta=0.70
     Davidson diagonalization with overlap
     ethr =  4.06E-03,  avg # of iterations =  2.2

     negative rho (up, down):  1.006E+00 0.000E+00

     total cpu time spent up to now is    13648.4 secs

     total energy              =  -12758.32772532 Ry
     Harris-Foulkes estimate   =  -12762.02450614 Ry
     estimated scf accuracy    <      38.78457633 Ry

     iteration # 16     ecut=    80.00 Ry     beta=0.70
     Davidson diagonalization with overlap
     ethr =  2.98E-03,  avg # of iterations =  2.3

     negative rho (up, down):  4.740E+00 0.000E+00

     total cpu time spent up to now is    14000.5 secs

     total energy              =  -12756.12387681 Ry
     Harris-Foulkes estimate   =  -12761.92800224 Ry
     estimated scf accuracy    <      30.08955111 Ry

     iteration # 17     ecut=    80.00 Ry     beta=0.70
     Davidson diagonalization with overlap
     ethr =  2.31E-03,  avg # of iterations =  3.3

     negative rho (up, down):  3.857E+00 0.000E+00

     total cpu time spent up to now is    14371.7 secs

     total energy              =  -12755.95163880 Ry
     Harris-Foulkes estimate   =  -12757.17624276 Ry
     estimated scf accuracy    <      16.89197626 Ry

     iteration # 18     ecut=    80.00 Ry     beta=0.70
     Davidson diagonalization with overlap
     ethr =  1.30E-03,  avg # of iterations =  1.8

     negative rho (up, down):  4.013E+00 0.000E+00

     total cpu time spent up to now is    14710.2 secs

     total energy              =  -12755.41108070 Ry
     Harris-Foulkes estimate   =  -12756.48749634 Ry
     estimated scf accuracy    <      12.90375923 Ry

     iteration # 19     ecut=    80.00 Ry     beta=0.70
     Davidson diagonalization with overlap
     ethr =  9.91E-04,  avg # of iterations =  5.8

     negative rho (up, down):  2.300E+00 0.000E+00

     total cpu time spent up to now is    15137.2 secs

     total energy              =  -12753.89415717 Ry
     Harris-Foulkes estimate   =  -12755.61194694 Ry
     estimated scf accuracy    <       9.10732707 Ry

     iteration # 20     ecut=    80.00 Ry     beta=0.70
     Davidson diagonalization with overlap
     ethr =  6.99E-04,  avg # of iterations =  2.5

     negative rho (up, down):  8.971E-01 0.000E+00

     total cpu time spent up to now is    15487.5 secs

     total energy              =  -12752.57482202 Ry
     Harris-Foulkes estimate   =  -12754.12762691 Ry
     estimated scf accuracy    <       7.25545774 Ry

     iteration # 21     ecut=    80.00 Ry     beta=0.70
     Davidson diagonalization with overlap
     ethr =  5.57E-04,  avg # of iterations =  4.0

     negative rho (up, down):  9.633E-01 0.000E+00

     total cpu time spent up to now is    15873.9 secs

     total energy              =  -12752.44470563 Ry
     Harris-Foulkes estimate   =  -12753.00994877 Ry
     estimated scf accuracy    <       8.65934984 Ry

     iteration # 22     ecut=    80.00 Ry     beta=0.70
     Davidson diagonalization with overlap
     ethr =  5.57E-04,  avg # of iterations =  1.2

     negative rho (up, down):  4.890E-01 0.000E+00

     total cpu time spent up to now is    16199.8 secs

     total energy              =  -12752.22406045 Ry
     Harris-Foulkes estimate   =  -12752.83922252 Ry
     estimated scf accuracy    <       4.87539112 Ry

     iteration # 23     ecut=    80.00 Ry     beta=0.70
     Davidson diagonalization with overlap
     ethr =  3.74E-04,  avg # of iterations =  1.0

     negative rho (up, down):  3.030E-02 0.000E+00

     total cpu time spent up to now is    16521.5 secs

     total energy              =  -12751.15631338 Ry
     Harris-Foulkes estimate   =  -12752.34832711 Ry
     estimated scf accuracy    <       4.33238852 Ry

     iteration # 24     ecut=    80.00 Ry     beta=0.70
     Davidson diagonalization with overlap
     ethr =  3.33E-04,  avg # of iterations =  1.7

     negative rho (up, down):  3.458E-01 0.000E+00

     total cpu time spent up to now is    16856.6 secs

     total energy              =  -12750.89338034 Ry
     Harris-Foulkes estimate   =  -12751.21076724 Ry
     estimated scf accuracy    <       4.01636279 Ry

     iteration # 25     ecut=    80.00 Ry     beta=0.70
     Davidson diagonalization with overlap
     ethr =  3.08E-04,  avg # of iterations =  8.8

     negative rho (up, down):  3.891E-01 0.000E+00

     total cpu time spent up to now is    17357.0 secs

     total energy              =  -12750.24197604 Ry
     Harris-Foulkes estimate   =  -12751.02108132 Ry
     estimated scf accuracy    <       2.21481161 Ry

     iteration # 26     ecut=    80.00 Ry     beta=0.70
     Davidson diagonalization with overlap
     ethr =  1.70E-04,  avg # of iterations =  8.2

     negative rho (up, down):  5.790E-01 0.000E+00

     total cpu time spent up to now is    17865.7 secs

     total energy              =  -12750.19097989 Ry
     Harris-Foulkes estimate   =  -12750.38332768 Ry
     estimated scf accuracy    <       1.59638668 Ry

     iteration # 27     ecut=    80.00 Ry     beta=0.70
     Davidson diagonalization with overlap
     ethr =  1.23E-04,  avg # of iterations =  7.5

     negative rho (up, down):  5.324E-01 0.000E+00

     total cpu time spent up to now is    18352.2 secs

     total energy              =  -12750.20993362 Ry
     Harris-Foulkes estimate   =  -12750.29379985 Ry
     estimated scf accuracy    <       0.67042203 Ry

     iteration # 28     ecut=    80.00 Ry     beta=0.70
     Davidson diagonalization with overlap
     ethr =  5.15E-05,  avg # of iterations =  5.7

     negative rho (up, down):  3.971E-01 0.000E+00

     total cpu time spent up to now is    18781.3 secs

     total energy              =  -12750.21746254 Ry
     Harris-Foulkes estimate   =  -12750.25779292 Ry
     estimated scf accuracy    <       0.30639991 Ry

     iteration # 29     ecut=    80.00 Ry     beta=0.70
     Davidson diagonalization with overlap
     ethr =  2.35E-05,  avg # of iterations =  6.7

     negative rho (up, down):  2.207E-01 0.000E+00

     total cpu time spent up to now is    19233.9 secs

     total energy              =  -12750.20088925 Ry
     Harris-Foulkes estimate   =  -12750.23046351 Ry
     estimated scf accuracy    <       0.12234813 Ry

     iteration # 30     ecut=    80.00 Ry     beta=0.70
     Davidson diagonalization with overlap
     c_bands:  1 eigenvalues not converged
     ethr =  9.40E-06,  avg # of iterations = 16.2

     negative rho (up, down):  1.340E-01 0.000E+00

     total cpu time spent up to now is    19947.2 secs

     total energy              =  -12750.20367210 Ry
     Harris-Foulkes estimate   =  -12750.20899776 Ry
     estimated scf accuracy    <       0.02453248 Ry

     iteration # 31     ecut=    80.00 Ry     beta=0.70
     Davidson diagonalization with overlap
     ethr =  1.88E-06,  avg # of iterations = 14.3

     negative rho (up, down):  8.229E-02 0.000E+00

     total cpu time spent up to now is    20619.3 secs

     total energy              =  -12750.20416161 Ry
     Harris-Foulkes estimate   =  -12750.20582300 Ry
     estimated scf accuracy    <       0.01330698 Ry

     iteration # 32     ecut=    80.00 Ry     beta=0.70
     Davidson diagonalization with overlap
     c_bands:  1 eigenvalues not converged
     ethr =  1.02E-06,  avg # of iterations = 13.5

     negative rho (up, down):  4.912E-02 0.000E+00

     total cpu time spent up to now is    21260.4 secs

     total energy              =  -12750.20402211 Ry
     Harris-Foulkes estimate   =  -12750.20494995 Ry
     estimated scf accuracy    <       0.00244026 Ry

     iteration # 33     ecut=    80.00 Ry     beta=0.70
     Davidson diagonalization with overlap
     c_bands:  1 eigenvalues not converged
     c_bands:  1 eigenvalues not converged
     ethr =  1.87E-07,  avg # of iterations = 12.0

     negative rho (up, down):  2.255E-02 0.000E+00

     total cpu time spent up to now is    21882.9 secs

     total energy              =  -12750.20366786 Ry
     Harris-Foulkes estimate   =  -12750.20436327 Ry
     estimated scf accuracy    <       0.00126771 Ry

     iteration # 34     ecut=    80.00 Ry     beta=0.70
     Davidson diagonalization with overlap
     c_bands:  1 eigenvalues not converged
     c_bands:  1 eigenvalues not converged
     ethr =  9.74E-08,  avg # of iterations = 13.2

     negative rho (up, down):  1.030E-02 0.000E+00

     total cpu time spent up to now is    22503.4 secs

     total energy              =  -12750.20347458 Ry
     Harris-Foulkes estimate   =  -12750.20374252 Ry
     estimated scf accuracy    <       0.00035965 Ry

     iteration # 35     ecut=    80.00 Ry     beta=0.70
     Davidson diagonalization with overlap
     c_bands:  1 eigenvalues not converged
     ethr =  2.76E-08,  avg # of iterations = 11.2

     negative rho (up, down):  3.329E-03 0.000E+00

     total cpu time spent up to now is    23084.8 secs

     total energy              =  -12750.20336302 Ry
     Harris-Foulkes estimate   =  -12750.20351105 Ry
     estimated scf accuracy    <       0.00010824 Ry

     iteration # 36     ecut=    80.00 Ry     beta=0.70
     Davidson diagonalization with overlap
     c_bands:  2 eigenvalues not converged
     ethr =  8.31E-09,  avg # of iterations = 11.7

     negative rho (up, down):  2.665E-03 0.000E+00

     total cpu time spent up to now is    23676.1 secs

     total energy              =  -12750.20336134 Ry
     Harris-Foulkes estimate   =  -12750.20337486 Ry
     estimated scf accuracy    <       0.00004239 Ry

     iteration # 37     ecut=    80.00 Ry     beta=0.70
     Davidson diagonalization with overlap
     c_bands:  1 eigenvalues not converged
     ethr =  3.26E-09,  avg # of iterations =  8.2

     negative rho (up, down):  1.665E-03 0.000E+00

     total cpu time spent up to now is    24174.4 secs

     total energy              =  -12750.20336218 Ry
     Harris-Foulkes estimate   =  -12750.20336587 Ry
     estimated scf accuracy    <       0.00001409 Ry

     iteration # 38     ecut=    80.00 Ry     beta=0.70
     Davidson diagonalization with overlap
     c_bands:  1 eigenvalues not converged
     ethr =  1.08E-09,  avg # of iterations =  7.2

     negative rho (up, down):  1.997E-03 0.000E+00

     total cpu time spent up to now is    24655.7 secs

     total energy              =  -12750.20336330 Ry
     Harris-Foulkes estimate   =  -12750.20336374 Ry
     estimated scf accuracy    <       0.00000879 Ry

     iteration # 39     ecut=    80.00 Ry     beta=0.70
     Davidson diagonalization with overlap
     ethr =  6.75E-10,  avg # of iterations =  3.0

     negative rho (up, down):  1.874E-03 0.000E+00

     total cpu time spent up to now is    25043.1 secs

     total energy              =  -12750.20336474 Ry
     Harris-Foulkes estimate   =  -12750.20336422 Ry
     estimated scf accuracy    <       0.00000243 Ry

     iteration # 40     ecut=    80.00 Ry     beta=0.70
     Davidson diagonalization with overlap
     ethr =  1.87E-10,  avg # of iterations =  2.0

     negative rho (up, down):  1.749E-03 0.000E+00

     total cpu time spent up to now is    25403.0 secs

     total energy              =  -12750.20336500 Ry
     Harris-Foulkes estimate   =  -12750.20336499 Ry
     estimated scf accuracy    <       0.00000135 Ry

     iteration # 41     ecut=    80.00 Ry     beta=0.70
     Davidson diagonalization with overlap
     ethr =  1.04E-10,  avg # of iterations =  2.0

     negative rho (up, down):  1.724E-03 0.000E+00

     total cpu time spent up to now is    25761.5 secs

     total energy              =  -12750.20336525 Ry
     Harris-Foulkes estimate   =  -12750.20336513 Ry
     estimated scf accuracy    <       0.00000040 Ry

     iteration # 42     ecut=    80.00 Ry     beta=0.70
     Davidson diagonalization with overlap
     ethr =  3.07E-11,  avg # of iterations =  2.3

     negative rho (up, down):  1.662E-03 0.000E+00

     total cpu time spent up to now is    26125.4 secs

     total energy              =  -12750.20336534 Ry
     Harris-Foulkes estimate   =  -12750.20336530 Ry
     estimated scf accuracy    <       0.00000013 Ry

     iteration # 43     ecut=    80.00 Ry     beta=0.70
     Davidson diagonalization with overlap
     ethr =  9.72E-12,  avg # of iterations =  3.0

     negative rho (up, down):  1.684E-03 0.000E+00

     total cpu time spent up to now is    26530.2 secs

     total energy              =  -12750.20336534 Ry
     Harris-Foulkes estimate   =  -12750.20336536 Ry
     estimated scf accuracy    <       0.00000003 Ry

     iteration # 44     ecut=    80.00 Ry     beta=0.70
     Davidson diagonalization with overlap
     ethr =  2.09E-12,  avg # of iterations =  2.2

     negative rho (up, down):  1.683E-03 0.000E+00

     total cpu time spent up to now is    26910.1 secs

     End of self-consistent calculation

          k = 0.0000 0.0000 0.0000 (256287 PWs)   bands (ev):

   -20.2825 -16.8748 -15.8142 -15.6458 -15.0165 -14.6401 -14.3720 -14.2601
   -13.8331 -13.7847 -13.6977 -13.6776 -13.0871 -12.9495 -12.7500 -12.7338
   -12.6819 -12.6805 -11.3316 -11.1621 -11.1246 -11.0244 -10.9305  -9.9514
    -9.4435  -9.4143  -9.2519  -9.1936  -8.5760  -8.3990  -8.2533  -8.1819
    -7.7179  -7.4975  -7.4396  -7.2769  -7.2016  -7.1708  -7.1325  -7.1081
    -6.8097  -6.0202  -6.0089  -5.8815  -5.7706  -5.6606  -5.6061  -5.5635
    -5.5379  -5.5283  -5.3585  -5.3507  -4.8444  -4.7156  -4.5397  -4.5062
    -4.4516  -4.3876  -4.2811  -4.2173  -4.0860  -3.9707  -3.9100  -3.8465
    -3.8270  -3.7113  -3.6037  -3.5384  -3.4513  -3.3067  -3.2917  -3.2762
    -3.2643  -3.2235  -3.1120  -3.0990  -3.0798  -2.9312  -2.9059  -2.8893
    -2.8824  -2.8769  -2.8728  -2.8157  -2.6810  -2.6780  -2.6131  -2.5489
    -2.5432  -2.5115  -2.4652  -2.4413  -2.4343  -2.3936  -2.3721  -2.1987
    -2.1833  -2.1766  -2.1683  -2.1478  -2.0778  -2.0717  -2.0460  -2.0428
    -2.0406  -2.0376  -1.9559  -1.9221  -1.9197  -1.8999  -1.8980  -1.8744
    -1.7547  -1.7458  -1.7398  -1.6702  -1.6377  -1.6364  -1.6302  -1.6252
    -1.6204  -1.6119  -1.6029  -1.5970  -1.5804  -1.5453  -1.5391  -1.5286
    -1.5095  -1.5034  -1.4893  -1.4715  -1.4662  -1.4641  -1.4429  -1.4306
    -1.4280  -1.4136  -1.4092  -1.4046  -1.3825  -1.3583  -1.3434  -1.3353
    -1.3113  -1.2491  -1.2202  -1.1991  -1.1960  -1.1930  -1.1733  -1.1637
    -1.1575  -1.1544  -1.1410  -1.1145  -1.1040  -1.0891  -1.0889  -1.0651
    -1.0543  -0.9876  -0.9706  -0.9629  -0.9587  -0.9495  -0.9449  -0.9394
    -0.9372  -0.9369  -0.9330  -0.9191  -0.9153  -0.9116  -0.9080  -0.8975
    -0.8972  -0.8965  -0.8778  -0.8517  -0.8488  -0.8473  -0.8388  -0.8238
    -0.8204  -0.8189  -0.7913  -0.7896  -0.7734  -0.7672  -0.7608  -0.7574
    -0.7548  -0.7502  -0.7484  -0.7471  -0.7451  -0.7433  -0.7420  -0.7395
    -0.7376  -0.7352  -0.7256  -0.7218  -0.6697  -0.6233  -0.5924  -0.5867
    -0.5853  -0.5828  -0.5751  -0.5713  -0.5647  -0.5455  -0.5406  -0.5365
    -0.5318  -0.5289  -0.5206  -0.5160  -0.5068  -0.4942  -0.4789  -0.4694
    -0.4660  -0.4646  -0.4620  -0.4593  -0.4569  -0.4543  -0.4445  -0.4337
    -0.4033  -0.3938  -0.3838  -0.3744  -0.3593  -0.3572  -0.3491  -0.3374
    -0.3335  -0.3281  -0.3229  -0.3174  -0.3167  -0.3135  -0.3098  -0.3092
    -0.3082  -0.3058  -0.3031  -0.2990  -0.2945  -0.2886  -0.2851  -0.2827
    -0.2706  -0.2514  -0.2419  -0.2365  -0.2220  -0.2162  -0.2013  -0.1951
    -0.1926  -0.1861  -0.1848  -0.1817  -0.1780  -0.1721  -0.1712  -0.1648
    -0.1510  -0.1477  -0.1441  -0.1419  -0.1409  -0.1329  -0.1320  -0.1277
    -0.1239  -0.1176  -0.1109  -0.1020  -0.0981  -0.0962  -0.0880  -0.0875
    -0.0807  -0.0664  -0.0524  -0.0410  -0.0310  -0.0275  -0.0149  -0.0070
     0.0053   0.0080   0.0173   0.0242   0.0292   0.0347   0.0380   0.0405
     0.0453   0.0487   0.0569   0.0749   0.0802   0.0858   0.0922   0.0982
     0.1005   0.1028   0.1125   0.1237   0.1271   0.1327   0.1343   0.1415
     0.1437   0.1448   0.1471   0.1487   0.1548   0.1581   0.1631   0.1661
     0.1806   0.1839   0.1904   0.1987   0.2023   0.2047   0.2311   0.2339
     0.2369   0.2456   0.2536   0.2568   0.2642   0.2859   0.2915   0.2990
     0.3078   0.3117   0.3162   0.3286   0.3351   0.3487   0.3587   0.3659
     0.3703   0.3774   0.3799   0.3922   0.4066   0.4136   0.4191   0.4227
     0.4263   0.4459   0.4495   0.4506   0.4554   0.4661   0.4706   0.4765
     0.4804   0.4921   0.4974   0.4995   0.5105   0.5194   0.5248   0.5281
     0.5371   0.5414   0.5467   0.5535   0.5700   0.5740   0.5768   0.5829
     0.5842   0.5906   0.5957   0.6113   0.6164   0.6171   0.6212   0.6238
     0.6295   0.6339   0.6348   0.6395   0.6420   0.6424   0.6455   0.6510
     0.6558   0.6586   0.6658   0.6716   0.6807   0.6828   0.6911   0.6999
     0.7031   0.7106   0.7149   0.7243   0.7267   0.7317   0.7382   0.7412
     0.7463   0.7560   0.7577   0.7611   0.7632   0.7643   0.7687   0.7723
     0.7743   0.7783   0.7836   0.7888   0.7955   0.8032   0.8056   0.8100
     0.8171   0.8216   0.8221   0.8225   0.8247   0.8345   0.8375   0.8412
     0.8458   0.8507   0.8523   0.8579   0.8771   0.8813   0.8882   0.8972
     0.9036   0.9099   0.9219   0.9254   0.9288   0.9366   0.9386   0.9531
     0.9541   0.9574   0.9629   0.9673   0.9691   0.9762   0.9861   0.9893
     0.9925   0.9977   1.0006   1.0037   1.0081   1.0142   1.0174   1.0191
     1.0247   1.0340   1.0412   1.0523   1.0543   1.0633   1.0701   1.0741
     1.0784   1.0828   1.0889   1.0900   1.0916   1.0942   1.1008   1.1049
     1.1066   1.1103   1.1143   1.1172   1.1217   1.1242   1.1310   1.1341
     1.1407   1.1426   1.1465   1.1545   1.1579   1.1638   1.1729   1.1744
     1.1773   1.1792   1.1815   1.1857   1.1875   1.1910   1.1936   1.1967
     1.2005   1.2052   1.2070   1.2105   1.2149   1.2222   1.2223   1.2313
     1.2362   1.2405   1.2439   1.2483   1.2613   1.2692   1.2745   1.2824
     1.2829   1.2850   1.2901   1.2976   1.3028   1.3082   1.3171   1.3177
     1.3221   1.3245   1.3309   1.3319   1.3344   1.3404   1.3424   1.3486
     1.3510   1.3525   1.3536   1.3579   1.3596   1.3649   1.3704   1.3728
     1.3801   1.3838   1.3857   1.3870   1.3896   1.3901   1.3915   1.3933
     1.3949   1.4025   1.4053   1.4143   1.4157   1.4199   1.4228   1.4316
     1.4321   1.4366   1.4436   1.4472   1.4535   1.4559   1.4655   1.4683
     1.4720   1.4802   1.4824   1.4861   1.4885   1.4921   1.4946   1.4956
     1.5000   1.5026   1.5057   1.5082   1.5093   1.5103   1.5119   1.5183
     1.5216   1.5313   1.5320   1.5359   1.5392   1.5422   1.5493   1.5524
     1.5573   1.5607   1.5670   1.5834   1.5874   1.5914   1.5957   1.6166
     1.6253   1.6306   1.6341   1.6386   1.6447   1.6713   1.6732   1.6909
     1.6948   1.6956   1.7021   1.7050   1.7081   1.7131   1.7277   1.7327
     1.8259   1.9843   2.0301   2.1360   2.1463   2.1561   2.2356   2.2629
     2.2748   2.2759   2.2807   2.2836   2.2961   2.2989   2.3259   2.4283
     2.4363   2.4794   2.4941   2.5163   2.5256   2.5442   2.6493   2.7315
     2.7619   2.7750   2.8271   3.0226   3.1998   3.2849   3.3208   3.3870
     3.4957   3.5658   3.7511   3.7804   3.8282   3.8655   3.8884   3.9099
     3.9206   3.9744   3.9918   4.0254   4.0638   4.0671   4.0788   4.0873
     4.0940   4.1195   4.1799   4.2047   4.2310   4.2714   4.5962   4.7268
     4.8384   5.0066   5.1780   5.1971   5.2122   5.2494   5.2964   5.3510
     5.4260   5.5025   5.5766   5.6609   5.6822   5.8871   6.0107   6.0328
     6.1389   6.2711   6.2809   6.4143   6.4415   6.5091   6.5116   6.5729
     6.6194   6.6475   6.7092   6.7221   6.8119   6.8400   6.9542   6.9619
     6.9674   7.0063   7.0417   7.0738   7.0945   7.1402   7.1753   7.2063
     7.3381   7.4343   7.4662   7.4948   7.5421   7.6607   7.7249   7.7693
     7.8078   7.9215   8.0354   8.0754   8.1311   8.1647   8.1784   8.1886
     8.2760   8.3264   8.3407   8.3871   8.4055   8.4232   8.4307   8.5013
     8.5489   8.5943   8.6208   8.6270   8.6644   8.6671   8.7455   8.7584
     8.7762   8.8397   8.8474   8.8602   8.8892   8.9095   9.0060   9.0481
     9.0653   9.1189   9.1673   9.2091   9.2766   9.3610   9.4123   9.4644
     9.4886   9.4943   9.5403   9.6236   9.6468   9.7101   9.7717   9.9133
     9.9671  10.0476  10.1244  10.1283  10.1452

          k = 0.0000-0.2165 0.0000 (256176 PWs)   bands (ev):

   -20.2825 -16.8744 -15.8727 -15.4674 -15.2406 -14.6564 -14.2495 -13.9459
   -13.9068 -13.8514 -13.8400 -13.4090 -13.3426 -13.2972 -13.2788 -12.2382
   -12.0602 -12.0014 -11.9200 -11.8067 -11.7399 -10.2997 -10.2186 -10.1930
   -10.0427  -9.1333  -9.0687  -8.9219  -8.7480  -8.6039  -8.5500  -8.0055
    -7.8674  -7.8057  -7.7416  -7.1407  -6.9658  -6.8248  -6.6226  -6.6111
    -6.5158  -6.5054  -6.4731  -6.4468  -5.9209  -5.8303  -5.7588  -5.7383
    -5.1892  -5.0778  -4.8794  -4.8167  -4.7880  -4.7410  -4.7092  -4.6876
    -4.6402  -4.6240  -4.4554  -4.3549  -4.3383  -4.1685  -4.1075  -3.7901
    -3.7105  -3.6333  -3.5034  -3.4000  -3.3982  -3.3865  -3.1837  -3.1768
    -3.1712  -3.1577  -3.0834  -3.0315  -2.9238  -2.9215  -2.9007  -2.8683
    -2.8170  -2.7533  -2.7487  -2.6338  -2.6321  -2.5941  -2.5758  -2.5603
    -2.5476  -2.4646  -2.4610  -2.4585  -2.4564  -2.4497  -2.3461  -2.3431
    -2.3170  -2.2990  -2.2726  -2.1887  -2.1612  -2.1586  -2.0878  -2.0700
    -2.0216  -2.0178  -2.0167  -2.0011  -1.9137  -1.8775  -1.8757  -1.8542
    -1.8530  -1.8124  -1.8014  -1.7634  -1.7512  -1.6758  -1.6678  -1.6490
    -1.6428  -1.6339  -1.6308  -1.6286  -1.6141  -1.6029  -1.5691  -1.5608
    -1.5580  -1.5528  -1.5434  -1.5313  -1.5271  -1.4004  -1.3960  -1.3829
    -1.3623  -1.2724  -1.2660  -1.2479  -1.2343  -1.2189  -1.2109  -1.2080
    -1.1897  -1.1851  -1.1822  -1.1773  -1.1726  -1.1692  -1.1679  -1.1626
    -1.1582  -1.1449  -1.1397  -1.1384  -1.1275  -1.1157  -1.1105  -1.1057
    -1.0999  -1.0866  -1.0781  -1.0387  -1.0273  -1.0011  -0.9871  -0.9839
    -0.9771  -0.9709  -0.9616  -0.9493  -0.9468  -0.9454  -0.9446  -0.9384
    -0.9043  -0.8884  -0.8834  -0.8824  -0.8741  -0.8703  -0.8680  -0.8371
    -0.8293  -0.8258  -0.8248  -0.8198  -0.8139  -0.8099  -0.8068  -0.7994
    -0.7819  -0.7569  -0.7492  -0.7447  -0.7371  -0.7272  -0.7194  -0.7149
    -0.7017  -0.6994  -0.6921  -0.6835  -0.6673  -0.6636  -0.6549  -0.6517
    -0.6485  -0.5788  -0.5725  -0.5382  -0.5361  -0.5315  -0.5301  -0.5292
    -0.5185  -0.5127  -0.5044  -0.5029  -0.5011  -0.4978  -0.4918  -0.4708
    -0.4602  -0.4554  -0.4450  -0.4401  -0.4353  -0.4298  -0.4244  -0.4084
    -0.4076  -0.4068  -0.4008  -0.3989  -0.3897  -0.3759  -0.3657  -0.3597
    -0.3575  -0.3556  -0.3512  -0.3494  -0.3170  -0.3080  -0.3048  -0.2953
    -0.2836  -0.2781  -0.2665  -0.2476  -0.2354  -0.2305  -0.2188  -0.2164
    -0.2146  -0.2135  -0.2116  -0.2092  -0.2000  -0.1946  -0.1871  -0.1834
    -0.1707  -0.1638  -0.1618  -0.1588  -0.1570  -0.1532  -0.1478  -0.1441
    -0.1413  -0.1319  -0.1241  -0.1169  -0.1147  -0.1099  -0.1065  -0.1002
    -0.0926  -0.0868  -0.0740  -0.0677  -0.0629  -0.0574  -0.0545  -0.0500
    -0.0469  -0.0449  -0.0385  -0.0308  -0.0227  -0.0190  -0.0059   0.0003
     0.0063   0.0096   0.0139   0.0145   0.0224   0.0283   0.0332   0.0401
     0.0475   0.0598   0.0684   0.0712   0.0851   0.0901   0.0940   0.0972
     0.1039   0.1110   0.1131   0.1228   0.1274   0.1337   0.1401   0.1440
     0.1453   0.1501   0.1652   0.1667   0.1737   0.1778   0.1859   0.1913
     0.1982   0.2032   0.2084   0.2134   0.2201   0.2243   0.2254   0.2294
     0.2313   0.2384   0.2482   0.2686   0.2733   0.2826   0.2850   0.2915
     0.2932   0.2948   0.3049   0.3095   0.3197   0.3290   0.3378   0.3474
     0.3662   0.3717   0.3755   0.3819   0.3956   0.4100   0.4157   0.4400
     0.4434   0.4471   0.4673   0.4772   0.4825   0.4864   0.4952   0.4967
     0.5004   0.5053   0.5110   0.5152   0.5192   0.5258   0.5349   0.5359
     0.5402   0.5498   0.5576   0.5623   0.5669   0.5686   0.5736   0.5759
     0.5784   0.5852   0.5909   0.5955   0.5980   0.6025   0.6050   0.6090
     0.6103   0.6105   0.6132   0.6168   0.6222   0.6249   0.6294   0.6335
     0.6371   0.6418   0.6473   0.6559   0.6589   0.6610   0.6659   0.6694
     0.6743   0.6801   0.6819   0.6865   0.6941   0.7025   0.7099   0.7152
     0.7186   0.7212   0.7251   0.7328   0.7359   0.7403   0.7407   0.7497
     0.7562   0.7602   0.7662   0.7674   0.7711   0.7771   0.7803   0.7851
     0.7922   0.8052   0.8091   0.8115   0.8130   0.8220   0.8313   0.8384
     0.8411   0.8456   0.8540   0.8620   0.8698   0.8719   0.8741   0.8766
     0.8887   0.9074   0.9129   0.9153   0.9491   0.9530   0.9600   0.9626
     0.9715   0.9759   0.9794   0.9867   0.9891   0.9958   0.9988   1.0009
     1.0022   1.0059   1.0085   1.0112   1.0132   1.0155   1.0189   1.0225
     1.0314   1.0369   1.0389   1.0405   1.0408   1.0462   1.0475   1.0498
     1.0544   1.0594   1.0601   1.0622   1.0633   1.0662   1.0689   1.0735
     1.0770   1.0824   1.0883   1.0897   1.0952   1.0965   1.1064   1.1086
     1.1102   1.1132   1.1158   1.1191   1.1215   1.1232   1.1291   1.1328
     1.1386   1.1596   1.1631   1.1664   1.1719   1.1814   1.2035   1.2103
     1.2109   1.2234   1.2284   1.2330   1.2410   1.2526   1.2533   1.2577
     1.2589   1.2610   1.2653   1.2692   1.2745   1.2754   1.2776   1.2785
     1.2816   1.2832   1.2869   1.2890   1.2957   1.2967   1.3013   1.3029
     1.3038   1.3085   1.3124   1.3136   1.3182   1.3196   1.3285   1.3366
     1.3391   1.3398   1.3458   1.3497   1.3511   1.3571   1.3611   1.3685
     1.3692   1.3722   1.3773   1.3835   1.3844   1.3876   1.3908   1.3956
     1.4037   1.4079   1.4114   1.4137   1.4151   1.4318   1.4363   1.4404
     1.4426   1.4500   1.4510   1.4548   1.4590   1.4610   1.4655   1.4672
     1.4722   1.4773   1.4799   1.4810   1.4839   1.5037   1.5076   1.5117
     1.5167   1.5193   1.5227   1.5254   1.5265   1.5286   1.5307   1.5341
     1.5413   1.5526   1.5578   1.5596   1.5653   1.5679   1.5689   1.5706
     1.5843   1.5875   1.5890   1.5896   1.5956   1.6051   1.6083   1.6390
     1.6438   1.6468   1.6486   1.6540   1.6571   1.7295   1.7386   1.7455
     1.8062   1.8138   1.8363   1.8436   1.8439   1.8466   1.8585   1.8770
     1.8918   1.8975   1.8996   1.9109   1.9164   1.9436   2.0628   2.0774
     2.3026   2.3082   2.3603   2.4303   2.4353   2.4650   2.4914   2.5580
     2.5772   2.5848   2.5948   2.6159   2.6552   2.6644   2.6704   2.7488
     2.7809   2.7867   2.7961   2.8203   2.9294   2.9995   3.0064   3.1702
     3.2007   3.2439   3.2446   3.2895   3.5906   3.7215   3.7474   3.9204
     3.9962   4.0312   4.0491   4.1583   4.2403   4.2524   4.2768   4.3106
     4.3422   4.3548   4.3711   4.4381   4.4503   4.5323   4.6338   4.6814
     5.0446   5.0933   5.1554   5.1922   5.2754   5.3494   5.3894   5.4155
     5.4258   5.4579   5.5376   5.6627   5.7789   5.8273   5.8883   6.0276
     6.0998   6.1363   6.1537   6.2584   6.2792   6.3062   6.3147   6.4677
     6.5139   6.6332   6.6449   6.7396   6.7924   6.8337   6.8383   7.0058
     7.0377   7.1060   7.1199   7.1335   7.1736   7.1892   7.2091   7.2313
     7.2673   7.3633   7.3764   7.4155   7.4414   7.5164   7.6158   7.6863
     7.7408   7.8797   7.9343   7.9480   8.0424   8.1755   8.2092   8.2605
     8.2705   8.4157   8.4253   8.4382   8.4519   8.4802   8.5310   8.5645
     8.6312   8.6677   8.6779   8.7294   8.7389   8.7792   8.7874   8.7929
     8.8439   8.8695   8.9718   9.0392   9.0713   9.1178   9.1492   9.2045
     9.2493   9.3338   9.3658   9.3721   9.3904   9.4007   9.4044   9.4353
     9.4505   9.4810   9.4835   9.4873   9.5583   9.5630   9.5799   9.7283
     9.8762   9.8779   9.9703   9.9722  10.0173

          k = 0.2500 0.0000 0.0000 (256240 PWs)   bands (ev):

   -20.2825 -16.8252 -15.7060 -15.5239 -15.2369 -14.7256 -14.5747 -14.5337
   -14.4770 -13.7059 -13.5495 -13.3527 -12.8677 -12.7913 -12.6951 -12.6063
   -11.9837 -11.8634 -11.7492 -11.6769 -10.9447 -10.7644 -10.3976 -10.2563
   -10.0858  -9.8278  -9.5578  -9.5284  -9.1005  -8.8534  -8.7579  -8.4056
    -7.6721  -7.4568  -7.3974  -7.2225  -7.2018  -7.0955  -6.8106  -6.6999
    -6.5857  -5.9802  -5.8419  -5.7051  -5.6649  -5.5917  -5.5240  -5.1857
    -5.1823  -5.1421  -4.9902  -4.7100  -4.6166  -4.5889  -4.3918  -4.3098
    -4.2748  -4.2435  -4.2235  -4.1239  -4.0341  -4.0136  -3.9256  -3.8719
    -3.8316  -3.8242  -3.7942  -3.7108  -3.6924  -3.6417  -3.5221  -3.4870
    -3.3755  -3.3336  -3.3203  -3.2943  -3.1752  -3.1346  -3.1287  -3.1083
    -3.0561  -2.9714  -2.9602  -2.9149  -2.9048  -2.8006  -2.7845  -2.6958
    -2.6793  -2.6764  -2.5818  -2.4933  -2.4185  -2.3824  -2.2880  -2.2653
    -2.2489  -2.1999  -2.1910  -2.1171  -2.0826  -1.9866  -1.9817  -1.9702
    -1.9615  -1.9330  -1.8432  -1.8100  -1.8006  -1.7550  -1.7086  -1.6981
    -1.6971  -1.6944  -1.6922  -1.6869  -1.6838  -1.6668  -1.6572  -1.6512
    -1.6148  -1.5810  -1.5376  -1.5300  -1.5273  -1.5123  -1.4732  -1.4716
    -1.4693  -1.4667  -1.4633  -1.4620  -1.4515  -1.4409  -1.4195  -1.4107
    -1.4011  -1.3967  -1.3953  -1.3763  -1.2885  -1.2670  -1.2237  -1.2192
    -1.2093  -1.1852  -1.1543  -1.1517  -1.1412  -1.1389  -1.1336  -1.1312
    -1.1136  -1.0959  -1.0900  -1.0839  -1.0810  -1.0752  -1.0729  -1.0626
    -1.0347  -1.0328  -1.0262  -1.0234  -1.0118  -1.0070  -1.0033  -0.9938
    -0.9825  -0.9713  -0.9528  -0.9390  -0.9323  -0.9284  -0.9213  -0.9189
    -0.9156  -0.9099  -0.9063  -0.9024  -0.9021  -0.8980  -0.8961  -0.8915
    -0.8873  -0.8799  -0.8773  -0.8686  -0.8660  -0.8617  -0.8550  -0.8479
    -0.8312  -0.8041  -0.7992  -0.7957  -0.7593  -0.7528  -0.7144  -0.7125
    -0.7100  -0.7086  -0.6965  -0.6863  -0.6772  -0.6743  -0.6636  -0.6500
    -0.6457  -0.6426  -0.6372  -0.6300  -0.6242  -0.6129  -0.5348  -0.5259
    -0.5155  -0.5119  -0.4929  -0.4823  -0.4751  -0.4730  -0.4675  -0.4628
    -0.4550  -0.4528  -0.4477  -0.4387  -0.4330  -0.4286  -0.4174  -0.4112
    -0.4091  -0.4013  -0.3929  -0.3918  -0.3884  -0.3810  -0.3780  -0.3714
    -0.3695  -0.3622  -0.3297  -0.3242  -0.3139  -0.3094  -0.3037  -0.2936
    -0.2897  -0.2869  -0.2816  -0.2778  -0.2659  -0.2618  -0.2578  -0.2526
    -0.2509  -0.2297  -0.2224  -0.2173  -0.2118  -0.2008  -0.1962  -0.1940
    -0.1906  -0.1866  -0.1779  -0.1722  -0.1689  -0.1651  -0.1590  -0.1559
    -0.1517  -0.1377  -0.1217  -0.1184  -0.1147  -0.1066  -0.1000  -0.0963
    -0.0946  -0.0888  -0.0814  -0.0766  -0.0717  -0.0692  -0.0536  -0.0456
    -0.0369  -0.0300  -0.0243  -0.0154  -0.0076  -0.0008   0.0077   0.0161
     0.0248   0.0309   0.0457   0.0543   0.0577   0.0649   0.0703   0.0716
     0.0742   0.0788   0.0823   0.0899   0.0981   0.1002   0.1048   0.1071
     0.1102   0.1131   0.1140   0.1190   0.1267   0.1299   0.1373   0.1408
     0.1476   0.1542   0.1583   0.1717   0.1782   0.1832   0.1880   0.1957
     0.2053   0.2098   0.2143   0.2221   0.2252   0.2275   0.2368   0.2408
     0.2473   0.2607   0.2685   0.2907   0.2990   0.3169   0.3261   0.3335
     0.3432   0.3512   0.3547   0.3619   0.3653   0.3672   0.3730   0.3784
     0.3800   0.3841   0.3878   0.3911   0.3951   0.4047   0.4075   0.4113
     0.4145   0.4160   0.4228   0.4306   0.4369   0.4410   0.4487   0.4527
     0.4577   0.4683   0.4780   0.4815   0.4914   0.5014   0.5066   0.5100
     0.5218   0.5244   0.5286   0.5312   0.5372   0.5447   0.5527   0.5563
     0.5574   0.5629   0.5664   0.5726   0.5813   0.5858   0.5883   0.5913
     0.5935   0.5966   0.5982   0.6090   0.6121   0.6169   0.6250   0.6320
     0.6389   0.6428   0.6453   0.6503   0.6558   0.6614   0.6645   0.6682
     0.6735   0.6755   0.6830   0.6879   0.6900   0.6986   0.7035   0.7120
     0.7152   0.7192   0.7226   0.7254   0.7262   0.7320   0.7397   0.7419
     0.7479   0.7498   0.7623   0.7729   0.7834   0.7896   0.7966   0.8069
     0.8122   0.8229   0.8243   0.8288   0.8355   0.8401   0.8434   0.8456
     0.8492   0.8535   0.8625   0.8659   0.8703   0.8774   0.8931   0.9016
     0.9064   0.9141   0.9190   0.9247   0.9304   0.9328   0.9387   0.9421
     0.9443   0.9547   0.9592   0.9629   0.9672   0.9691   0.9707   0.9787
     0.9825   0.9860   0.9880   0.9919   0.9976   1.0022   1.0054   1.0143
     1.0172   1.0281   1.0368   1.0442   1.0495   1.0549   1.0645   1.0673
     1.0729   1.0814   1.0858   1.0880   1.0910   1.0940   1.0952   1.0968
     1.0998   1.1016   1.1083   1.1110   1.1145   1.1172   1.1225   1.1256
     1.1291   1.1364   1.1394   1.1412   1.1441   1.1485   1.1508   1.1531
     1.1585   1.1628   1.1685   1.1720   1.1774   1.1809   1.1852   1.1888
     1.1919   1.1946   1.1979   1.2006   1.2009   1.2039   1.2072   1.2079
     1.2159   1.2194   1.2248   1.2359   1.2400   1.2492   1.2630   1.2649
     1.2677   1.2691   1.2744   1.2816   1.2888   1.2951   1.3031   1.3074
     1.3142   1.3193   1.3255   1.3277   1.3311   1.3357   1.3368   1.3426
     1.3488   1.3503   1.3536   1.3565   1.3597   1.3678   1.3683   1.3705
     1.3754   1.3791   1.3820   1.3832   1.3865   1.3879   1.3909   1.3944
     1.3971   1.4054   1.4060   1.4080   1.4176   1.4216   1.4248   1.4297
     1.4307   1.4370   1.4462   1.4478   1.4527   1.4586   1.4678   1.4783
     1.4810   1.4826   1.4879   1.4913   1.4945   1.4988   1.5012   1.5026
     1.5083   1.5099   1.5111   1.5131   1.5147   1.5186   1.5233   1.5259
     1.5283   1.5330   1.5342   1.5364   1.5447   1.5493   1.5516   1.5566
     1.5589   1.5613   1.5660   1.5687   1.5755   1.5770   1.5814   1.5897
     1.6001   1.6026   1.6050   1.6209   1.6305   1.6434   1.6520   1.6781
     1.6919   1.6956   1.7071   1.7111   1.7224   1.7353   1.7944   1.8170
     1.8364   1.8464   1.8686   1.9107   1.9257   2.0834   2.1003   2.1082
     2.1130   2.1203   2.1324   2.1650   2.2329   2.2430   2.2541   2.4719
     2.6139   2.6178   2.6285   2.7034   3.0176   3.0581   3.0598   3.2340
     3.2565   3.2676   3.2922   3.2984   3.3004   3.4015   3.4848   3.5383
     3.6004   3.6285   3.6922   3.7408   3.7459   3.7591   3.7810   3.8464
     3.8744   3.8904   3.9664   3.9841   4.0259   4.0809   4.3286   4.3611
     4.3918   4.4119   4.6538   4.7204   4.7363   4.8407   4.8948   4.9086
     5.0103   5.1216   5.1735   5.2887   5.3180   5.3492   5.3704   5.4422
     5.4567   5.5045   5.5239   5.5496   5.5904   5.6281   5.6683   5.7044
     5.7361   5.7712   5.8705   5.9724   6.0077   6.0724   6.0808   6.0965
     6.1442   6.3396   6.4159   6.6788   6.7077   6.7635   6.7876   6.8487
     6.8571   6.9087   6.9415   7.0083   7.0351   7.0949   7.1051   7.1241
     7.1543   7.1728   7.1985   7.2261   7.2918   7.3527   7.4168   7.5287
     7.5930   7.6266   7.6824   7.7103   7.7491   7.7646   7.9164   8.0345
     8.0869   8.1297   8.1489   8.1912   8.2264   8.2523   8.2746   8.3029
     8.3249   8.3656   8.4281   8.4527   8.4959   8.5103   8.6452   8.7068
     8.9157   9.0026   9.0168   9.0237   9.0425   9.0760   9.1329   9.1502
     9.1943   9.2124   9.2621   9.2803   9.3122   9.3238   9.3874   9.4630
     9.5050   9.5205   9.5370   9.5687   9.6554   9.6686   9.6894   9.7630
     9.8110   9.8512   9.8644   9.8876   9.9342

          k = 0.2500-0.2165 0.0000 (256316 PWs)   bands (ev):

   -20.2825 -16.8249 -15.7492 -15.4434 -15.1212 -15.0318 -14.7588 -14.2897
   -14.1459 -13.8624 -13.7271 -13.3041 -12.8674 -12.8316 -12.7721 -12.3443
   -12.2443 -11.8296 -11.6878 -11.1210 -11.0428 -10.9474 -10.7886 -10.5581
   -10.1904  -9.4589  -9.3857  -9.0745  -9.0167  -8.7763  -8.7115  -8.3392
    -8.2488  -8.0985  -8.0458  -6.9131  -6.8137  -6.6936  -6.4871  -6.3120
    -6.2513  -6.1290  -6.0118  -5.9601  -5.8016  -5.7681  -5.5817  -5.5647
    -5.0657  -4.8869  -4.7497  -4.6860  -4.6199  -4.6076  -4.5466  -4.5251
    -4.4938  -4.2674  -4.2454  -4.2170  -4.1315  -4.0705  -3.9979  -3.8901
    -3.8396  -3.7753  -3.7525  -3.6154  -3.5179  -3.4495  -3.4213  -3.3349
    -3.3297  -3.3215  -3.2794  -3.2615  -3.2496  -3.1588  -3.0929  -3.0113
    -2.9967  -2.9251  -2.8782  -2.8057  -2.7982  -2.7833  -2.7807  -2.7548
    -2.7218  -2.6889  -2.6497  -2.5813  -2.5541  -2.4415  -2.4040  -2.2025
    -2.1886  -2.1612  -2.1179  -2.1003  -2.0594  -2.0579  -2.0494  -2.0312
    -1.9679  -1.9089  -1.9003  -1.8981  -1.8552  -1.8066  -1.7521  -1.7381
    -1.7055  -1.7020  -1.6947  -1.6644  -1.6436  -1.6123  -1.6085  -1.6012
    -1.5984  -1.5918  -1.5830  -1.5757  -1.5714  -1.5688  -1.5630  -1.5592
    -1.5547  -1.5496  -1.5337  -1.4849  -1.4658  -1.4632  -1.4011  -1.3623
    -1.3570  -1.2928  -1.2853  -1.2308  -1.2248  -1.1937  -1.1857  -1.1808
    -1.1738  -1.1617  -1.1602  -1.1579  -1.1508  -1.1493  -1.1450  -1.1419
    -1.1388  -1.1260  -1.1187  -1.1097  -1.0994  -1.0981  -1.0969  -1.0809
    -1.0753  -1.0662  -1.0611  -1.0369  -1.0350  -1.0252  -1.0091  -1.0077
    -1.0064  -1.0002  -0.9788  -0.9659  -0.9551  -0.9479  -0.9386  -0.9278
    -0.9199  -0.9119  -0.8994  -0.8957  -0.8922  -0.8831  -0.8712  -0.8680
    -0.8650  -0.8606  -0.8573  -0.8524  -0.8451  -0.8429  -0.8321  -0.8187
    -0.8156  -0.8030  -0.7825  -0.7636  -0.7592  -0.7413  -0.7102  -0.6983
    -0.6914  -0.6762  -0.6694  -0.6606  -0.6524  -0.6349  -0.6251  -0.6230
    -0.6173  -0.6129  -0.6091  -0.6049  -0.5993  -0.5955  -0.5847  -0.5561
    -0.5496  -0.5267  -0.5163  -0.5121  -0.5023  -0.4885  -0.4796  -0.4703
    -0.4677  -0.4617  -0.4560  -0.4470  -0.4429  -0.4230  -0.4157  -0.4113
    -0.4026  -0.3973  -0.3946  -0.3875  -0.3805  -0.3697  -0.3486  -0.3454
    -0.3383  -0.3311  -0.3241  -0.3224  -0.3183  -0.3073  -0.3044  -0.2948
    -0.2901  -0.2880  -0.2835  -0.2774  -0.2737  -0.2706  -0.2650  -0.2578
    -0.2535  -0.2431  -0.2390  -0.2322  -0.2245  -0.2188  -0.2182  -0.2047
    -0.1989  -0.1943  -0.1836  -0.1806  -0.1748  -0.1686  -0.1578  -0.1532
    -0.1484  -0.1452  -0.1373  -0.1316  -0.1211  -0.1130  -0.1042  -0.0896
    -0.0834  -0.0800  -0.0605  -0.0471  -0.0430  -0.0353  -0.0268  -0.0177
    -0.0137  -0.0122  -0.0082   0.0002   0.0082   0.0142   0.0171   0.0228
     0.0252   0.0386   0.0423   0.0476   0.0566   0.0609   0.0623   0.0690
     0.0762   0.0793   0.0811   0.0845   0.0873   0.0878   0.0918   0.0996
     0.1033   0.1062   0.1106   0.1126   0.1156   0.1201   0.1218   0.1343
     0.1460   0.1537   0.1615   0.1652   0.1677   0.1750   0.1881   0.1933
     0.2083   0.2130   0.2224   0.2279   0.2296   0.2371   0.2427   0.2437
     0.2497   0.2516   0.2564   0.2610   0.2697   0.2742   0.2804   0.3001
     0.3182   0.3293   0.3403   0.3437   0.3550   0.3595   0.3664   0.3715
     0.3759   0.3800   0.3862   0.3944   0.3966   0.4017   0.4066   0.4114
     0.4180   0.4225   0.4248   0.4279   0.4354   0.4377   0.4431   0.4499
     0.4558   0.4581   0.4646   0.4707   0.4800   0.4860   0.5002   0.5056
     0.5100   0.5124   0.5246   0.5284   0.5391   0.5452   0.5501   0.5573
     0.5627   0.5679   0.5729   0.5783   0.5809   0.5850   0.5897   0.5921
     0.5956   0.6064   0.6094   0.6144   0.6218   0.6439   0.6515   0.6576
     0.6666   0.6685   0.6708   0.6737   0.6811   0.6856   0.6923   0.6953
     0.6989   0.7033   0.7067   0.7093   0.7134   0.7228   0.7277   0.7335
     0.7396   0.7426   0.7448   0.7506   0.7529   0.7548   0.7571   0.7601
     0.7654   0.7678   0.7735   0.7762   0.7793   0.7846   0.7881   0.7905
     0.7928   0.7944   0.8011   0.8067   0.8117   0.8183   0.8314   0.8385
     0.8400   0.8446   0.8489   0.8577   0.8724   0.8786   0.8887   0.8944
     0.8973   0.9014   0.9089   0.9112   0.9168   0.9220   0.9249   0.9270
     0.9282   0.9344   0.9364   0.9390   0.9427   0.9456   0.9490   0.9601
     0.9674   0.9738   0.9803   0.9847   0.9883   0.9921   1.0006   1.0034
     1.0057   1.0084   1.0126   1.0191   1.0303   1.0390   1.0415   1.0449
     1.0467   1.0531   1.0564   1.0728   1.0744   1.0790   1.0839   1.0943
     1.0989   1.1115   1.1164   1.1218   1.1321   1.1415   1.1472   1.1565
     1.1591   1.1641   1.1663   1.1697   1.1736   1.1751   1.1782   1.1804
     1.1826   1.1837   1.1864   1.1879   1.1911   1.1948   1.2004   1.2058
     1.2099   1.2183   1.2244   1.2274   1.2316   1.2369   1.2381   1.2427
     1.2464   1.2506   1.2558   1.2570   1.2599   1.2622   1.2659   1.2676
     1.2723   1.2763   1.2780   1.2841   1.2848   1.2909   1.2929   1.2951
     1.2996   1.3004   1.3018   1.3064   1.3089   1.3136   1.3230   1.3275
     1.3384   1.3416   1.3431   1.3462   1.3485   1.3535   1.3577   1.3622
     1.3647   1.3757   1.3801   1.3875   1.3900   1.3940   1.3998   1.4046
     1.4076   1.4111   1.4148   1.4193   1.4215   1.4256   1.4317   1.4380
     1.4428   1.4463   1.4489   1.4510   1.4541   1.4576   1.4614   1.4647
     1.4693   1.4744   1.4806   1.4825   1.4850   1.4897   1.4911   1.4955
     1.4965   1.4984   1.5067   1.5080   1.5099   1.5120   1.5186   1.5219
     1.5250   1.5275   1.5318   1.5351   1.5369   1.5415   1.5523   1.5546
     1.5559   1.5608   1.5696   1.5787   1.5813   1.5861   1.5922   1.5945
     1.5963   1.6069   1.6185   1.6227   1.6263   1.6389   1.6557   1.6587
     1.7096   1.7208   1.7326   1.7414   1.7888   1.7996   1.8089   1.8171
     1.8229   1.8293   1.8334   1.8405   1.8460   1.8618   1.8877   2.0842
     2.1458   2.2000   2.2052   2.2243   2.2542   2.3303   2.4027   2.6564
     2.6631   2.7781   2.8073   2.8199   2.8281   2.8493   2.8656   2.8737
     2.9462   3.0357   3.0479   3.0555   3.1796   3.5011   3.5411   3.5436
     3.5709   3.6053   3.8000   3.8687   3.9026   3.9111   3.9629   4.0138
     4.0682   4.1111   4.1568   4.1797   4.2284   4.2387   4.4076   4.4233
     4.4856   4.5563   4.6451   4.6779   4.6975   4.7403   4.7792   4.8431
     4.8732   4.9492   4.9724   5.0518   5.1078   5.1512   5.1942   5.2130
     5.3706   5.4020   5.4231   5.4839   5.5055   5.5289   5.6614   5.7188
     5.8238   5.8479   5.8768   5.9112   6.1080   6.1432   6.1899   6.2284
     6.3422   6.4838   6.5436   6.6587   6.7093   6.7532   6.7811   6.8417
     6.8779   6.9136   6.9800   7.0434   7.0547   7.1049   7.1991   7.2315
     7.2607   7.2801   7.3280   7.3505   7.3920   7.4284   7.4599   7.4873
     7.5151   7.5776   7.6484   7.6754   7.7701   7.7757   7.8268   7.8741
     7.9074   7.9962   8.1592   8.2275   8.2684   8.3225   8.4157   8.4657
     8.5384   8.5839   8.5964   8.6186   8.6252   8.6519   8.6894   8.7371
     8.7573   8.8133   8.8373   8.8689   8.9085   8.9523   8.9966   9.0763
     9.1021   9.1863   9.2060   9.2153   9.2476   9.2651   9.3113   9.3224
     9.3311   9.3655   9.3979   9.4531   9.4665   9.5114   9.5283   9.5671
     9.6483   9.6524   9.8326   9.9544   9.9773

          k =-0.5000 0.0000 0.0000 (256496 PWs)   bands (ev):

   -20.2825 -16.7665 -15.5765 -15.3253 -15.1924 -15.1822 -15.1179 -14.4033
   -14.2151 -14.1078 -14.0756 -12.8388 -12.5405 -12.3998 -12.3372 -12.0494
   -12.0093 -11.4826 -11.4818 -11.3640 -11.3548 -10.8345 -10.8005 -10.7135
   -10.4949  -9.9267  -9.9163  -9.6828  -9.3476  -8.7980  -8.7906  -8.6127
    -8.5793  -7.5242  -7.3436  -7.3130  -7.1331  -7.0658  -7.0390  -6.8020
    -5.8965  -5.8738  -5.4456  -5.1870  -5.1779  -4.9219  -4.8018  -4.7086
    -4.6858  -4.6799  -4.6730  -4.5620  -4.5419  -4.5027  -4.4260  -4.3904
    -4.3579  -4.3402  -4.3038  -4.2975  -4.2222  -4.2096  -4.1487  -4.0780
    -4.0723  -4.0007  -3.8670  -3.7117  -3.6735  -3.6611  -3.5881  -3.5126
    -3.4629  -3.3769  -3.3662  -3.2981  -3.2953  -3.2927  -3.2780  -3.2715
    -3.1988  -3.1291  -3.1152  -3.0834  -3.0567  -3.0488  -2.9472  -2.5819
    -2.5743  -2.5588  -2.5534  -2.5358  -2.5307  -2.5252  -2.5109  -2.4779
    -2.4576  -2.2902  -2.2676  -2.2460  -2.1580  -2.1214  -1.9587  -1.9411
    -1.9064  -1.7750  -1.7726  -1.7690  -1.7663  -1.7655  -1.7571  -1.6929
    -1.6830  -1.6693  -1.6555  -1.5568  -1.5476  -1.5460  -1.5437  -1.5408
    -1.5370  -1.5012  -1.4989  -1.4883  -1.4807  -1.4370  -1.4183  -1.4030
    -1.3955  -1.3790  -1.3247  -1.3214  -1.3177  -1.3127  -1.3068  -1.3018
    -1.2751  -1.2625  -1.2570  -1.2484  -1.2477  -1.2453  -1.2424  -1.2356
    -1.2301  -1.2228  -1.2209  -1.2116  -1.2042  -1.1997  -1.1959  -1.1755
    -1.1716  -1.1658  -1.1633  -1.1609  -1.1521  -1.1121  -1.1090  -1.1044
    -1.0854  -1.0845  -1.0810  -1.0741  -1.0700  -1.0660  -1.0513  -1.0440
    -1.0315  -1.0232  -1.0117  -1.0095  -1.0046  -0.9958  -0.9938  -0.9761
    -0.9733  -0.9615  -0.9558  -0.9186  -0.9066  -0.8904  -0.8824  -0.8776
    -0.8747  -0.8653  -0.8627  -0.8590  -0.8516  -0.8306  -0.8281  -0.8262
    -0.8236  -0.8227  -0.8179  -0.8153  -0.8107  -0.8076  -0.8053  -0.7974
    -0.7433  -0.7346  -0.7339  -0.7317  -0.7298  -0.7023  -0.6968  -0.6269
    -0.6121  -0.6098  -0.6066  -0.5941  -0.5842  -0.5795  -0.5764  -0.5698
    -0.5680  -0.5651  -0.5385  -0.5340  -0.5243  -0.5216  -0.5177  -0.5107
    -0.5088  -0.5071  -0.5041  -0.5038  -0.4883  -0.4860  -0.4709  -0.4686
    -0.4117  -0.3914  -0.3745  -0.3649  -0.3490  -0.3453  -0.3382  -0.3347
    -0.3250  -0.3186  -0.3149  -0.3146  -0.3113  -0.3083  -0.2887  -0.2874
    -0.2830  -0.2801  -0.2667  -0.2497  -0.2449  -0.2416  -0.2373  -0.2287
    -0.2192  -0.2164  -0.2155  -0.2075  -0.2062  -0.2038  -0.1991  -0.1950
    -0.1939  -0.1873  -0.1636  -0.1588  -0.1492  -0.1471  -0.1373  -0.1184
    -0.1144  -0.1103  -0.0994  -0.0853  -0.0690  -0.0620  -0.0576  -0.0573
    -0.0516  -0.0460  -0.0411  -0.0353  -0.0271  -0.0202  -0.0148  -0.0018
     0.0025   0.0140   0.0251   0.0284   0.0359   0.0462   0.0495   0.0528
     0.0574   0.0618   0.0628   0.0671   0.0697   0.0730   0.0739   0.0819
     0.1053   0.1255   0.1287   0.1452   0.1511   0.1561   0.1571   0.1603
     0.1634   0.1642   0.1694   0.1724   0.1737   0.1761   0.1775   0.1808
     0.1833   0.1858   0.1894   0.1949   0.1961   0.1981   0.2017   0.2048
     0.2090   0.2112   0.2126   0.2174   0.2206   0.2287   0.2312   0.2328
     0.2384   0.2437   0.2481   0.2534   0.2633   0.2757   0.2794   0.2877
     0.2949   0.3105   0.3317   0.3423   0.3523   0.3712   0.3756   0.3814
     0.3900   0.4048   0.4073   0.4154   0.4185   0.4226   0.4245   0.4330
     0.4365   0.4423   0.4441   0.4495   0.4526   0.4571   0.4636   0.4650
     0.4688   0.4731   0.4771   0.4799   0.4822   0.4853   0.4884   0.4894
     0.4931   0.5013   0.5048   0.5183   0.5531   0.5561   0.5755   0.5798
     0.5826   0.5866   0.5917   0.5960   0.5976   0.6039   0.6093   0.6127
     0.6151   0.6188   0.6206   0.6231   0.6250   0.6256   0.6324   0.6337
     0.6357   0.6378   0.6416   0.6459   0.6494   0.6501   0.6531   0.6641
     0.6706   0.6748   0.6832   0.6955   0.6995   0.7021   0.7100   0.7135
     0.7155   0.7172   0.7215   0.7265   0.7280   0.7305   0.7335   0.7361
     0.7373   0.7420   0.7434   0.7442   0.7523   0.7549   0.7623   0.7744
     0.7853   0.7904   0.7932   0.7963   0.8055   0.8073   0.8111   0.8157
     0.8167   0.8254   0.8376   0.8419   0.8472   0.8546   0.8621   0.8674
     0.8720   0.8877   0.8906   0.9020   0.9058   0.9095   0.9101   0.9120
     0.9135   0.9168   0.9188   0.9288   0.9345   0.9374   0.9451   0.9481
     0.9508   0.9518   0.9555   0.9634   0.9664   0.9707   0.9732   0.9774
     0.9793   0.9885   0.9908   0.9966   1.0004   1.0054   1.0124   1.0157
     1.0278   1.0440   1.0659   1.0734   1.0754   1.0861   1.0920   1.0962
     1.1000   1.1024   1.1086   1.1140   1.1204   1.1229   1.1351   1.1399
     1.1502   1.1546   1.1564   1.1639   1.1666   1.1719   1.1757   1.1810
     1.1851   1.1880   1.1919   1.1939   1.1966   1.1993   1.2034   1.2044
     1.2099   1.2116   1.2134   1.2174   1.2214   1.2231   1.2279   1.2320
     1.2328   1.2349   1.2424   1.2452   1.2497   1.2533   1.2581   1.2604
     1.2769   1.2786   1.2843   1.2872   1.2931   1.2987   1.3044   1.3080
     1.3091   1.3130   1.3146   1.3166   1.3184   1.3198   1.3205   1.3221
     1.3245   1.3295   1.3309   1.3545   1.3633   1.3698   1.3735   1.3766
     1.3777   1.3789   1.3825   1.3828   1.3855   1.3866   1.3869   1.3897
     1.3974   1.3985   1.4024   1.4049   1.4073   1.4093   1.4111   1.4131
     1.4152   1.4185   1.4207   1.4229   1.4288   1.4306   1.4327   1.4343
     1.4357   1.4389   1.4419   1.4502   1.4647   1.4695   1.4798   1.4806
     1.4818   1.4867   1.4909   1.4927   1.4949   1.4988   1.5042   1.5066
     1.5097   1.5121   1.5143   1.5165   1.5195   1.5230   1.5301   1.5327
     1.5359   1.5397   1.5460   1.5526   1.5587   1.5599   1.5628   1.5675
     1.5726   1.5796   1.5830   1.5875   1.5880   1.5901   1.5936   1.5986
     1.6169   1.6211   1.6422   1.6491   1.6537   1.6670   1.6728   1.6785
     1.6835   1.6936   1.7717   2.0578   2.0623   2.0749   2.1232   2.2450
     2.2796   2.3136   2.3467   2.3629   2.3645   2.3714   2.3910   2.5804
     2.5919   2.6179   2.8214   2.8833   2.8926   2.9013   3.0306   3.2532
     3.2678   3.2702   3.2817   3.4938   3.5364   3.6605   3.7147   3.7510
     3.8115   3.8908   3.9043   3.9659   3.9735   4.0532   4.0952   4.1308
     4.1399   4.1662   4.2393   4.2884   4.5616   4.6087   4.6276   4.7579
     4.7758   4.8026   4.8218   4.9041   4.9134   4.9353   4.9747   4.9858
     5.0152   5.0826   5.0905   5.0994   5.1129   5.1220   5.1341   5.1413
     5.1636   5.2298   5.3494   5.4172   5.4628   5.4763   5.4927   5.5477
     5.5776   5.6092   5.6302   5.8023   5.8488   5.9616   5.9882   6.0241
     6.0337   6.0466   6.0562   6.0823   6.1167   6.2351   6.2563   6.3160
     6.4137   6.4383   6.5472   6.6736   6.6942   6.7192   6.7756   7.0741
     7.1041   7.1128   7.1758   7.2067   7.3235   7.5803   7.5833   7.6338
     7.6404   7.6588   7.6598   7.6891   7.7451   7.8380   7.8620   7.9180
     7.9312   7.9628   7.9776   7.9907   8.0053   8.0495   8.0729   8.0929
     8.1059   8.1931   8.1965   8.3334   8.6563   8.6905   8.7157   8.7521
     8.7934   8.8258   8.8551   8.8735   8.8980   9.0097   9.0158   9.0230
     9.0385   9.1344   9.1427   9.2325   9.3275   9.3639   9.4499   9.4617
     9.4976   9.4981   9.5082   9.5175   9.5187   9.5315   9.5394   9.5834
     9.5923   9.6217   9.7525   9.8165   9.8836

          k =-0.5000-0.2165 0.0000 (256328 PWs)   bands (ev):

   -20.2825 -16.7664 -15.5468 -15.3908 -15.3614 -14.9573 -14.8016 -14.7294
   -14.6944 -13.6718 -13.4538 -13.3234 -13.2839 -12.2726 -12.0302 -11.6253
   -11.5684 -11.5378 -11.4141 -11.3393 -11.2584 -11.1342 -11.1185 -11.0068
   -10.9814  -9.6734  -9.6383  -9.3790  -9.3469  -8.9197  -8.5570  -8.4635
    -8.4157  -7.9446  -7.9182  -7.6892  -7.6850  -6.8074  -6.2578  -5.9468
    -5.8449  -5.6589  -5.5281  -5.3141  -5.0716  -5.0588  -5.0492  -5.0435
    -5.0342  -4.9576  -4.9458  -4.7962  -4.5636  -4.5566  -4.5449  -4.4037
    -4.0993  -4.0948  -4.0735  -4.0716  -4.0575  -4.0400  -4.0256  -4.0153
    -3.9786  -3.8631  -3.8151  -3.8043  -3.7627  -3.7301  -3.5842  -3.5730
    -3.5379  -3.4580  -3.4210  -3.4129  -3.3705  -3.3367  -3.3154  -3.3081
    -3.3061  -3.1444  -3.1308  -3.1112  -3.0799  -2.8627  -2.6792  -2.6553
    -2.5301  -2.4787  -2.4754  -2.4657  -2.4604  -2.4594  -2.4538  -2.4355
    -2.3643  -2.3248  -2.2828  -2.1451  -2.0841  -1.9735  -1.9710  -1.9698
    -1.9648  -1.9634  -1.9539  -1.9337  -1.8712  -1.8277  -1.7839  -1.7412
    -1.7077  -1.6915  -1.6912  -1.6752  -1.6729  -1.5017  -1.4955  -1.4911
    -1.4819  -1.4149  -1.3977  -1.3949  -1.3917  -1.3884  -1.3858  -1.3816
    -1.3774  -1.3418  -1.3370  -1.3357  -1.3319  -1.3120  -1.2933  -1.2871
    -1.2774  -1.2764  -1.2743  -1.2713  -1.2706  -1.2652  -1.2611  -1.2545
    -1.2505  -1.2479  -1.2076  -1.2042  -1.1977  -1.1949  -1.1791  -1.1702
    -1.1503  -1.1354  -1.1095  -1.1040  -1.1008  -1.0961  -1.0828  -1.0817
    -1.0783  -1.0705  -1.0559  -1.0513  -1.0502  -1.0440  -1.0429  -1.0412
    -1.0317  -1.0246  -1.0243  -1.0147  -1.0096  -1.0025  -0.9828  -0.9801
    -0.9749  -0.9697  -0.9647  -0.9608  -0.9551  -0.9491  -0.9407  -0.9385
    -0.9362  -0.9314  -0.9288  -0.9229  -0.9188  -0.9150  -0.8138  -0.8047
    -0.8005  -0.7792  -0.7735  -0.7676  -0.7650  -0.7572  -0.7514  -0.7512
    -0.7509  -0.7014  -0.6905  -0.6830  -0.6802  -0.6736  -0.6697  -0.6644
    -0.6629  -0.6569  -0.6564  -0.6533  -0.6499  -0.6099  -0.6089  -0.6020
    -0.5991  -0.5977  -0.5882  -0.5860  -0.5797  -0.5772  -0.5722  -0.5513
    -0.5433  -0.5117  -0.4820  -0.4661  -0.4578  -0.4536  -0.4482  -0.4428
    -0.4379  -0.4283  -0.4149  -0.3998  -0.3963  -0.3754  -0.3608  -0.3587
    -0.3540  -0.3487  -0.3420  -0.3320  -0.3275  -0.3220  -0.3151  -0.3044
    -0.3009  -0.2951  -0.2888  -0.2856  -0.2769  -0.2500  -0.2279  -0.2172
    -0.2130  -0.2112  -0.1926  -0.1874  -0.1745  -0.1651  -0.1630  -0.1597
    -0.1578  -0.1543  -0.1525  -0.1460  -0.1385  -0.1243  -0.0970  -0.0922
    -0.0862  -0.0826  -0.0731  -0.0700  -0.0684  -0.0645  -0.0611  -0.0595
    -0.0583  -0.0477  -0.0393  -0.0387  -0.0376  -0.0308  -0.0286  -0.0202
    -0.0180  -0.0163  -0.0116  -0.0048  -0.0031   0.0080   0.0158   0.0235
     0.0496   0.0551   0.0626   0.0683   0.0760   0.1064   0.1126   0.1230
     0.1305   0.1358   0.1399   0.1428   0.1446   0.1455   0.1510   0.1588
     0.1635   0.1678   0.1710   0.1742   0.1789   0.1799   0.1854   0.1899
     0.1948   0.1982   0.2008   0.2014   0.2039   0.2048   0.2066   0.2087
     0.2122   0.2150   0.2196   0.2241   0.2332   0.2394   0.2477   0.2519
     0.2582   0.2631   0.2717   0.2793   0.2854   0.2917   0.3024   0.3068
     0.3098   0.3163   0.3197   0.3333   0.3379   0.3432   0.3460   0.3774
     0.3895   0.4037   0.4064   0.4137   0.4171   0.4323   0.4413   0.4455
     0.4471   0.4565   0.4588   0.4652   0.4697   0.4750   0.4765   0.4805
     0.4851   0.4897   0.4971   0.4997   0.5116   0.5210   0.5266   0.5318
     0.5368   0.5393   0.5483   0.5489   0.5508   0.5536   0.5546   0.5589
     0.5635   0.5687   0.5712   0.5773   0.5809   0.5842   0.5879   0.5955
     0.6018   0.6089   0.6186   0.6236   0.6305   0.6335   0.6355   0.6405
     0.6452   0.6498   0.6551   0.6582   0.6609   0.6637   0.6702   0.6718
     0.6799   0.6820   0.6846   0.6892   0.6922   0.6929   0.6997   0.7029
     0.7055   0.7104   0.7132   0.7189   0.7196   0.7320   0.7359   0.7471
     0.7576   0.7598   0.7634   0.7641   0.7707   0.7762   0.7771   0.7826
     0.7886   0.7925   0.7949   0.8014   0.8053   0.8102   0.8121   0.8169
     0.8180   0.8210   0.8228   0.8276   0.8317   0.8402   0.8459   0.8587
     0.8618   0.8724   0.8887   0.8890   0.8950   0.8950   0.9036   0.9091
     0.9248   0.9288   0.9355   0.9391   0.9476   0.9480   0.9492   0.9518
     0.9568   0.9781   0.9954   0.9971   1.0073   1.0107   1.0171   1.0194
     1.0256   1.0285   1.0401   1.0467   1.0524   1.0587   1.0616   1.0668
     1.0732   1.0767   1.0806   1.0859   1.0879   1.0955   1.0996   1.1052
     1.1081   1.1103   1.1138   1.1169   1.1194   1.1205   1.1209   1.1220
     1.1264   1.1269   1.1314   1.1327   1.1342   1.1374   1.1403   1.1406
     1.1481   1.1573   1.1622   1.1641   1.1669   1.1687   1.1752   1.1800
     1.1812   1.1876   1.1922   1.1974   1.1984   1.2017   1.2053   1.2099
     1.2133   1.2157   1.2175   1.2219   1.2296   1.2395   1.2643   1.2676
     1.2693   1.2728   1.2763   1.2773   1.2784   1.2825   1.2862   1.2866
     1.2941   1.2974   1.3007   1.3027   1.3057   1.3075   1.3114   1.3143
     1.3394   1.3439   1.3503   1.3510   1.3562   1.3575   1.3595   1.3607
     1.3623   1.3647   1.3656   1.3668   1.3856   1.3929   1.4021   1.4041
     1.4123   1.4170   1.4185   1.4274   1.4279   1.4300   1.4327   1.4337
     1.4351   1.4366   1.4381   1.4391   1.4397   1.4442   1.4456   1.4476
     1.4487   1.4510   1.4537   1.4608   1.4652   1.4680   1.4692   1.4697
     1.4723   1.4757   1.4766   1.4782   1.4836   1.4857   1.4905   1.4969
     1.5048   1.5120   1.5152   1.5163   1.5197   1.5232   1.5339   1.5377
     1.5387   1.5503   1.5511   1.5576   1.5748   1.5756   1.5788   1.5817
     1.5872   1.6020   1.6059   1.6086   1.6113   1.6345   1.6447   1.6466
     1.6514   1.6527   1.6567   1.6586   1.6668   1.6736   1.6774   1.6855
     1.6907   1.6965   1.6974   1.7007   1.8192   1.8976   1.8999   1.9032
     1.9906   2.3154   2.3197   2.3475   2.5173   2.6298   2.6372   2.6479
     2.6590   2.8073   2.8208   2.8337   2.8785   3.0540   3.0590   3.0979
     3.3413   3.5181   3.5318   3.5385   3.5487   3.6395   3.6900   3.6926
     3.7303   3.9917   4.0103   4.0177   4.0216   4.1504   4.1661   4.2108
     4.2320   4.2749   4.3016   4.3086   4.3394   4.3998   4.4855   4.5068
     4.5726   4.6508   4.6908   4.7050   4.7479   4.7629   4.9601   5.0414
     5.0643   5.1260   5.1454   5.1688   5.1822   5.2025   5.2297   5.2315
     5.2533   5.2725   5.2972   5.3054   5.3469   5.4321   5.4467   5.4903
     5.5185   5.6619   5.6679   5.7124   5.7392   5.7793   5.7937   5.8144
     5.8270   5.8421   5.9806   6.0128   6.0666   6.2446   6.3841   6.7695
     6.7956   6.9914   7.0129   7.0692   7.0728   7.0942   7.1004   7.1206
     7.1480   7.1694   7.1920   7.2096   7.2339   7.3217   7.3402   7.4113
     7.4301   7.4541   7.4799   7.5073   7.5214   7.6483   7.7869   7.8221
     7.9311   7.9419   8.0745   8.1091   8.1576   8.1854   8.2313   8.2554
     8.2661   8.2875   8.3700   8.3912   8.4051   8.4391   8.7075   8.8783
     8.9026   8.9203   8.9370   8.9545   8.9811   8.9895   8.9989   9.0227
     9.0409   9.1243   9.1287   9.1481   9.1593   9.1651   9.2541   9.3294
     9.3421   9.3438   9.3646   9.4384   9.4478   9.4582   9.4595   9.5064
     9.5193   9.6723   9.8176   9.8813   9.9742

     the Fermi energy is     3.3941 ev

!    total energy              =  -12750.20336533 Ry
     Harris-Foulkes estimate   =  -12750.20336534 Ry
     estimated scf accuracy    <          6.0E-09 Ry

     The total energy is the sum of the following terms:

     one-electron contribution = -100082.72936741 Ry
     hartree contribution      =   51411.98294991 Ry
     xc contribution           =   -4456.64150678 Ry
     ewald contribution        =   40383.36117967 Ry
     Dispersion Correction     =      -2.79637894 Ry
     smearing contrib. (-TS)   =      -3.38024178 Ry

     convergence has been achieved in  44 iterations

     Writing output data file gc.save
 
     init_run     :    185.59s CPU    199.17s WALL (       1 calls)
     electrons    :  25122.78s CPU  26710.21s WALL (       1 calls)

     Called by init_run:
     wfcinit      :    182.85s CPU    195.45s WALL (       1 calls)
     potinit      :      0.79s CPU      0.91s WALL (       1 calls)

     Called by electrons:
     c_bands      :  23060.62s CPU  24478.26s WALL (      44 calls)
     sum_band     :   1677.90s CPU   1792.50s WALL (      44 calls)
     v_of_rho     :      5.25s CPU      6.64s WALL (      45 calls)
     newd         :     14.80s CPU     28.02s WALL (      45 calls)
     mix_rho      :    364.14s CPU    404.89s WALL (      44 calls)

     Called by c_bands:
     init_us_2    :     82.03s CPU     83.29s WALL (     534 calls)
     cegterg      :  22728.05s CPU  24132.10s WALL (     274 calls)

     Called by sum_band:
     sum_band:bec :      4.71s CPU      5.31s WALL (     264 calls)
     addusdens    :     21.96s CPU     33.58s WALL (      44 calls)

     Called by *egterg:
     h_psi        :   8055.17s CPU   8666.42s WALL (    1987 calls)
     s_psi        :   2006.40s CPU   2018.52s WALL (    1987 calls)
     g_psi        :     22.22s CPU     22.33s WALL (    1707 calls)
     cdiaghg      :   6749.69s CPU   7086.33s WALL (    1971 calls)

     Called by h_psi:
     add_vuspsi   :   2011.21s CPU   2025.42s WALL (    1987 calls)

     General routines
     calbec       :   2695.63s CPU   2717.16s WALL (    2251 calls)
     fft          :      4.54s CPU      5.63s WALL (     584 calls)
     ffts         :    153.48s CPU    182.28s WALL (   23397 calls)
     fftw         :   3903.27s CPU   4442.09s WALL ( 1346522 calls)
     davcio       :      0.19s CPU      8.69s WALL (       6 calls)
 
     Parallel routines
     fft_scatter  :   1934.19s CPU   2233.47s WALL ( 1370503 calls)
 
     PWSCF        :     7h 1m CPU        7h28m WALL

 
   This run was terminated on:  15:12:39   5Oct2017            

=------------------------------------------------------------------------------=
   JOB DONE.
=------------------------------------------------------------------------------=
