mpirun: INFO: switching to OpenMPI runtime version 1.10.2

     Program PWSCF v.5.4.0 starts on  8Sep2017 at 14:52:54 

     This program is part of the open-source Quantum ESPRESSO suite
     for quantum simulation of materials; please cite
         "P. Giannozzi et al., J. Phys.:Condens. Matter 21 395502 (2009);
          URL http://www.quantum-espresso.org", 
     in publications or presentations arising from this work. More details at
     http://www.quantum-espresso.org/quote

     Parallel version (MPI & OpenMP), running on      28 processor cores
     Number of MPI processes:                28
     Threads/MPI process:                     1
     R & G space division:  proc/nbgrp/npool/nimage =      28
     Waiting for input...
     Reading input from standard input
Warning: card &IONS ignored
Warning: card / ignored

     Current dimensions of program PWSCF are:
     Max number of different atomic species (ntypx) = 10
     Max number of k-points (npk) =  40000
     Max angular momentum in pseudopotentials (lmaxx) =  3
     WARNING: atomic wfc #  2 for atom type 4 has zero norm
     WARNING: atomic wfc #  4 for atom type 4 has zero norm
     WARNING: atomic wfc #  5 for atom type 4 has zero norm

     -------------------------------------
     Parameters for Dispersion Correction:
     -------------------------------------
       atom      VdW radius       C_6     

        Cu         2.952        374.666
        C_h        2.744         60.710
        C          2.744         60.710
        O          2.536         24.284
        H          1.892          4.857

     Subspace diagonalization in iterative solution of the eigenvalue problem:
     one sub-group per band group will be used
     scalapack distributed-memory algorithm (size of sub-group:  3*  3 procs)

 
     Parallelization info
     --------------------
     sticks:   dense  smooth     PW     G-vecs:    dense   smooth      PW
     Min         408     408    108                73226    73226    9928
     Max         410     410    109                73231    73231    9931
     Sum       11433   11433   3039              2050409  2050409  278033
 


     bravais-lattice index     =            0
     lattice parameter (alat)  =      13.9425  a.u.
     unit-cell volume          =   21209.0878 (a.u.)^3
     number of atoms/cell      =          136
     number of atomic types    =            5
     number of electrons       =      1226.00
     number of Kohn-Sham states=          736
     kinetic-energy cutoff     =      80.0000  Ry
     charge density cutoff     =     320.0000  Ry
     convergence threshold     =      1.0E-08
     mixing beta               =       0.7000
     number of iterations used =            8  local-TF  mixing
     Exchange-correlation      =  SLA  PW   PBE  PBE ( 1  4  3  4 0 0)

     celldm(1)=  13.942539  celldm(2)=   0.000000  celldm(3)=   0.000000
     celldm(4)=   0.000000  celldm(5)=   0.000000  celldm(6)=   0.000000

     crystal axes: (cart. coord. in units of alat)
               a(1) = (   1.000000   0.000000   0.000000 )  
               a(2) = (   0.000000   2.309401   0.000000 )  
               a(3) = (   0.000000   0.000000   3.388418 )  

     reciprocal axes: (cart. coord. in units 2 pi/alat)
               b(1) = (  1.000000  0.000000  0.000000 )  
               b(2) = (  0.000000  0.433013  0.000000 )  
               b(3) = (  0.000000  0.000000  0.295123 )  


     PseudoPot. # 1 for Cu read from file:
     /home/549/hxw549/Short/pseudopotentials/Cu.pbe-n-van_ak.UPF
     MD5 check sum: 601f7c30f7467666bec936e0661ce3e1
     Pseudo is Ultrasoft + core correction, Zval = 11.0
     Generated by new atomic code, or converted to UPF format
     Using radial grid of  867 points,  6 beta functions with: 
                l(1) =   0
                l(2) =   0
                l(3) =   1
                l(4) =   1
                l(5) =   2
                l(6) =   2
     Q(r) pseudized with  8 coefficients,  rinner =    1.400   1.400   1.400
                                                       1.400   1.400

     PseudoPot. # 2 for C  read from file:
     /home/549/hxw549/Short/pseudopotentials/C.star1s-pbe-mt_gipaw.UPF
     MD5 check sum: ef0cb3dee31bd9e4ba2a832a2c716264
     Pseudo is Norm-conserving, Zval =  5.0
     Generated by new atomic code, or converted to UPF format
     Using radial grid of 1073 points,  1 beta functions with: 
                l(1) =   0

     PseudoPot. # 3 for C  read from file:
     /home/549/hxw549/Short/pseudopotentials/C.pbe-mt_gipaw.UPF
     MD5 check sum: 5ac2f21f2c440b14befe521540822c15
     Pseudo is Norm-conserving, Zval =  4.0
     Generated by new atomic code, or converted to UPF format
     Using radial grid of 1073 points,  1 beta functions with: 
                l(1) =   0

     PseudoPot. # 4 for O  read from file:
     /home/549/hxw549/Short/pseudopotentials/O.pbe-van_gipaw.UPF
     MD5 check sum: 5ce2a047509d4f331db576c963e74b29
     Pseudo is Ultrasoft, Zval =  6.0
     Generated by new atomic code, or converted to UPF format
     Using radial grid of 1095 points,  4 beta functions with: 
                l(1) =   0
                l(2) =   0
                l(3) =   1
                l(4) =   1
     Q(r) pseudized with 0 coefficients 


     PseudoPot. # 5 for H  read from file:
     /home/549/hxw549/Short/pseudopotentials/H.pbe-van_ak.UPF
     MD5 check sum: 077eb6d537518a38cb46c6de387227b7
     Pseudo is Ultrasoft, Zval =  1.0
     Generated by new atomic code, or converted to UPF format
     Using radial grid of  615 points,  1 beta functions with: 
                l(1) =   0
     Q(r) pseudized with  8 coefficients,  rinner =    0.800

     atomic species   valence    mass     pseudopotential
        Cu            11.00    63.54600     Cu( 1.00)
        C_h            5.00    12.01070     C ( 1.00)
        C              4.00    12.01070     C ( 1.00)
        O              6.00    15.99940     O ( 1.00)
        H              1.00     1.00783     H ( 1.00)

     No symmetry found



   Cartesian axes

     site n.     atom                  positions (alat units)
         1           Cu  tau(   1) = (   0.0000000  -0.0001124   1.0011868  )
         2           Cu  tau(   2) = (   0.2499898   0.2314890   1.0028858  )
         3           Cu  tau(   3) = (   0.5000000  -0.0001538   1.0011207  )
         4           Cu  tau(   4) = (   0.7500102   0.2314890   1.0028858  )
         5           Cu  tau(   5) = (   0.0000000   0.4622551   1.0053524  )
         6           Cu  tau(   6) = (   0.2500088   0.6924579   1.0058364  )
         7           Cu  tau(   7) = (   0.5000000   0.4622629   1.0051606  )
         8           Cu  tau(   8) = (   0.7499912   0.6924579   1.0058364  )
         9           Cu  tau(   9) = (   0.0000000   0.9231945   1.0037099  )
        10           Cu  tau(  10) = (   0.2501144   1.1547114   1.0017292  )
        11           Cu  tau(  11) = (   0.5000000   0.9229888   1.0040738  )
        12           Cu  tau(  12) = (   0.7498856   1.1547114   1.0017292  )
        13           Cu  tau(  13) = (   0.0000000   1.3863962   1.0012899  )
        14           Cu  tau(  14) = (   0.2500136   1.6173447   1.0021190  )
        15           Cu  tau(  15) = (   0.5000000   1.3867257   1.0015878  )
        16           Cu  tau(  16) = (   0.7499864   1.6173447   1.0021190  )
        17           Cu  tau(  17) = (   0.0000000   1.8473422   1.0020731  )
        18           Cu  tau(  18) = (   0.2500067   2.0777255   1.0012575  )
        19           Cu  tau(  19) = (   0.5000000   1.8472488   1.0019769  )
        20           Cu  tau(  20) = (   0.7499933   2.0777255   1.0012575  )
        21           Cu  tau(  21) = (   0.0000000   0.2290971   1.2510133  )
        22           Cu  tau(  22) = (   0.2500654  -0.0010279   1.2492517  )
        23           Cu  tau(  23) = (   0.5000000   0.2291363   1.2509787  )
        24           Cu  tau(  24) = (   0.7499346  -0.0010279   1.2492517  )
        25           Cu  tau(  25) = (   0.0000000   0.6932770   1.2534390  )
        26           Cu  tau(  26) = (   0.2500647   0.4607032   1.2532007  )
        27           Cu  tau(  27) = (   0.5000000   0.6927500   1.2537658  )
        28           Cu  tau(  28) = (   0.7499353   0.4607032   1.2532007  )
        29           Cu  tau(  29) = (   0.0000000   1.1559961   1.2495084  )
        30           Cu  tau(  30) = (   0.2500511   0.9251246   1.2516105  )
        31           Cu  tau(  31) = (   0.5000000   1.1560617   1.2496092  )
        32           Cu  tau(  32) = (   0.7499489   0.9251246   1.2516105  )
        33           Cu  tau(  33) = (   0.0000000   1.6169015   1.2499722  )
        34           Cu  tau(  34) = (   0.2500720   1.3863550   1.2492996  )
        35           Cu  tau(  35) = (   0.5000000   1.6173459   1.2506856  )
        36           Cu  tau(  36) = (   0.7499280   1.3863550   1.2492996  )
        37           Cu  tau(  37) = (   0.0000000   2.0785906   1.2492456  )
        38           Cu  tau(  38) = (   0.2500782   1.8481473   1.2503424  )
        39           Cu  tau(  39) = (   0.5000000   2.0786197   1.2492262  )
        40           Cu  tau(  40) = (   0.7499218   1.8481473   1.2503424  )
        41           Cu  tau(  41) = (   0.0000000  -0.0018773   1.5009156  )
        42           Cu  tau(  42) = (   0.2502427   0.2272264   1.5012140  )
        43           Cu  tau(  43) = (   0.5000000  -0.0019371   1.5013637  )
        44           Cu  tau(  44) = (   0.7497573   0.2272264   1.5012140  )
        45           Cu  tau(  45) = (   0.0000000   0.4594394   1.5003477  )
        46           Cu  tau(  46) = (   0.2502570   0.6942932   1.5009157  )
        47           Cu  tau(  47) = (   0.5000000   0.4586584   1.5016837  )
        48           Cu  tau(  48) = (   0.7497430   0.6942932   1.5009157  )
        49           Cu  tau(  49) = (   0.0000000   0.9268538   1.5010944  )
        50           Cu  tau(  50) = (   0.2498040   1.1568891   1.5005333  )
        51           Cu  tau(  51) = (   0.5000000   0.9268357   1.5007380  )
        52           Cu  tau(  52) = (   0.7501960   1.1568891   1.5005333  )
        53           Cu  tau(  53) = (   0.0000000   1.3863456   1.5003872  )
        54           Cu  tau(  54) = (   0.2501219   1.6169806   1.4997659  )
        55           Cu  tau(  55) = (   0.5000000   1.3861347   1.5004185  )
        56           Cu  tau(  56) = (   0.7498781   1.6169806   1.4997659  )
        57           Cu  tau(  57) = (   0.0000000   1.8484356   1.4996601  )
        58           Cu  tau(  58) = (   0.2501193   2.0791885   1.5009757  )
        59           Cu  tau(  59) = (   0.5000000   1.8497941   1.5008599  )
        60           Cu  tau(  60) = (   0.7498807   2.0791885   1.5009757  )
        61           Cu  tau(  61) = (   0.0000000   0.2272141   1.7507006  )
        62           Cu  tau(  62) = (   0.2502201  -0.0034017   1.7557585  )
        63           Cu  tau(  63) = (   0.5000000   0.2232551   1.7551867  )
        64           Cu  tau(  64) = (   0.7497799  -0.0034017   1.7557585  )
        65           Cu  tau(  65) = (   0.0000000   0.6930571   1.7454147  )
        66           Cu  tau(  66) = (   0.2511988   0.4604074   1.7460219  )
        67           Cu  tau(  67) = (   0.5000000   0.6943777   1.7466636  )
        68           Cu  tau(  68) = (   0.7488012   0.4604074   1.7460219  )
        69           Cu  tau(  69) = (   0.0000000   1.1589833   1.7543557  )
        70           Cu  tau(  70) = (   0.2498986   0.9284865   1.7514360  )
        71           Cu  tau(  71) = (   0.5000000   1.1581142   1.7531021  )
        72           Cu  tau(  72) = (   0.7501014   0.9284865   1.7514360  )
        73           Cu  tau(  73) = (   0.0000000   1.6180631   1.7507280  )
        74           Cu  tau(  74) = (   0.2497278   1.3878292   1.7524236  )
        75           Cu  tau(  75) = (   0.5000000   1.6185358   1.7501560  )
        76           Cu  tau(  76) = (   0.7502722   1.3878292   1.7524236  )
        77           Cu  tau(  77) = (   0.0000000   2.0767807   1.7530692  )
        78           Cu  tau(  78) = (   0.2506793   1.8476229   1.7502174  )
        79           Cu  tau(  79) = (   0.5000000   2.0808455   1.7577646  )
        80           Cu  tau(  80) = (   0.7493207   1.8476229   1.7502174  )
        81           Cu  tau(  81) = (   0.0000000  -0.0012284   2.0022710  )
        82           Cu  tau(  82) = (   0.2496273   0.2339959   1.9924918  )
        83           Cu  tau(  83) = (   0.5000000  -0.0044412   2.0226497  )
        84           Cu  tau(  84) = (   0.7503727   0.2339959   1.9924918  )
        85           Cu  tau(  85) = (   0.0000000   0.4635570   1.9910147  )
        86           Cu  tau(  86) = (   0.2506563   0.6918608   1.9912023  )
        87           Cu  tau(  87) = (   0.5000000   0.4630711   1.9929706  )
        88           Cu  tau(  88) = (   0.7493437   0.6918608   1.9912023  )
        89           Cu  tau(  89) = (   0.0000000   0.9209914   1.9923815  )
        90           Cu  tau(  90) = (   0.2486433   1.1594323   2.0034163  )
        91           Cu  tau(  91) = (   0.5000000   0.9237114   1.9939278  )
        92           Cu  tau(  92) = (   0.7513567   1.1594323   2.0034163  )
        93           Cu  tau(  93) = (   0.0000000   1.3927493   2.0020949  )
        94           Cu  tau(  94) = (   0.2515934   1.6194884   2.0009081  )
        95           Cu  tau(  95) = (   0.5000000   1.3906810   1.9975250  )
        96           Cu  tau(  96) = (   0.7484066   1.6194884   2.0009081  )
        97           Cu  tau(  97) = (   0.0000000   1.8437997   2.0030740  )
        98           Cu  tau(  98) = (   0.2472165   2.0727862   2.0006750  )
        99           Cu  tau(  99) = (   0.5000000   1.8474924   2.0031450  )
       100           Cu  tau( 100) = (   0.7527835   2.0727862   2.0006750  )
       101           C   tau( 101) = (   0.0000000   0.0909116   2.3757143  )
       102           C   tau( 102) = (   0.0000000   0.2860842   2.3844548  )
       103           C   tau( 103) = (   0.1667206  -0.0023221   2.3640252  )
       104           C   tau( 104) = (   0.1664100   0.3825093   2.3845947  )
       105           C   tau( 105) = (   0.3323314   0.0914664   2.3568410  )
       106           C   tau( 106) = (   0.3327992   0.2862247   2.3713917  )
       107           C   tau( 107) = (   0.5000000  -0.0021686   2.3289559  )
       108           C   tau( 108) = (   0.5000000   0.3827790   2.3739144  )
       109           C   tau( 109) = (   0.6676686   0.0914664   2.3568410  )
       110           C   tau( 110) = (   0.6672008   0.2862247   2.3713917  )
       111           C   tau( 111) = (   0.8332794  -0.0023221   2.3640252  )
       112           C   tau( 112) = (   0.8335900   0.3825093   2.3845947  )
       113           C   tau( 113) = (   0.0000000   0.6729687   2.3904796  )
       114           C   tau( 114) = (   0.0000000   0.8667256   2.3839038  )
       115           C   tau( 115) = (   0.1664436   0.5763749   2.3885814  )
       116           C   tau( 116) = (   0.1666136   0.9632494   2.3785655  )
       117           C   tau( 117) = (   0.3331423   0.6729953   2.3846639  )
       118           C   tau( 118) = (   0.3331577   0.8667554   2.3808818  )
       119           C   tau( 119) = (   0.5000000   0.5763623   2.3826941  )
       120           C   tau( 120) = (   0.5000000   0.9631968   2.3749681  )
       121           C   tau( 121) = (   0.6668577   0.6729953   2.3846639  )
       122           C   tau( 122) = (   0.6668423   0.8667554   2.3808818  )
       123           C   tau( 123) = (   0.8335564   0.5763749   2.3885814  )
       124           C   tau( 124) = (   0.8333864   0.9632494   2.3785655  )
       125           C   tau( 125) = (   0.0000000   1.2526117   2.3627777  )
       126           C   tau( 126) = (   0.1665410   1.1586079   2.3669448  )
       127           C_h tau( 127) = (   0.3335017   1.2516977   2.3567510  )
       128           C   tau( 128) = (   0.5000000   1.1584676   2.3662578  )
       129           C   tau( 129) = (   0.6664983   1.2516977   2.3567510  )
       130           C   tau( 130) = (   0.8334590   1.1586079   2.3669448  )
       131           H   tau( 131) = (   0.1664277  -0.1503820   2.3577150  )
       132           H   tau( 132) = (   0.5000000  -0.1496242   2.3442672  )
       133           H   tau( 133) = (   0.8335723  -0.1503820   2.3577150  )
       134           H   tau( 134) = (   0.0000000   1.4008679   2.3643044  )
       135           H   tau( 135) = (   0.3334167   1.3998201   2.3514427  )
       136           H   tau( 136) = (   0.6665833   1.3998201   2.3514427  )

     number of k points=     6  gaussian smearing, width (Ry)=  0.1000
                       cart. coord. in units 2pi/alat
        k(    1) = (   0.0000000   0.0000000   0.0000000), wk =   0.2500000
        k(    2) = (   0.0000000  -0.2165064   0.0000000), wk =   0.2500000
        k(    3) = (   0.2500000   0.0000000   0.0000000), wk =   0.5000000
        k(    4) = (   0.2500000  -0.2165064   0.0000000), wk =   0.5000000
        k(    5) = (  -0.5000000   0.0000000   0.0000000), wk =   0.2500000
        k(    6) = (  -0.5000000  -0.2165064   0.0000000), wk =   0.2500000

     Dense  grid:  2050409 G-vectors     FFT dimensions: (  80, 192, 270)

     Largest allocated arrays     est. size (Mb)     dimensions
        Kohn-Sham Wavefunctions       102.99 Mb     (    9171,  736)
        NL pseudopotentials           256.93 Mb     (    9171, 1836)
        Each V/rho on FFT grid          2.34 Mb     (  153600)
        Each G-vector array             0.56 Mb     (   73230)
        G-vector shells                 0.27 Mb     (   35784)
     Largest temporary arrays     est. size (Mb)     dimensions
        Auxiliary wavefunctions       411.98 Mb     (    9171, 2944)
        Each subspace H/S matrix       14.68 Mb     (     981,  981)
        Each <psi_i|beta_j> matrix     20.62 Mb     (    1836,  736)
        Arrays for rho mixing          18.75 Mb     (  153600,    8)

     Initial potential from superposition of free atoms
     Check: negative starting charge=   -0.002209

     starting charge 1209.81748, renormalised to 1226.00000

     negative rho (up, down):  2.238E-03 0.000E+00
     Starting wfc are 1146 randomized atomic wfcs

     total cpu time spent up to now is      179.8 secs

     Self-consistent Calculation

     iteration #  1     ecut=    80.00 Ry     beta=0.70
     Davidson diagonalization with overlap
     c_bands:  2 eigenvalues not converged
     c_bands:  1 eigenvalues not converged
     ethr =  1.00E-04,  avg # of iterations = 20.0

     negative rho (up, down):  2.804E+01 0.000E+00

     total cpu time spent up to now is     3180.5 secs

     total energy              =   -8365.65582654 Ry
     Harris-Foulkes estimate   =  -14960.11823976 Ry
     estimated scf accuracy    <  145438.38467603 Ry

     iteration #  2     ecut=    80.00 Ry     beta=0.70
     Davidson diagonalization with overlap
     c_bands:  2 eigenvalues not converged
     c_bands:  2 eigenvalues not converged
     ethr =  1.00E-02,  avg # of iterations = 15.3

     negative rho (up, down):  2.036E+01 0.000E+00

     total cpu time spent up to now is     4845.3 secs

     total energy              =  -12562.49918757 Ry
     Harris-Foulkes estimate   =  -13139.45677694 Ry
     estimated scf accuracy    <    1735.40053019 Ry

     iteration #  3     ecut=    80.00 Ry     beta=0.70
     Davidson diagonalization with overlap
     ethr =  1.00E-02,  avg # of iterations =  4.7

     negative rho (up, down):  1.650E+01 0.000E+00

     total cpu time spent up to now is     5475.8 secs

     total energy              =  -12640.01264214 Ry
     Harris-Foulkes estimate   =  -12711.73235355 Ry
     estimated scf accuracy    <     903.64239676 Ry

     iteration #  4     ecut=    80.00 Ry     beta=0.70
     Davidson diagonalization with overlap
     ethr =  1.00E-02,  avg # of iterations =  3.8

     negative rho (up, down):  1.531E+01 0.000E+00

     total cpu time spent up to now is     5933.7 secs

     total energy              =  -12634.06901603 Ry
     Harris-Foulkes estimate   =  -12669.32288279 Ry
     estimated scf accuracy    <     937.56975023 Ry

     iteration #  5     ecut=    80.00 Ry     beta=0.70
     Davidson diagonalization with overlap
     ethr =  1.00E-02,  avg # of iterations =  2.7

     negative rho (up, down):  1.014E+01 0.000E+00

     total cpu time spent up to now is     6278.2 secs

     total energy              =  -12614.22513432 Ry
     Harris-Foulkes estimate   =  -12657.09783470 Ry
     estimated scf accuracy    <     300.72757840 Ry

     iteration #  6     ecut=    80.00 Ry     beta=0.70
     Davidson diagonalization with overlap
     ethr =  1.00E-02,  avg # of iterations =  3.5

     negative rho (up, down):  8.052E+00 0.000E+00

     total cpu time spent up to now is     6651.8 secs

     total energy              =  -12593.53701914 Ry
     Harris-Foulkes estimate   =  -12636.64949313 Ry
     estimated scf accuracy    <     710.29970807 Ry

     iteration #  7     ecut=    80.00 Ry     beta=0.70
     Davidson diagonalization with overlap
     ethr =  1.00E-02,  avg # of iterations =  2.3

     negative rho (up, down):  6.366E+00 0.000E+00

     total cpu time spent up to now is     6984.7 secs

     total energy              =  -12596.03371076 Ry
     Harris-Foulkes estimate   =  -12619.69992378 Ry
     estimated scf accuracy    <     326.66803882 Ry

     iteration #  8     ecut=    80.00 Ry     beta=0.70
     Davidson diagonalization with overlap
     ethr =  1.00E-02,  avg # of iterations =  1.0

     negative rho (up, down):  2.765E+00 0.000E+00

     total cpu time spent up to now is     7289.0 secs

     total energy              =  -12563.28463227 Ry
     Harris-Foulkes estimate   =  -12599.29140828 Ry
     estimated scf accuracy    <     227.84745749 Ry

     iteration #  9     ecut=    80.00 Ry     beta=0.70
     Davidson diagonalization with overlap
     ethr =  1.00E-02,  avg # of iterations =  1.3

     negative rho (up, down):  1.277E+00 0.000E+00

     total cpu time spent up to now is     7599.8 secs

     total energy              =  -12548.15001642 Ry
     Harris-Foulkes estimate   =  -12567.64126095 Ry
     estimated scf accuracy    <     141.95250483 Ry

     iteration # 10     ecut=    80.00 Ry     beta=0.70
     Davidson diagonalization with overlap
     ethr =  1.00E-02,  avg # of iterations =  1.0

     negative rho (up, down):  4.827E+00 0.000E+00

     total cpu time spent up to now is     7906.1 secs

     total energy              =  -12523.10905383 Ry
     Harris-Foulkes estimate   =  -12552.75953057 Ry
     estimated scf accuracy    <     108.70317854 Ry

     iteration # 11     ecut=    80.00 Ry     beta=0.70
     Davidson diagonalization with overlap
     ethr =  8.87E-03,  avg # of iterations =  2.5

     negative rho (up, down):  6.713E+00 0.000E+00

     total cpu time spent up to now is     8236.4 secs

     total energy              =  -12518.69339540 Ry
     Harris-Foulkes estimate   =  -12526.60685863 Ry
     estimated scf accuracy    <      93.93845403 Ry

     iteration # 12     ecut=    80.00 Ry     beta=0.70
     Davidson diagonalization with overlap
     ethr =  7.66E-03,  avg # of iterations =  1.0

     negative rho (up, down):  8.086E+00 0.000E+00

     total cpu time spent up to now is     8541.5 secs

     total energy              =  -12517.70638922 Ry
     Harris-Foulkes estimate   =  -12522.22700588 Ry
     estimated scf accuracy    <      55.18601163 Ry

     iteration # 13     ecut=    80.00 Ry     beta=0.70
     Davidson diagonalization with overlap
     ethr =  4.50E-03,  avg # of iterations =  1.0

     negative rho (up, down):  4.626E+00 0.000E+00

     total cpu time spent up to now is     8847.6 secs

     total energy              =  -12515.59451384 Ry
     Harris-Foulkes estimate   =  -12519.54383112 Ry
     estimated scf accuracy    <      30.68239491 Ry

     iteration # 14     ecut=    80.00 Ry     beta=0.70
     Davidson diagonalization with overlap
     ethr =  2.50E-03,  avg # of iterations =  2.5

     negative rho (up, down):  4.939E+00 0.000E+00

     total cpu time spent up to now is     9187.4 secs

     total energy              =  -12511.44672239 Ry
     Harris-Foulkes estimate   =  -12519.95624978 Ry
     estimated scf accuracy    <     146.46863363 Ry

     iteration # 15     ecut=    80.00 Ry     beta=0.70
     Davidson diagonalization with overlap
     ethr =  2.50E-03,  avg # of iterations =  3.0

     negative rho (up, down):  4.709E+00 0.000E+00

     total cpu time spent up to now is     9531.9 secs

     total energy              =  -12514.60524495 Ry
     Harris-Foulkes estimate   =  -12515.56618791 Ry
     estimated scf accuracy    <      12.64462315 Ry

     iteration # 16     ecut=    80.00 Ry     beta=0.70
     Davidson diagonalization with overlap
     ethr =  1.03E-03,  avg # of iterations =  5.5

     negative rho (up, down):  3.589E+00 0.000E+00

     total cpu time spent up to now is     9918.5 secs

     total energy              =  -12513.90408401 Ry
     Harris-Foulkes estimate   =  -12514.96422722 Ry
     estimated scf accuracy    <       9.35463222 Ry

     iteration # 17     ecut=    80.00 Ry     beta=0.70
     Davidson diagonalization with overlap
     ethr =  7.63E-04,  avg # of iterations =  3.0

     negative rho (up, down):  1.705E+00 0.000E+00

     total cpu time spent up to now is    10262.1 secs

     total energy              =  -12511.71155188 Ry
     Harris-Foulkes estimate   =  -12514.07168191 Ry
     estimated scf accuracy    <       8.49555321 Ry

     iteration # 18     ecut=    80.00 Ry     beta=0.70
     Davidson diagonalization with overlap
     ethr =  6.93E-04,  avg # of iterations =  6.7

     negative rho (up, down):  1.276E+00 0.000E+00

     total cpu time spent up to now is    10685.0 secs

     total energy              =  -12511.97296215 Ry
     Harris-Foulkes estimate   =  -12512.11350012 Ry
     estimated scf accuracy    <      12.31878316 Ry

     iteration # 19     ecut=    80.00 Ry     beta=0.70
     Davidson diagonalization with overlap
     ethr =  6.93E-04,  avg # of iterations =  4.2

     negative rho (up, down):  1.033E+00 0.000E+00

     total cpu time spent up to now is    11047.6 secs

     total energy              =  -12510.55363993 Ry
     Harris-Foulkes estimate   =  -12512.40058843 Ry
     estimated scf accuracy    <       6.42779459 Ry

     iteration # 20     ecut=    80.00 Ry     beta=0.70
     Davidson diagonalization with overlap
     ethr =  5.24E-04,  avg # of iterations =  4.2

     negative rho (up, down):  7.445E-01 0.000E+00

     total cpu time spent up to now is    11417.9 secs

     total energy              =  -12509.94039173 Ry
     Harris-Foulkes estimate   =  -12510.87761855 Ry
     estimated scf accuracy    <      15.56169471 Ry

     iteration # 21     ecut=    80.00 Ry     beta=0.70
     Davidson diagonalization with overlap
     ethr =  5.24E-04,  avg # of iterations =  1.2

     negative rho (up, down):  4.682E-01 0.000E+00

     total cpu time spent up to now is    11726.8 secs

     total energy              =  -12509.49185007 Ry
     Harris-Foulkes estimate   =  -12510.14498901 Ry
     estimated scf accuracy    <      16.80853119 Ry

     iteration # 22     ecut=    80.00 Ry     beta=0.70
     Davidson diagonalization with overlap
     ethr =  5.24E-04,  avg # of iterations =  1.0

     negative rho (up, down):  5.902E-01 0.000E+00

     total cpu time spent up to now is    12033.5 secs

     total energy              =  -12509.13114057 Ry
     Harris-Foulkes estimate   =  -12509.79596620 Ry
     estimated scf accuracy    <      11.19597338 Ry

     iteration # 23     ecut=    80.00 Ry     beta=0.70
     Davidson diagonalization with overlap
     ethr =  5.24E-04,  avg # of iterations =  4.8

     negative rho (up, down):  3.707E-01 0.000E+00

     total cpu time spent up to now is    12414.6 secs

     total energy              =  -12508.88219247 Ry
     Harris-Foulkes estimate   =  -12509.30775103 Ry
     estimated scf accuracy    <       5.75412039 Ry

     iteration # 24     ecut=    80.00 Ry     beta=0.70
     Davidson diagonalization with overlap
     ethr =  4.69E-04,  avg # of iterations =  2.2

     negative rho (up, down):  9.801E-01 0.000E+00

     total cpu time spent up to now is    12742.5 secs

     total energy              =  -12508.46057882 Ry
     Harris-Foulkes estimate   =  -12509.18085769 Ry
     estimated scf accuracy    <       6.53987452 Ry

     iteration # 25     ecut=    80.00 Ry     beta=0.70
     Davidson diagonalization with overlap
     ethr =  4.69E-04,  avg # of iterations =  6.8

     negative rho (up, down):  8.479E-01 0.000E+00

     total cpu time spent up to now is    13181.1 secs

     total energy              =  -12508.60645902 Ry
     Harris-Foulkes estimate   =  -12508.74448931 Ry
     estimated scf accuracy    <       1.72851754 Ry

     iteration # 26     ecut=    80.00 Ry     beta=0.70
     Davidson diagonalization with overlap
     ethr =  1.41E-04,  avg # of iterations =  8.2

     negative rho (up, down):  5.510E-01 0.000E+00

     total cpu time spent up to now is    13652.9 secs

     total energy              =  -12508.64781094 Ry
     Harris-Foulkes estimate   =  -12508.67697916 Ry
     estimated scf accuracy    <       0.20292164 Ry

     iteration # 27     ecut=    80.00 Ry     beta=0.70
     Davidson diagonalization with overlap
     c_bands:  3 eigenvalues not converged
     ethr =  1.66E-05,  avg # of iterations = 15.2

     negative rho (up, down):  3.797E-01 0.000E+00

     total cpu time spent up to now is    14277.4 secs

     total energy              =  -12508.64338192 Ry
     Harris-Foulkes estimate   =  -12508.66290940 Ry
     estimated scf accuracy    <       0.09813205 Ry

     iteration # 28     ecut=    80.00 Ry     beta=0.70
     Davidson diagonalization with overlap
     ethr =  8.00E-06,  avg # of iterations = 10.8

     negative rho (up, down):  2.513E-01 0.000E+00

     total cpu time spent up to now is    14827.1 secs

     total energy              =  -12508.63961425 Ry
     Harris-Foulkes estimate   =  -12508.65083447 Ry
     estimated scf accuracy    <       0.03792538 Ry

     iteration # 29     ecut=    80.00 Ry     beta=0.70
     Davidson diagonalization with overlap
     ethr =  3.09E-06,  avg # of iterations = 14.2

     negative rho (up, down):  1.925E-01 0.000E+00

     total cpu time spent up to now is    15458.0 secs

     total energy              =  -12508.63822925 Ry
     Harris-Foulkes estimate   =  -12508.64206664 Ry
     estimated scf accuracy    <       0.02628253 Ry

     iteration # 30     ecut=    80.00 Ry     beta=0.70
     Davidson diagonalization with overlap
     c_bands:  1 eigenvalues not converged
     ethr =  2.14E-06,  avg # of iterations = 11.8

     negative rho (up, down):  1.040E-01 0.000E+00

     total cpu time spent up to now is    16046.1 secs

     total energy              =  -12508.63570051 Ry
     Harris-Foulkes estimate   =  -12508.63927613 Ry
     estimated scf accuracy    <       0.01254746 Ry

     iteration # 31     ecut=    80.00 Ry     beta=0.70
     Davidson diagonalization with overlap
     c_bands:  1 eigenvalues not converged
     c_bands:  1 eigenvalues not converged
     ethr =  1.02E-06,  avg # of iterations = 15.3

     negative rho (up, down):  6.897E-02 0.000E+00

     total cpu time spent up to now is    16702.5 secs

     total energy              =  -12508.63518970 Ry
     Harris-Foulkes estimate   =  -12508.63627359 Ry
     estimated scf accuracy    <       0.00597359 Ry

     iteration # 32     ecut=    80.00 Ry     beta=0.70
     Davidson diagonalization with overlap
     ethr =  4.87E-07,  avg # of iterations =  8.8

     negative rho (up, down):  4.513E-02 0.000E+00

     total cpu time spent up to now is    17203.2 secs

     total energy              =  -12508.63492441 Ry
     Harris-Foulkes estimate   =  -12508.63554800 Ry
     estimated scf accuracy    <       0.00186146 Ry

     iteration # 33     ecut=    80.00 Ry     beta=0.70
     Davidson diagonalization with overlap
     ethr =  1.52E-07,  avg # of iterations = 10.7

     negative rho (up, down):  1.631E-02 0.000E+00

     total cpu time spent up to now is    17735.8 secs

     total energy              =  -12508.63452727 Ry
     Harris-Foulkes estimate   =  -12508.63508845 Ry
     estimated scf accuracy    <       0.00092274 Ry

     iteration # 34     ecut=    80.00 Ry     beta=0.70
     Davidson diagonalization with overlap
     ethr =  7.53E-08,  avg # of iterations = 11.3

     negative rho (up, down):  7.024E-03 0.000E+00

     total cpu time spent up to now is    18298.5 secs

     total energy              =  -12508.63434975 Ry
     Harris-Foulkes estimate   =  -12508.63459079 Ry
     estimated scf accuracy    <       0.00024543 Ry

     iteration # 35     ecut=    80.00 Ry     beta=0.70
     Davidson diagonalization with overlap
     c_bands:  1 eigenvalues not converged
     ethr =  2.00E-08,  avg # of iterations = 10.7

     negative rho (up, down):  3.729E-03 0.000E+00

     total cpu time spent up to now is    18840.2 secs

     total energy              =  -12508.63434130 Ry
     Harris-Foulkes estimate   =  -12508.63437813 Ry
     estimated scf accuracy    <       0.00005283 Ry

     iteration # 36     ecut=    80.00 Ry     beta=0.70
     Davidson diagonalization with overlap
     ethr =  4.31E-09,  avg # of iterations =  8.0

     negative rho (up, down):  2.698E-03 0.000E+00

     total cpu time spent up to now is    19334.3 secs

     total energy              =  -12508.63434025 Ry
     Harris-Foulkes estimate   =  -12508.63434808 Ry
     estimated scf accuracy    <       0.00001573 Ry

     iteration # 37     ecut=    80.00 Ry     beta=0.70
     Davidson diagonalization with overlap
     ethr =  1.28E-09,  avg # of iterations =  2.2

     negative rho (up, down):  2.181E-03 0.000E+00

     total cpu time spent up to now is    19686.5 secs

     total energy              =  -12508.63434157 Ry
     Harris-Foulkes estimate   =  -12508.63434213 Ry
     estimated scf accuracy    <       0.00000450 Ry

     iteration # 38     ecut=    80.00 Ry     beta=0.70
     Davidson diagonalization with overlap
     ethr =  3.67E-10,  avg # of iterations =  3.0

     negative rho (up, down):  2.245E-03 0.000E+00

     total cpu time spent up to now is    20053.9 secs

     total energy              =  -12508.63434345 Ry
     Harris-Foulkes estimate   =  -12508.63434218 Ry
     estimated scf accuracy    <       0.00000163 Ry

     iteration # 39     ecut=    80.00 Ry     beta=0.70
     Davidson diagonalization with overlap
     ethr =  1.33E-10,  avg # of iterations =  3.0

     negative rho (up, down):  2.316E-03 0.000E+00

     total cpu time spent up to now is    20414.0 secs

     total energy              =  -12508.63434373 Ry
     Harris-Foulkes estimate   =  -12508.63434365 Ry
     estimated scf accuracy    <       0.00000033 Ry

     iteration # 40     ecut=    80.00 Ry     beta=0.70
     Davidson diagonalization with overlap
     ethr =  2.70E-11,  avg # of iterations =  2.8

     negative rho (up, down):  2.371E-03 0.000E+00

     total cpu time spent up to now is    20818.5 secs

     total energy              =  -12508.63434376 Ry
     Harris-Foulkes estimate   =  -12508.63434379 Ry
     estimated scf accuracy    <       0.00000011 Ry

     iteration # 41     ecut=    80.00 Ry     beta=0.70
     Davidson diagonalization with overlap
     ethr =  9.22E-12,  avg # of iterations =  2.2

     negative rho (up, down):  2.409E-03 0.000E+00

     total cpu time spent up to now is    21164.1 secs

     total energy              =  -12508.63434373 Ry
     Harris-Foulkes estimate   =  -12508.63434377 Ry
     estimated scf accuracy    <       0.00000004 Ry

     iteration # 42     ecut=    80.00 Ry     beta=0.70
     Davidson diagonalization with overlap
     ethr =  3.19E-12,  avg # of iterations =  2.8

     negative rho (up, down):  2.422E-03 0.000E+00

     total cpu time spent up to now is    21537.1 secs

     total energy              =  -12508.63434372 Ry
     Harris-Foulkes estimate   =  -12508.63434374 Ry
     estimated scf accuracy    <       0.00000002 Ry

     iteration # 43     ecut=    80.00 Ry     beta=0.70
     Davidson diagonalization with overlap
     ethr =  1.59E-12,  avg # of iterations =  2.5

     negative rho (up, down):  2.437E-03 0.000E+00

     total cpu time spent up to now is    21872.3 secs

     End of self-consistent calculation

          k = 0.0000 0.0000 0.0000 (256287 PWs)   bands (ev):

   -17.0351 -16.4481 -15.6372 -14.8766 -14.8195 -14.5096 -14.2862 -14.0738
   -13.5172 -13.4015 -12.6886 -12.2699 -12.2179 -10.9835 -10.8056 -10.0501
    -9.6098  -9.5664  -9.0694  -8.8796  -8.4321  -8.2026  -8.0034  -7.6850
    -7.6305  -7.0196  -6.9508  -6.7439  -6.5654  -6.3164  -6.0424  -6.0338
    -5.9965  -5.8060  -5.7432  -5.6087  -5.2264  -5.1862  -5.1049  -4.8783
    -4.6854  -4.6093  -4.5387  -4.5116  -4.1951  -4.0070  -3.9585  -3.9528
    -3.9470  -3.7772  -3.6710  -3.6411  -3.5917  -3.5659  -3.5613  -3.5567
    -3.5529  -3.5501  -3.5074  -3.4832  -3.3541  -3.3237  -3.2665  -3.1795
    -3.1675  -3.0933  -3.0819  -2.9716  -2.9095  -2.8995  -2.8905  -2.8059
    -2.7567  -2.7488  -2.7420  -2.7052  -2.7038  -2.7012  -2.6996  -2.6805
    -2.6250  -2.5805  -2.5791  -2.5723  -2.5710  -2.5180  -2.4472  -2.4281
    -2.4021  -2.3320  -2.3114  -2.3013  -2.2935  -2.2875  -2.2774  -2.2361
    -2.2305  -2.2115  -2.2040  -2.1883  -2.1831  -2.1408  -2.1324  -2.1303
    -2.1281  -2.1082  -2.0849  -2.0815  -2.0719  -2.0658  -2.0615  -2.0197
    -2.0061  -2.0017  -1.9745  -1.9511  -1.9288  -1.9084  -1.8691  -1.8569
    -1.8455  -1.8300  -1.8173  -1.8037  -1.7687  -1.7664  -1.7609  -1.7512
    -1.7412  -1.7269  -1.7159  -1.6914  -1.6612  -1.6118  -1.6095  -1.6015
    -1.5957  -1.5947  -1.5910  -1.5896  -1.5835  -1.5821  -1.5803  -1.5745
    -1.5707  -1.5625  -1.5616  -1.5564  -1.5453  -1.5125  -1.5002  -1.4994
    -1.4931  -1.4812  -1.4783  -1.4733  -1.4451  -1.4290  -1.4257  -1.4219
    -1.4184  -1.4169  -1.4153  -1.4107  -1.4084  -1.4055  -1.4035  -1.4022
    -1.3997  -1.3987  -1.3971  -1.3951  -1.3845  -1.3766  -1.3430  -1.3177
    -1.2548  -1.2468  -1.2392  -1.2378  -1.2365  -1.2233  -1.2024  -1.2000
    -1.1878  -1.1790  -1.1675  -1.1645  -1.1641  -1.1622  -1.1529  -1.1294
    -1.1253  -1.1189  -1.1166  -1.1156  -1.1127  -1.1106  -1.1039  -1.0571
    -1.0490  -1.0399  -1.0022  -0.9990  -0.9949  -0.9927  -0.9919  -0.9842
    -0.9797  -0.9771  -0.9721  -0.9658  -0.9632  -0.9628  -0.9603  -0.9596
    -0.9593  -0.9562  -0.9499  -0.9482  -0.9464  -0.9451  -0.9256  -0.9063
    -0.9029  -0.8717  -0.8612  -0.8594  -0.8580  -0.8557  -0.8399  -0.8304
    -0.8287  -0.8251  -0.8239  -0.8187  -0.8141  -0.8079  -0.8037  -0.8018
    -0.7917  -0.7899  -0.7894  -0.7844  -0.7828  -0.7808  -0.7756  -0.7741
    -0.7701  -0.7699  -0.7587  -0.7556  -0.7466  -0.7426  -0.7347  -0.7120
    -0.6991  -0.6861  -0.6849  -0.6814  -0.6812  -0.6597  -0.6483  -0.6359
    -0.6343  -0.6274  -0.6236  -0.6209  -0.6204  -0.6198  -0.6189  -0.6073
    -0.5961  -0.5824  -0.5791  -0.5722  -0.5697  -0.5663  -0.5596  -0.5467
    -0.5435  -0.5386  -0.5374  -0.5300  -0.5212  -0.5179  -0.5159  -0.5150
    -0.5126  -0.5092  -0.5072  -0.5057  -0.5015  -0.5007  -0.4899  -0.4776
    -0.4752  -0.4644  -0.4632  -0.4515  -0.4331  -0.4245  -0.4006  -0.3969
    -0.3938  -0.3806  -0.3711  -0.3391  -0.3369  -0.3340  -0.3250  -0.3191
    -0.3103  -0.3096  -0.3024  -0.2977  -0.2922  -0.2900  -0.2881  -0.2798
    -0.2752  -0.2679  -0.2321  -0.2305  -0.2297  -0.2221  -0.2157  -0.2093
    -0.2075  -0.1931  -0.1903  -0.1874  -0.1858  -0.1822  -0.1709  -0.1519
    -0.1455  -0.1369  -0.1334  -0.1285  -0.1229  -0.1205  -0.1087  -0.0915
    -0.0874  -0.0780  -0.0761  -0.0692  -0.0622  -0.0609  -0.0576  -0.0536
    -0.0519  -0.0451  -0.0388  -0.0373  -0.0343  -0.0306  -0.0274  -0.0244
    -0.0206  -0.0190  -0.0166  -0.0133  -0.0106  -0.0057   0.0011   0.0031
     0.0171   0.0326   0.0362   0.0367   0.0388   0.0446   0.0542   0.0690
     0.0802   0.0814   0.0826   0.0854   0.0856   0.0895   0.0923   0.0949
     0.1099   0.1118   0.1156   0.1189   0.1206   0.1220   0.1238   0.1298
     0.1304   0.1331   0.1458   0.1473   0.1584   0.1621   0.1635   0.1673
     0.1762   0.1782   0.1784   0.1824   0.1897   0.1906   0.1958   0.1986
     0.2106   0.2367   0.2409   0.2460   0.2505   0.2509   0.2547   0.2613
     0.2642   0.2863   0.2908   0.2967   0.3009   0.3103   0.3106   0.3196
     0.3229   0.3254   0.3298   0.3310   0.3328   0.3450   0.3465   0.3509
     0.3552   0.3600   0.3624   0.3694   0.3721   0.3776   0.3906   0.3923
     0.3963   0.4106   0.4153   0.4157   0.4207   0.4264   0.4334   0.4389
     0.4421   0.4449   0.4473   0.4485   0.4507   0.4531   0.4568   0.4634
     0.4651   0.4665   0.4721   0.4748   0.4815   0.4887   0.4909   0.5007
     0.5060   0.5114   0.5136   0.5166   0.5225   0.5295   0.5337   0.5357
     0.5418   0.5451   0.5469   0.5483   0.5487   0.5529   0.5553   0.5628
     0.5669   0.5683   0.5699   0.5919   0.5984   0.6041   0.6139   0.6260
     0.6285   0.6325   0.6361   0.6392   0.6402   0.6411   0.6442   0.6514
     0.6542   0.6644   0.6665   0.6692   0.6725   0.6790   0.6822   0.6866
     0.6892   0.6925   0.6941   0.7018   0.7053   0.7116   0.7136   0.7143
     0.7152   0.7166   0.7238   0.7243   0.7338   0.7346   0.7374   0.7414
     0.7418   0.7443   0.7447   0.7459   0.7510   0.7541   0.7569   0.7611
     0.7750   0.7807   0.7828   0.7850   0.7929   0.7951   0.8061   0.8075
     0.8154   0.8242   0.8277   0.8359   0.8370   0.8401   0.8421   0.8468
     0.8485   0.8515   0.8532   0.8588   0.8610   0.8641   0.8682   0.8705
     0.8721   0.8760   0.8796   0.8843   0.8850   0.8975   0.8980   0.9020
     0.9026   0.9091   0.9146   0.9152   0.9173   0.9237   0.9249   0.9489
     0.9528   0.9848   0.9900   0.9940   0.9996   1.0032   1.0068   1.0095
     1.0190   1.0343   1.0444   1.0562   1.0600   1.0616   1.0724   1.0774
     1.0806   1.0813   1.0910   1.3281   1.3453   1.3857   1.4786   1.5113
     1.5274   1.5849   1.6278   1.6306   1.6427   1.6438   1.6463   1.6512
     1.6607   1.6903   1.7189   1.8260   1.8671   1.8942   1.8956   1.9044
     1.9086   1.9321   1.9546   2.1419   2.1525   2.1675   2.2208   2.5745
     2.7998   2.8919   2.9688   3.0448   3.2144   3.2357   3.2683   3.2808
     3.2904   3.3015   3.3224   3.3750   3.4089   3.4133   3.4189   3.4401
     3.4509   3.4646   3.4897   3.5449   3.6529   3.6700   3.7093   3.7710
     3.8625   4.1867   4.2701   4.3614   4.5324   4.7009   4.7227   4.7707
     5.0477   5.0723   5.1413   5.2063   5.2709   5.3386   5.3834   5.5806
     5.6427   5.6687   5.7263   5.8101   5.8733   5.9062   5.9232   5.9412
     6.0570   6.1160   6.1643   6.1686   6.1887   6.2175   6.3178   6.3876
     6.4040   6.4661   6.5186   6.5960   6.7408   6.7815   6.7992   6.9214
     6.9415   7.0499   7.1054   7.1318   7.1604   7.1789   7.1827   7.2987
     7.3781   7.4307   7.4929   7.5297   7.5974   7.7267   7.7450   7.7619
     7.7859   7.7870   7.8232   7.8735   7.9184   7.9571   7.9848   8.0034
     8.0368   8.1010   8.1643   8.1988   8.2247   8.2326   8.2509   8.2585
     8.2717   8.2980   8.3287   8.3649   8.4022   8.4316   8.5170   8.5644
     8.5971   8.6339   8.7618   8.7678   8.7824   8.7999   8.9752   9.0036
     9.0191   9.0409   9.1334   9.1466   9.2434   9.2677   9.3098   9.4226

          k = 0.0000-0.2165 0.0000 (256176 PWs)   bands (ev):

   -17.0351 -16.4481 -15.6372 -14.8766 -14.8195 -14.5097 -14.2862 -14.0738
   -13.5172 -13.4015 -12.6886 -12.2699 -12.2179 -10.9835 -10.8055 -10.0502
    -9.6098  -9.5664  -9.0693  -8.8796  -8.4318  -8.2027  -8.0033  -7.6851
    -7.6304  -7.0196  -6.9508  -6.7445  -6.4407  -6.4218  -6.3162  -6.0078
    -5.8068  -5.7433  -5.5679  -5.4191  -5.3804  -5.3497  -5.1875  -5.0468
    -4.7940  -4.6761  -4.4196  -4.2619  -4.1891  -3.9658  -3.8812  -3.8582
    -3.8490  -3.8378  -3.8311  -3.7236  -3.6634  -3.6394  -3.5931  -3.5776
    -3.5623  -3.5500  -3.5071  -3.3526  -3.1875  -3.1538  -3.1399  -3.1252
    -3.1240  -3.1211  -3.0985  -3.0885  -3.0329  -3.0141  -2.9289  -2.8145
    -2.8062  -2.7920  -2.7803  -2.7319  -2.7128  -2.7007  -2.6871  -2.6841
    -2.6588  -2.5751  -2.5408  -2.5402  -2.5135  -2.5130  -2.4816  -2.4461
    -2.4071  -2.3627  -2.3362  -2.3217  -2.3042  -2.3001  -2.2983  -2.2967
    -2.2759  -2.2713  -2.2459  -2.2377  -2.2041  -2.1973  -2.1910  -2.1818
    -2.1481  -2.0310  -2.0262  -2.0166  -2.0089  -1.9800  -1.9394  -1.9318
    -1.9298  -1.8740  -1.8708  -1.8599  -1.8526  -1.8383  -1.8352  -1.8299
    -1.8272  -1.8228  -1.8222  -1.8157  -1.7956  -1.7919  -1.7849  -1.7762
    -1.7721  -1.7711  -1.7587  -1.7386  -1.7279  -1.7112  -1.6915  -1.6897
    -1.6452  -1.6432  -1.6089  -1.6060  -1.6026  -1.6023  -1.5746  -1.5640
    -1.5562  -1.5491  -1.5443  -1.5414  -1.5370  -1.5350  -1.5259  -1.4958
    -1.4903  -1.4820  -1.4801  -1.4769  -1.4714  -1.4708  -1.4700  -1.4670
    -1.4473  -1.4431  -1.3980  -1.3917  -1.3892  -1.3818  -1.3810  -1.3702
    -1.3590  -1.3583  -1.3531  -1.3420  -1.3330  -1.3162  -1.3153  -1.3135
    -1.3008  -1.2769  -1.2200  -1.2187  -1.2017  -1.1982  -1.1886  -1.1878
    -1.1738  -1.1686  -1.1596  -1.1572  -1.1569  -1.1554  -1.1421  -1.1406
    -1.1154  -1.1100  -1.1029  -1.0994  -1.0980  -1.0959  -1.0937  -1.0898
    -1.0871  -1.0685  -1.0598  -1.0580  -1.0567  -1.0248  -1.0180  -1.0149
    -1.0142  -1.0117  -1.0054  -1.0045  -0.9859  -0.9808  -0.9739  -0.9719
    -0.9432  -0.9301  -0.9276  -0.9199  -0.9048  -0.9032  -0.8906  -0.8843
    -0.8663  -0.8641  -0.8620  -0.8579  -0.8550  -0.8526  -0.8456  -0.8421
    -0.8402  -0.8258  -0.8231  -0.8174  -0.8161  -0.8124  -0.8093  -0.8092
    -0.8053  -0.8002  -0.7933  -0.7917  -0.7778  -0.7736  -0.7726  -0.7617
    -0.7603  -0.7402  -0.7156  -0.7086  -0.7056  -0.7042  -0.7001  -0.6988
    -0.6956  -0.6903  -0.6760  -0.6703  -0.6661  -0.6610  -0.6569  -0.6496
    -0.6479  -0.6452  -0.6451  -0.6407  -0.6378  -0.6325  -0.6297  -0.6103
    -0.5884  -0.5857  -0.5851  -0.5762  -0.5758  -0.5619  -0.5614  -0.5518
    -0.5498  -0.5416  -0.5376  -0.5368  -0.5314  -0.5310  -0.5298  -0.5135
    -0.5034  -0.5007  -0.4932  -0.4908  -0.4907  -0.4775  -0.4665  -0.4651
    -0.4600  -0.4495  -0.4488  -0.4443  -0.4439  -0.4355  -0.4300  -0.4219
    -0.4001  -0.3963  -0.3831  -0.3811  -0.3679  -0.3633  -0.3585  -0.3573
    -0.3537  -0.3414  -0.3393  -0.3052  -0.2996  -0.2962  -0.2948  -0.2755
    -0.2694  -0.2406  -0.2306  -0.2141  -0.1952  -0.1896  -0.1802  -0.1735
    -0.1723  -0.1636  -0.1582  -0.1469  -0.1450  -0.1369  -0.1326  -0.1305
    -0.1280  -0.1220  -0.1186  -0.1087  -0.1013  -0.1008  -0.0993  -0.0932
    -0.0892  -0.0861  -0.0832  -0.0830  -0.0811  -0.0704  -0.0618  -0.0530
    -0.0486  -0.0454  -0.0413  -0.0399  -0.0338  -0.0337  -0.0312  -0.0307
    -0.0244  -0.0148  -0.0129  -0.0101  -0.0064  -0.0049  -0.0007   0.0050
     0.0098   0.0146   0.0161   0.0186   0.0207   0.0225   0.0237   0.0268
     0.0342   0.0450   0.0682   0.0745   0.0808   0.0885   0.0899   0.0911
     0.0946   0.1013   0.1025   0.1084   0.1134   0.1150   0.1154   0.1166
     0.1200   0.1267   0.1409   0.1540   0.1566   0.1626   0.1649   0.1699
     0.1711   0.1748   0.1793   0.1876   0.1946   0.2012   0.2032   0.2043
     0.2152   0.2173   0.2213   0.2346   0.2453   0.2657   0.2696   0.3134
     0.3149   0.3199   0.3214   0.3261   0.3292   0.3312   0.3317   0.3389
     0.3423   0.3456   0.3482   0.3514   0.3540   0.3556   0.3584   0.3605
     0.3665   0.3696   0.3717   0.3777   0.3802   0.3840   0.3871   0.3925
     0.3933   0.3967   0.3971   0.4006   0.4025   0.4070   0.4128   0.4180
     0.4191   0.4198   0.4213   0.4220   0.4268   0.4277   0.4322   0.4447
     0.4454   0.4541   0.4579   0.4611   0.4624   0.4655   0.4680   0.4683
     0.4730   0.4737   0.4781   0.4810   0.4830   0.5138   0.5177   0.5259
     0.5605   0.5625   0.5632   0.5695   0.5769   0.5814   0.5828   0.6000
     0.6015   0.6022   0.6043   0.6116   0.6122   0.6148   0.6175   0.6195
     0.6268   0.6283   0.6310   0.6323   0.6384   0.6401   0.6408   0.6423
     0.6427   0.6464   0.6485   0.6572   0.6596   0.6645   0.6648   0.6680
     0.6721   0.6732   0.6780   0.6925   0.6969   0.6997   0.7002   0.7057
     0.7064   0.7101   0.7155   0.7220   0.7262   0.7293   0.7322   0.7346
     0.7383   0.7425   0.7449   0.7500   0.7523   0.7571   0.7619   0.7694
     0.7748   0.7841   0.7854   0.7877   0.7937   0.8037   0.8076   0.8104
     0.8158   0.8181   0.8183   0.8225   0.8237   0.8251   0.8300   0.8411
     0.8460   0.8524   0.8561   0.8614   0.8662   0.8723   0.8775   0.8796
     0.8810   0.8822   0.8834   0.8881   0.8898   0.9098   0.9126   0.9131
     0.9189   0.9196   0.9255   0.9419   0.9426   0.9468   0.9523   0.9546
     0.9587   0.9593   0.9672   0.9753   0.9869   1.0155   1.0243   1.0310
     1.0355   1.0797   1.1311   1.1506   1.1672   1.1710   1.1827   1.1898
     1.2012   1.2065   1.2189   1.2322   1.2389   1.2413   1.2509   1.2510
     1.2620   1.2822   1.2844   1.4587   1.6167   1.8146   1.8173   1.8750
     1.8855   1.9166   1.9350   1.9900   2.0077   2.0122   2.0221   2.0423
     2.0883   2.1345   2.1371   2.1486   2.1555   2.2219   2.2447   2.3553
     2.3611   2.5999   2.6000   2.6039   2.6110   2.7531   2.8465   2.9392
     3.0651   3.1010   3.1160   3.4359   3.4937   3.5612   3.5837   3.7446
     3.7621   3.7634   3.7763   3.7854   3.8281   3.9330   4.1902   4.2149
     4.2754   4.2923   4.4737   4.4957   4.5509   4.6250   4.6915   4.7866
     4.7955   4.7994   4.8271   4.8991   5.0364   5.1317   5.5844   5.6049
     5.6767   5.7054   5.7381   5.8333   5.8748   5.9289   5.9807   6.0364
     6.0892   6.1003   6.1459   6.2100   6.2553   6.2884   6.4312   6.4705
     6.4810   6.5244   6.5338   6.5545   6.5706   6.5890   6.6013   6.6913
     6.7618   6.8198   6.8357   6.8771   6.9400   7.0411   7.1349   7.1845
     7.2488   7.4827   7.5267   7.5567   7.6494   7.6953   7.7829   7.7963
     7.8031   7.8835   7.8979   7.9378   8.0070   8.0981   8.1106   8.1290
     8.1354   8.1453   8.1898   8.2046   8.2520   8.3020   8.3148   8.3486
     8.4031   8.4365   8.4579   8.5605   8.6330   8.6880   8.7641   8.7700
     8.8000   8.8154   8.8414   8.8501   8.8681   8.8845   8.9021   8.9111
     9.0229   9.0638   9.1089   9.1372   9.2014   9.2245   9.2336   9.2796

          k = 0.2500 0.0000 0.0000 (256240 PWs)   bands (ev):

   -16.9562 -16.3569 -15.7407 -15.4472 -15.0676 -14.4314 -14.0201 -13.7372
   -13.2941 -13.0913 -12.5719 -12.3643 -11.6555 -11.4049 -10.9909 -10.4356
    -9.9744  -9.8287  -9.5583  -9.2114  -8.5482  -8.2952  -7.7529  -7.4027
    -7.1504  -7.0718  -6.6918  -6.5096  -6.3857  -6.0789  -5.8612  -5.8582
    -5.6878  -5.4739  -5.4423  -5.1860  -5.0791  -5.0103  -4.9536  -4.7732
    -4.7261  -4.6043  -4.5524  -4.5496  -4.4777  -4.3925  -4.3738  -4.3522
    -4.2070  -4.1622  -4.1427  -3.9452  -3.9022  -3.7903  -3.7765  -3.7352
    -3.6046  -3.5751  -3.5532  -3.4967  -3.4807  -3.3975  -3.3503  -3.3452
    -3.2676  -3.1907  -3.1659  -3.1390  -2.9499  -2.9018  -2.8716  -2.7536
    -2.7024  -2.6537  -2.6497  -2.6348  -2.6294  -2.5652  -2.4792  -2.4580
    -2.4413  -2.4045  -2.3848  -2.3625  -2.3567  -2.3553  -2.3464  -2.3447
    -2.3382  -2.3272  -2.3139  -2.2918  -2.2761  -2.2422  -2.2064  -2.2002
    -2.1918  -2.1655  -2.1615  -2.1384  -2.1369  -2.1349  -2.1315  -2.1219
    -2.1071  -2.0937  -2.0616  -2.0587  -2.0555  -2.0517  -2.0021  -1.9317
    -1.8986  -1.8918  -1.8770  -1.8681  -1.8254  -1.8185  -1.8082  -1.8021
    -1.8004  -1.7931  -1.7891  -1.7672  -1.7506  -1.7454  -1.7415  -1.7341
    -1.7300  -1.7152  -1.7034  -1.6952  -1.6897  -1.6854  -1.6769  -1.6746
    -1.6670  -1.6616  -1.6378  -1.6342  -1.6220  -1.6061  -1.5935  -1.5834
    -1.5771  -1.5690  -1.5670  -1.5653  -1.5636  -1.5576  -1.5542  -1.5487
    -1.5482  -1.5432  -1.5376  -1.5360  -1.5333  -1.5320  -1.5273  -1.5204
    -1.5085  -1.4974  -1.4713  -1.4561  -1.4499  -1.4165  -1.4143  -1.3942
    -1.3714  -1.3696  -1.3615  -1.3532  -1.3492  -1.3309  -1.3284  -1.3227
    -1.3149  -1.3106  -1.3056  -1.3038  -1.2974  -1.2911  -1.2845  -1.2128
    -1.1733  -1.1714  -1.1632  -1.1556  -1.1402  -1.1301  -1.1289  -1.1242
    -1.1155  -1.1126  -1.1086  -1.1054  -1.0988  -1.0968  -1.0920  -1.0859
    -1.0837  -1.0564  -1.0530  -1.0513  -1.0463  -1.0443  -1.0381  -1.0221
    -1.0210  -1.0151  -1.0114  -0.9963  -0.9647  -0.9612  -0.9575  -0.9552
    -0.9483  -0.9455  -0.9436  -0.9414  -0.9192  -0.9148  -0.9053  -0.9023
    -0.9019  -0.8880  -0.8659  -0.8613  -0.8602  -0.8522  -0.8491  -0.8444
    -0.8425  -0.8320  -0.8245  -0.8212  -0.8100  -0.8064  -0.8044  -0.7950
    -0.7855  -0.7763  -0.7643  -0.7622  -0.7588  -0.7545  -0.7460  -0.7441
    -0.7428  -0.7339  -0.7204  -0.7187  -0.7120  -0.6987  -0.6881  -0.6797
    -0.6775  -0.6749  -0.6560  -0.6415  -0.6351  -0.6334  -0.6276  -0.6209
    -0.6063  -0.6004  -0.5949  -0.5856  -0.5846  -0.5781  -0.5754  -0.5739
    -0.5643  -0.5594  -0.5582  -0.5568  -0.5540  -0.5507  -0.5489  -0.5465
    -0.5404  -0.5353  -0.5315  -0.5272  -0.5237  -0.5185  -0.5096  -0.5039
    -0.4956  -0.4889  -0.4812  -0.4753  -0.4534  -0.4529  -0.4477  -0.4461
    -0.4372  -0.4361  -0.4272  -0.4253  -0.4213  -0.4192  -0.4145  -0.3965
    -0.3808  -0.3621  -0.3254  -0.3166  -0.3129  -0.3095  -0.3049  -0.2987
    -0.2949  -0.2915  -0.2885  -0.2834  -0.2810  -0.2788  -0.2749  -0.2704
    -0.2679  -0.2661  -0.2639  -0.2598  -0.2564  -0.2513  -0.2443  -0.2367
    -0.2339  -0.2331  -0.2248  -0.2177  -0.2160  -0.2084  -0.2049  -0.1966
    -0.1741  -0.1619  -0.1495  -0.1442  -0.1422  -0.1348  -0.1281  -0.1259
    -0.1208  -0.1179  -0.1024  -0.0962  -0.0909  -0.0895  -0.0841  -0.0779
    -0.0758  -0.0713  -0.0685  -0.0654  -0.0643  -0.0552  -0.0476  -0.0454
    -0.0410  -0.0366  -0.0332  -0.0179  -0.0163  -0.0153  -0.0125  -0.0089
    -0.0058   0.0087   0.0128   0.0158   0.0176   0.0209   0.0285   0.0340
     0.0379   0.0395   0.0433   0.0457   0.0523   0.0594   0.0713   0.0738
     0.0784   0.0839   0.0889   0.0934   0.0983   0.1031   0.1039   0.1160
     0.1321   0.1379   0.1493   0.1621   0.1662   0.1715   0.1748   0.1788
     0.1822   0.1874   0.1927   0.1983   0.2044   0.2108   0.2131   0.2173
     0.2192   0.2252   0.2301   0.2483   0.2521   0.2554   0.2611   0.2633
     0.2710   0.2758   0.2826   0.2930   0.2968   0.3038   0.3124   0.3161
     0.3196   0.3219   0.3234   0.3248   0.3268   0.3296   0.3339   0.3426
     0.3500   0.3588   0.3798   0.3823   0.3830   0.3936   0.3967   0.4031
     0.4138   0.4144   0.4197   0.4217   0.4282   0.4289   0.4334   0.4351
     0.4381   0.4400   0.4464   0.4477   0.4500   0.4507   0.4547   0.4573
     0.4597   0.4660   0.4679   0.4692   0.4716   0.4737   0.4830   0.4900
     0.4932   0.4986   0.4991   0.5017   0.5045   0.5103   0.5163   0.5224
     0.5260   0.5297   0.5367   0.5403   0.5422   0.5436   0.5465   0.5538
     0.5549   0.5590   0.5639   0.5693   0.5714   0.5819   0.5878   0.5888
     0.5936   0.6102   0.6175   0.6206   0.6218   0.6275   0.6309   0.6383
     0.6454   0.6565   0.6639   0.6715   0.6757   0.6783   0.6824   0.6889
     0.6902   0.6912   0.6926   0.7001   0.7070   0.7099   0.7159   0.7168
     0.7217   0.7235   0.7277   0.7303   0.7316   0.7342   0.7372   0.7384
     0.7437   0.7474   0.7524   0.7549   0.7593   0.7615   0.7656   0.7668
     0.7785   0.7826   0.7847   0.7906   0.7924   0.7960   0.8003   0.8082
     0.8118   0.8126   0.8188   0.8273   0.8307   0.8338   0.8406   0.8491
     0.8503   0.8529   0.8559   0.8587   0.8599   0.8615   0.8638   0.8669
     0.8698   0.8712   0.8735   0.8741   0.8875   0.8897   0.8962   0.9000
     0.9027   0.9050   0.9077   0.9136   0.9164   0.9189   0.9227   0.9262
     0.9368   0.9394   0.9415   0.9499   0.9552   0.9705   0.9769   0.9907
     0.9986   1.0120   1.0253   1.0515   1.0542   1.0560   1.0636   1.0921
     1.1229   1.1676   1.1922   1.1966   1.2147   1.2221   1.2429   1.2667
     1.4587   1.4690   1.4864   1.5006   1.5067   1.5239   1.5928   1.6515
     1.6952   1.7329   1.9743   1.9878   1.9919   2.0066   2.2844   2.4092
     2.4159   2.4468   2.6215   2.6339   2.6524   2.6528   2.6825   2.7529
     2.8277   2.9033   2.9433   3.0511   3.0772   3.0842   3.1235   3.1326
     3.1549   3.1962   3.2428   3.2718   3.2960   3.3484   3.4268   3.4940
     3.6687   3.7093   3.7384   3.7954   3.9606   4.1585   4.2259   4.2726
     4.4144   4.4831   4.5065   4.6427   4.6775   4.6943   4.7549   4.8910
     4.9060   4.9194   4.9376   4.9474   4.9747   5.0675   5.1015   5.1818
     5.2460   5.2808   5.3150   5.3729   5.4370   5.4474   5.4611   5.5327
     5.5824   6.0335   6.0571   6.1209   6.1473   6.1831   6.2272   6.3458
     6.3753   6.4264   6.4682   6.4794   6.4857   6.5003   6.5465   6.6517
     6.7126   6.7781   6.8395   6.8967   6.9210   7.0007   7.0088   7.0796
     7.1551   7.1988   7.2831   7.3910   7.4431   7.4745   7.4912   7.5171
     7.5439   7.5910   7.6775   7.7224   7.7332   7.7923   7.8356   7.9090
     7.9223   7.9520   8.0496   8.0635   8.1646   8.2490   8.3809   8.3961
     8.4218   8.4367   8.4603   8.5393   8.5755   8.5865   8.6138   8.6376
     8.6676   8.6817   8.7204   8.7583   8.8232   8.8416   8.8648   8.8881
     8.9176   8.9685   9.0140   9.1113   9.1290   9.1809   9.2763   9.3076

          k = 0.2500-0.2165 0.0000 (256316 PWs)   bands (ev):

   -16.9562 -16.3569 -15.7407 -15.4472 -15.0676 -14.4314 -14.0201 -13.7372
   -13.2941 -13.0913 -12.5719 -12.3643 -11.6555 -11.4049 -10.9909 -10.4356
    -9.9745  -9.8287  -9.5583  -9.2114  -8.5482  -8.2949  -7.7527  -7.4027
    -7.1505  -7.0718  -6.6918  -6.5102  -6.2627  -6.2443  -6.0769  -5.6892
    -5.4713  -5.4096  -5.2579  -5.2192  -5.1956  -5.1702  -4.9212  -4.8913
    -4.8806  -4.7740  -4.6695  -4.5847  -4.3572  -4.2928  -4.1977  -4.1734
    -4.1476  -4.0941  -4.0176  -4.0032  -3.9412  -3.9317  -3.7878  -3.7565
    -3.6312  -3.5896  -3.5235  -3.5069  -3.4738  -3.4543  -3.4499  -3.3909
    -3.2711  -3.1892  -3.1448  -2.8710  -2.8585  -2.8113  -2.7598  -2.7484
    -2.7422  -2.7207  -2.7194  -2.7055  -2.6297  -2.5659  -2.5624  -2.5565
    -2.5100  -2.4346  -2.4091  -2.3867  -2.3687  -2.3640  -2.3627  -2.3136
    -2.2960  -2.2806  -2.2682  -2.2672  -2.2605  -2.2570  -2.2498  -2.2379
    -2.2315  -2.2296  -2.2272  -2.2215  -2.2175  -2.1804  -2.1417  -2.1361
    -2.1280  -2.0288  -2.0258  -1.9615  -1.9293  -1.8910  -1.8897  -1.8797
    -1.8407  -1.8348  -1.8340  -1.8251  -1.8189  -1.8179  -1.8087  -1.8021
    -1.7955  -1.7938  -1.7924  -1.7857  -1.7776  -1.7768  -1.7727  -1.7614
    -1.7507  -1.7464  -1.7414  -1.7389  -1.7320  -1.6951  -1.6890  -1.6835
    -1.6717  -1.6697  -1.6677  -1.6667  -1.6586  -1.6349  -1.6111  -1.6049
    -1.6014  -1.5993  -1.5868  -1.5760  -1.5684  -1.5531  -1.5516  -1.5438
    -1.5340  -1.5275  -1.5224  -1.5205  -1.5173  -1.5142  -1.5126  -1.5000
    -1.4902  -1.4819  -1.4764  -1.4572  -1.4330  -1.4202  -1.4183  -1.4139
    -1.3757  -1.3512  -1.3425  -1.3396  -1.3312  -1.3300  -1.3192  -1.2931
    -1.2843  -1.2830  -1.2754  -1.2736  -1.2659  -1.2610  -1.2582  -1.2509
    -1.2214  -1.2106  -1.1976  -1.1802  -1.1734  -1.1664  -1.1351  -1.1316
    -1.1242  -1.1230  -1.1192  -1.1180  -1.1000  -1.0989  -1.0938  -1.0725
    -1.0701  -1.0643  -1.0588  -1.0504  -1.0477  -1.0366  -1.0194  -1.0094
    -0.9981  -0.9894  -0.9809  -0.9760  -0.9727  -0.9711  -0.9573  -0.9532
    -0.9491  -0.9429  -0.9375  -0.9355  -0.9301  -0.9289  -0.9189  -0.9181
    -0.9157  -0.9095  -0.9054  -0.8911  -0.8784  -0.8777  -0.8573  -0.8525
    -0.8473  -0.8358  -0.8274  -0.8223  -0.8131  -0.8059  -0.8036  -0.7977
    -0.7885  -0.7838  -0.7809  -0.7769  -0.7722  -0.7548  -0.7453  -0.7235
    -0.7203  -0.6855  -0.6790  -0.6749  -0.6727  -0.6720  -0.6700  -0.6622
    -0.6548  -0.6518  -0.6376  -0.6336  -0.6314  -0.6270  -0.6212  -0.6150
    -0.6101  -0.6043  -0.5963  -0.5918  -0.5859  -0.5843  -0.5804  -0.5717
    -0.5698  -0.5666  -0.5642  -0.5623  -0.5556  -0.5552  -0.5519  -0.5491
    -0.5421  -0.5386  -0.5340  -0.5328  -0.5306  -0.5279  -0.5022  -0.4982
    -0.4926  -0.4894  -0.4863  -0.4781  -0.4662  -0.4590  -0.4380  -0.4356
    -0.4323  -0.4269  -0.4192  -0.4169  -0.4154  -0.4137  -0.4010  -0.3979
    -0.3943  -0.3880  -0.3824  -0.3662  -0.3599  -0.3431  -0.3091  -0.2997
    -0.2946  -0.2931  -0.2909  -0.2830  -0.2788  -0.2747  -0.2734  -0.2696
    -0.2605  -0.2567  -0.2554  -0.2490  -0.2442  -0.2401  -0.2371  -0.2352
    -0.2248  -0.2226  -0.2117  -0.2082  -0.2007  -0.1949  -0.1918  -0.1875
    -0.1799  -0.1742  -0.1695  -0.1603  -0.1546  -0.1461  -0.1337  -0.1223
    -0.1203  -0.1148  -0.1120  -0.1105  -0.0987  -0.0917  -0.0895  -0.0868
    -0.0824  -0.0795  -0.0753  -0.0728  -0.0584  -0.0527  -0.0498  -0.0455
    -0.0377  -0.0346  -0.0011   0.0012   0.0030   0.0049   0.0178   0.0248
     0.0277   0.0314   0.0347   0.0386   0.0424   0.0490   0.0510   0.0562
     0.0570   0.0605   0.0747   0.0790   0.0822   0.0845   0.0863   0.0915
     0.0993   0.1014   0.1024   0.1039   0.1059   0.1128   0.1194   0.1223
     0.1246   0.1293   0.1321   0.1389   0.1416   0.1431   0.1446   0.1488
     0.1507   0.1526   0.1578   0.1646   0.1808   0.1880   0.1927   0.1945
     0.1987   0.2177   0.2213   0.2326   0.2452   0.2553   0.2564   0.2576
     0.2614   0.2622   0.2640   0.2727   0.2826   0.2830   0.2854   0.2882
     0.2889   0.2906   0.2974   0.3118   0.3137   0.3184   0.3262   0.3301
     0.3310   0.3383   0.3450   0.3548   0.3574   0.3626   0.3641   0.3680
     0.3784   0.3880   0.3948   0.3974   0.4018   0.4079   0.4129   0.4195
     0.4297   0.4334   0.4414   0.4446   0.4482   0.4609   0.4700   0.4724
     0.4806   0.4837   0.4971   0.5057   0.5113   0.5160   0.5188   0.5192
     0.5200   0.5223   0.5243   0.5260   0.5285   0.5331   0.5348   0.5376
     0.5393   0.5473   0.5493   0.5543   0.5620   0.5632   0.5762   0.5889
     0.5898   0.5935   0.5971   0.5985   0.6023   0.6058   0.6074   0.6109
     0.6157   0.6185   0.6214   0.6237   0.6301   0.6317   0.6344   0.6360
     0.6401   0.6477   0.6491   0.6518   0.6550   0.6576   0.6586   0.6630
     0.6653   0.6763   0.6817   0.6834   0.6988   0.7000   0.7039   0.7084
     0.7097   0.7128   0.7194   0.7274   0.7305   0.7386   0.7404   0.7421
     0.7532   0.7571   0.7592   0.7610   0.7634   0.7660   0.7714   0.7742
     0.7816   0.7838   0.7859   0.7900   0.7970   0.8013   0.8056   0.8096
     0.8114   0.8137   0.8161   0.8214   0.8235   0.8252   0.8272   0.8325
     0.8339   0.8361   0.8394   0.8439   0.8502   0.8547   0.8642   0.8673
     0.8683   0.8705   0.8727   0.8747   0.8756   0.8838   0.8858   0.8870
     0.8882   0.8928   0.9077   0.9090   0.9142   0.9270   0.9318   0.9360
     0.9378   0.9481   0.9527   0.9581   0.9630   0.9788   0.9810   0.9832
     0.9869   0.9909   1.0223   1.0360   1.0772   1.0926   1.1078   1.1296
     1.1588   1.1833   1.1877   1.2065   1.2104   1.2183   1.2309   1.2612
     1.3004   1.3363   1.5442   1.5541   1.5779   1.5850   1.6337   1.7093
     1.7552   2.0130   2.0181   2.1581   2.1726   2.1998   2.2216   2.2310
     2.2346   2.2458   2.2707   2.3312   2.4110   2.4494   2.4737   2.5773
     2.9501   2.9858   3.0084   3.0356   3.0713   3.1893   3.2294   3.2747
     3.2800   3.3045   3.4097   3.4232   3.5016   3.5231   3.5937   3.5976
     3.7662   3.8163   3.8310   3.8790   3.9335   3.9775   4.0723   4.1054
     4.1305   4.3606   4.3820   4.4792   4.5477   4.5838   4.6463   4.7465
     4.7647   4.8266   4.8585   4.8888   4.9246   4.9707   5.1416   5.1982
     5.2164   5.3042   5.3269   5.4096   5.4522   5.5708   5.8141   5.9610
     5.9835   6.0315   6.0883   6.1471   6.2072   6.2512   6.3097   6.3376
     6.3656   6.4163   6.4908   6.5493   6.5724   6.6140   6.6400   6.6591
     6.7185   6.7332   6.7767   6.7927   6.8681   6.8855   6.8952   6.9812
     7.1234   7.1571   7.1915   7.2677   7.3445   7.3755   7.4570   7.5720
     7.6039   7.6299   7.7174   7.7584   7.9064   7.9380   7.9814   8.0125
     8.0306   8.0571   8.0703   8.0897   8.1477   8.1855   8.2189   8.2712
     8.3267   8.3664   8.4326   8.4658   8.5264   8.5420   8.6065   8.6182
     8.6566   8.6684   8.6852   8.7110   8.7221   8.7390   8.7906   8.8210
     8.8340   8.9120   8.9276   9.0002   9.0627   9.0830   9.1057   9.1889

          k =-0.5000 0.0000 0.0000 (256496 PWs)   bands (ev):

   -16.8464 -16.2196 -16.0021 -15.6517 -15.1369 -14.7361 -13.8988 -13.5026
   -12.5985 -12.5309 -12.3226 -12.1359 -12.0343 -11.9322 -11.3457 -10.8196
   -10.0179  -9.9509  -9.6632  -9.4281  -8.7127  -8.5944  -8.1741  -7.6772
    -6.6180  -6.4035  -5.8581  -5.8555  -5.8282  -5.8105  -5.7494  -5.4571
    -5.3571  -5.3537  -5.3530  -5.3461  -5.2964  -5.1843  -5.0428  -4.9106
    -4.8766  -4.8129  -4.6972  -4.5449  -4.5051  -4.4842  -4.4434  -4.4097
    -4.2963  -4.2402  -4.1966  -4.0815  -4.0030  -3.9854  -3.9770  -3.9687
    -3.9659  -3.9552  -3.8704  -3.7187  -3.5062  -3.3445  -3.2791  -3.2687
    -3.2126  -3.2039  -3.1841  -3.1744  -3.0840  -2.9489  -2.8796  -2.8665
    -2.8430  -2.8279  -2.7944  -2.7553  -2.4406  -2.4338  -2.4334  -2.4308
    -2.4274  -2.4250  -2.4156  -2.3755  -2.3275  -2.3068  -2.2732  -2.2129
    -2.2097  -2.2075  -2.2054  -2.1604  -2.1552  -2.1536  -2.1520  -2.1396
    -2.1179  -2.0650  -2.0602  -2.0480  -2.0399  -2.0020  -1.9802  -1.9787
    -1.9711  -1.9662  -1.9524  -1.9270  -1.9247  -1.9198  -1.9169  -1.9162
    -1.9033  -1.9021  -1.9009  -1.8956  -1.8769  -1.8617  -1.8578  -1.8571
    -1.8344  -1.8273  -1.8264  -1.8216  -1.8201  -1.7946  -1.7616  -1.7605
    -1.7434  -1.7429  -1.7372  -1.7347  -1.7216  -1.7152  -1.7108  -1.7040
    -1.7001  -1.6934  -1.6767  -1.6701  -1.6663  -1.6656  -1.6568  -1.6404
    -1.6365  -1.6300  -1.6145  -1.6115  -1.6050  -1.5809  -1.5719  -1.5675
    -1.5411  -1.5394  -1.5355  -1.5317  -1.5156  -1.5109  -1.5056  -1.4996
    -1.4991  -1.4971  -1.4870  -1.4859  -1.4759  -1.4740  -1.4664  -1.4624
    -1.4499  -1.4108  -1.4061  -1.4029  -1.3957  -1.3944  -1.3585  -1.3552
    -1.2693  -1.2683  -1.2672  -1.2661  -1.2386  -1.2377  -1.2353  -1.2344
    -1.2309  -1.2274  -1.2062  -1.2010  -1.1930  -1.1906  -1.1824  -1.1779
    -1.1747  -1.1706  -1.1688  -1.1668  -1.1440  -1.1388  -1.1296  -1.1212
    -1.0353  -1.0273  -1.0237  -1.0233  -1.0207  -1.0190  -1.0002  -0.9970
    -0.9910  -0.9886  -0.9779  -0.9731  -0.9678  -0.9643  -0.9439  -0.9425
    -0.9345  -0.9333  -0.9244  -0.9176  -0.8979  -0.8955  -0.8925  -0.8894
    -0.8843  -0.8722  -0.8598  -0.8584  -0.8557  -0.8532  -0.8482  -0.8439
    -0.8422  -0.8382  -0.8137  -0.8127  -0.8072  -0.8066  -0.7827  -0.7763
    -0.7683  -0.7668  -0.7149  -0.7051  -0.7035  -0.7015  -0.6958  -0.6946
    -0.6926  -0.6904  -0.6601  -0.6582  -0.6520  -0.6464  -0.6346  -0.6212
    -0.6181  -0.5969  -0.5965  -0.5941  -0.5929  -0.5901  -0.5893  -0.5876
    -0.5859  -0.5847  -0.5823  -0.5801  -0.5763  -0.5624  -0.5263  -0.5126
    -0.5088  -0.5028  -0.5006  -0.4942  -0.4917  -0.4907  -0.4868  -0.4853
    -0.4836  -0.4826  -0.4796  -0.4780  -0.4755  -0.4719  -0.4684  -0.4661
    -0.4647  -0.4561  -0.4530  -0.4517  -0.4507  -0.4495  -0.4470  -0.4453
    -0.4383  -0.4362  -0.4355  -0.4353  -0.4298  -0.4227  -0.4203  -0.4141
    -0.4132  -0.4121  -0.4099  -0.3978  -0.3960  -0.3814  -0.3781  -0.3522
    -0.2949  -0.2871  -0.2834  -0.2815  -0.2808  -0.2555  -0.2493  -0.2486
    -0.2444  -0.2400  -0.2368  -0.2345  -0.2289  -0.2279  -0.2205  -0.2199
    -0.2158  -0.2149  -0.2095  -0.2047  -0.2006  -0.1991  -0.1977  -0.1973
    -0.1891  -0.1866  -0.1850  -0.1829  -0.1820  -0.1774  -0.1696  -0.1666
    -0.1581  -0.1548  -0.1503  -0.1397  -0.1056  -0.0873  -0.0801  -0.0744
    -0.0705  -0.0698  -0.0535  -0.0508  -0.0494  -0.0462  -0.0458  -0.0438
    -0.0411  -0.0396  -0.0335  -0.0324  -0.0295  -0.0275  -0.0246  -0.0227
    -0.0209  -0.0199  -0.0186  -0.0088  -0.0051  -0.0013   0.0073   0.0176
     0.0194   0.0199   0.0376   0.0394   0.0491   0.0545   0.0630   0.0644
     0.0655   0.0692   0.0735   0.0744   0.0755   0.0793   0.0838   0.0839
     0.0943   0.0978   0.0980   0.0999   0.1037   0.1091   0.1218   0.1316
     0.1414   0.1429   0.1441   0.1461   0.1515   0.1628   0.1685   0.1716
     0.1848   0.1918   0.1941   0.2038   0.2135   0.2239   0.2322   0.2409
     0.2514   0.2522   0.2675   0.2677   0.2702   0.2710   0.2739   0.2748
     0.2777   0.2788   0.2862   0.2863   0.2998   0.3030   0.3051   0.3135
     0.3163   0.3229   0.3238   0.3366   0.3372   0.3375   0.3395   0.3404
     0.3434   0.3566   0.3650   0.3731   0.3845   0.3909   0.3999   0.4286
     0.4395   0.4422   0.4451   0.4507   0.4542   0.4564   0.4746   0.4771
     0.4785   0.4879   0.4919   0.4926   0.5084   0.5089   0.5131   0.5158
     0.5320   0.5362   0.5393   0.5445   0.5455   0.5472   0.5541   0.5551
     0.5570   0.5596   0.5619   0.5646   0.5658   0.5667   0.5681   0.5688
     0.5749   0.5755   0.5785   0.5819   0.5919   0.5987   0.6063   0.6076
     0.6098   0.6144   0.6262   0.6304   0.6404   0.6412   0.6454   0.6459
     0.6587   0.6620   0.6679   0.6696   0.6724   0.6751   0.6754   0.6772
     0.6783   0.6787   0.6833   0.6908   0.6932   0.7033   0.7201   0.7251
     0.7284   0.7295   0.7410   0.7431   0.7475   0.7485   0.7504   0.7509
     0.7524   0.7543   0.7595   0.7604   0.7615   0.7624   0.7626   0.7661
     0.7672   0.7679   0.7698   0.7723   0.7736   0.7763   0.7797   0.7808
     0.7861   0.7866   0.7949   0.7971   0.8072   0.8127   0.8178   0.8190
     0.8275   0.8323   0.8421   0.8448   0.8475   0.8481   0.8500   0.8572
     0.8575   0.8641   0.8658   0.8689   0.8767   0.8784   0.8795   0.8805
     0.8954   0.9002   0.9006   0.9047   0.9061   0.9094   0.9097   0.9119
     0.9171   0.9257   0.9272   0.9340   0.9390   0.9436   0.9444   0.9449
     0.9458   0.9480   0.9572   0.9614   0.9972   1.0010   1.0044   1.0181
     1.0330   1.0373   1.0412   1.0428   1.2859   1.4453   1.4529   1.4600
     1.4693   1.6328   1.6770   1.6978   1.7012   1.7202   1.7226   1.7248
     1.7444   2.0110   2.0152   2.0229   2.0849   2.2578   2.2590   2.2627
     2.2689   2.3082   2.6139   2.6203   2.6320   2.6497   2.9079   2.9353
     3.0999   3.1195   3.1707   3.1900   3.3324   3.3360   3.3552   3.3642
     3.4867   3.4943   3.5210   3.5447   3.5933   3.6334   4.0458   4.0642
     4.1001   4.1056   4.1598   4.2002   4.2565   4.2649   4.2923   4.3371
     4.3601   4.4046   4.4416   4.4507   4.4568   4.4715   4.4890   4.4952
     4.5150   4.5346   4.5802   4.6624   4.7843   4.8018   4.9052   4.9157
     4.9530   4.9762   5.0291   5.0851   5.3553   5.3696   5.4031   5.4245
     5.4524   5.4903   5.5011   5.5139   5.7355   5.7603   5.7744   5.9458
     6.0104   6.0603   6.4534   6.4750   6.5022   6.5616   6.6170   6.6404
     6.8309   6.9472   6.9909   7.0239   7.0357   7.0505   7.0584   7.0808
     7.1742   7.2388   7.2483   7.2740   7.2796   7.3161   7.3412   7.3688
     7.3789   7.4190   7.4311   7.4456   7.4904   7.5028   7.6016   7.6323
     7.7721   7.8924   7.9491   7.9780   8.1521   8.1771   8.2475   8.2482
     8.2690   8.4329   8.4386   8.4424   8.4538   8.4691   8.4929   8.5496
     8.6645   8.6921   8.7285   8.7510   8.7939   8.8586   8.8780   8.9168
     8.9349   8.9432   8.9492   8.9665   8.9751   9.0182   9.0734   9.1398

          k =-0.5000-0.2165 0.0000 (256328 PWs)   bands (ev):

   -16.8464 -16.2196 -16.0021 -15.6517 -15.1369 -14.7361 -13.8988 -13.5026
   -12.5985 -12.5309 -12.3226 -12.1359 -12.0342 -11.9322 -11.3457 -10.8196
   -10.0179  -9.9509  -9.6632  -9.4282  -8.7127  -8.5943  -8.1738  -7.6767
    -6.6187  -6.4035  -5.8342  -5.8131  -5.7526  -5.7408  -5.7350  -5.7154
    -5.7109  -5.4569  -5.2978  -5.1843  -5.0386  -4.8842  -4.8619  -4.8167
    -4.7848  -4.7597  -4.7416  -4.7397  -4.7040  -4.6927  -4.5195  -4.4975
    -4.4104  -4.3588  -4.2761  -4.1787  -4.0796  -4.0110  -3.9784  -3.8715
    -3.8424  -3.7575  -3.7201  -3.6886  -3.3956  -3.2801  -3.2526  -3.1598
    -3.1321  -3.1303  -3.1240  -3.1174  -3.1122  -3.1048  -3.0479  -2.9783
    -2.8054  -2.7747  -2.6560  -2.6413  -2.6322  -2.6311  -2.5983  -2.5846
    -2.5518  -2.5159  -2.3629  -2.3577  -2.3526  -2.3479  -2.2854  -2.2612
    -2.1846  -2.1459  -2.1411  -2.1389  -2.0805  -2.0524  -2.0488  -2.0469
    -2.0459  -2.0355  -2.0146  -2.0054  -2.0018  -1.9979  -1.9939  -1.9905
    -1.9515  -1.9470  -1.9462  -1.9372  -1.9334  -1.9329  -1.9314  -1.9296
    -1.9227  -1.9207  -1.9187  -1.9166  -1.9113  -1.8691  -1.8675  -1.8662
    -1.8645  -1.8220  -1.8046  -1.7972  -1.7954  -1.7873  -1.7491  -1.7477
    -1.7475  -1.7465  -1.7309  -1.7265  -1.7177  -1.7126  -1.7019  -1.6931
    -1.6904  -1.6842  -1.6832  -1.6811  -1.6793  -1.6766  -1.6756  -1.6713
    -1.6472  -1.6221  -1.6187  -1.6138  -1.6069  -1.6057  -1.6034  -1.6019
    -1.6006  -1.5996  -1.5952  -1.5929  -1.5882  -1.5835  -1.5832  -1.5470
    -1.4513  -1.4470  -1.4418  -1.4361  -1.4092  -1.4082  -1.4077  -1.4068
    -1.3575  -1.3492  -1.3385  -1.3352  -1.3289  -1.3268  -1.3249  -1.3230
    -1.3203  -1.3187  -1.3172  -1.2977  -1.2621  -1.2616  -1.2565  -1.2559
    -1.2546  -1.2505  -1.2451  -1.2400  -1.2345  -1.2323  -1.2183  -1.2148
    -1.1545  -1.1491  -1.1352  -1.1338  -1.1255  -1.1173  -1.1069  -1.1013
    -1.0653  -1.0637  -1.0596  -1.0588  -1.0158  -1.0130  -1.0124  -1.0105
    -0.9967  -0.9958  -0.9880  -0.9879  -0.9782  -0.9697  -0.9580  -0.9542
    -0.9536  -0.9504  -0.9482  -0.9472  -0.9229  -0.9090  -0.8921  -0.8822
    -0.8429  -0.8406  -0.8273  -0.8264  -0.8185  -0.8176  -0.8146  -0.8134
    -0.8082  -0.8066  -0.8041  -0.8020  -0.7535  -0.7395  -0.7322  -0.7223
    -0.7206  -0.7200  -0.7196  -0.7161  -0.7135  -0.7129  -0.7114  -0.7091
    -0.6840  -0.6819  -0.6802  -0.6793  -0.6762  -0.6707  -0.6675  -0.6667
    -0.6561  -0.6556  -0.6524  -0.6511  -0.6162  -0.5991  -0.5911  -0.5890
    -0.5845  -0.5788  -0.5743  -0.5650  -0.5565  -0.5422  -0.5238  -0.5161
    -0.5129  -0.5025  -0.5001  -0.4897  -0.4892  -0.4884  -0.4854  -0.4841
    -0.4814  -0.4779  -0.4753  -0.4724  -0.4722  -0.4675  -0.4652  -0.4630
    -0.4623  -0.4603  -0.4595  -0.4580  -0.4548  -0.4510  -0.4472  -0.4440
    -0.4403  -0.4375  -0.4329  -0.4174  -0.4167  -0.4163  -0.4155  -0.4077
    -0.4054  -0.3999  -0.3992  -0.3848  -0.3791  -0.3581  -0.3526  -0.3518
    -0.3480  -0.3387  -0.3211  -0.3163  -0.3154  -0.3124  -0.2845  -0.2491
    -0.2437  -0.2418  -0.2405  -0.2371  -0.2302  -0.2261  -0.2204  -0.2131
    -0.2093  -0.2054  -0.2033  -0.1969  -0.1959  -0.1949  -0.1936  -0.1922
    -0.1841  -0.1815  -0.1797  -0.1783  -0.1773  -0.1734  -0.1452  -0.1284
    -0.1215  -0.1172  -0.1136  -0.1112  -0.1110  -0.1050  -0.1000  -0.0995
    -0.0980  -0.0961  -0.0784  -0.0753  -0.0722  -0.0679  -0.0621  -0.0604
    -0.0580  -0.0566  -0.0395  -0.0373  -0.0335  -0.0267  -0.0211  -0.0145
    -0.0131  -0.0098  -0.0049  -0.0016  -0.0006   0.0008   0.0088   0.0099
     0.0103   0.0118   0.0135   0.0185   0.0230   0.0295   0.0324   0.0370
     0.0467   0.0515   0.0590   0.0661   0.0727   0.0808   0.0960   0.1031
     0.1067   0.1094   0.1192   0.1200   0.1205   0.1225   0.1262   0.1290
     0.1318   0.1403   0.1527   0.1575   0.1607   0.1617   0.1623   0.1626
     0.1635   0.1684   0.1772   0.1797   0.2049   0.2104   0.2169   0.2211
     0.2324   0.2431   0.2456   0.2470   0.2474   0.2598   0.2771   0.2777
     0.2841   0.2853   0.2943   0.3045   0.3100   0.3151   0.3476   0.3574
     0.3587   0.3604   0.3606   0.3812   0.3859   0.3902   0.3944   0.3984
     0.4105   0.4133   0.4186   0.4282   0.4398   0.4408   0.4452   0.4477
     0.4498   0.4597   0.4656   0.4684   0.4733   0.4749   0.4757   0.4766
     0.4774   0.4785   0.4796   0.4804   0.4844   0.4852   0.4869   0.4923
     0.4933   0.5004   0.5080   0.5097   0.5112   0.5184   0.5220   0.5271
     0.5300   0.5316   0.5412   0.5418   0.5434   0.5475   0.5587   0.5592
     0.5645   0.5671   0.5702   0.5728   0.5757   0.5793   0.6038   0.6079
     0.6123   0.6157   0.6203   0.6245   0.6252   0.6292   0.6362   0.6428
     0.6443   0.6457   0.6538   0.6553   0.6678   0.6763   0.6791   0.6831
     0.6907   0.6939   0.6975   0.7008   0.7016   0.7041   0.7101   0.7115
     0.7141   0.7146   0.7175   0.7192   0.7202   0.7209   0.7517   0.7524
     0.7609   0.7676   0.7703   0.7772   0.7783   0.7789   0.7844   0.7853
     0.7856   0.7860   0.7886   0.7899   0.7959   0.7974   0.8061   0.8077
     0.8126   0.8146   0.8173   0.8185   0.8195   0.8204   0.8212   0.8237
     0.8260   0.8301   0.8309   0.8336   0.8358   0.8396   0.8463   0.8473
     0.8506   0.8548   0.8714   0.8747   0.8800   0.8848   0.8905   0.8925
     0.8943   0.8986   0.9036   0.9094   0.9139   0.9159   0.9168   0.9238
     0.9319   0.9375   0.9525   0.9591   0.9666   0.9829   0.9980   1.0023
     1.0027   1.0053   1.0210   1.0251   1.0348   1.0360   1.0369   1.0414
     1.0453   1.0457   1.0510   1.0512   1.0620   1.0843   1.2502   1.2635
     1.2681   1.2727   1.3552   1.7208   1.7321   1.8068   1.8152   1.9355
     1.9959   1.9998   2.0123   2.1895   2.1946   2.2133   2.2351   2.2786
     2.4955   2.5113   2.5373   2.5985   2.8809   2.8863   2.8912   2.8918
     3.0602   3.0671   3.0958   3.1228   3.3653   3.3690   3.3719   3.3730
     3.5758   3.6028   3.6420   3.6522   3.6608   3.6634   3.8101   3.8381
     3.9291   3.9359   3.9539   3.9644   4.0129   4.0432   4.1173   4.1316
     4.2578   4.3195   4.3821   4.4711   4.5609   4.5759   4.5778   4.5966
     4.6419   4.6568   4.6767   4.6973   4.7110   4.7655   4.7912   4.8327
     4.9256   5.0140   5.1490   5.1594   5.1637   5.1689   5.2365   5.3039
     5.3986   5.4420   5.8055   6.0402   6.1954   6.2491   6.2703   6.2874
     6.3280   6.4437   6.4637   6.5061   6.5253   6.5638   6.5817   6.5965
     6.6002   6.6519   6.6881   6.7561   6.7845   6.7924   6.8054   6.8084
     6.9496   6.9729   7.0090   7.0834   7.1940   7.3000   7.3381   7.3970
     7.4374   7.5255   7.6517   7.6587   7.6902   7.6990   7.8065   7.8887
     7.9963   8.1918   8.2135   8.2429   8.2528   8.2921   8.2976   8.3111
     8.3200   8.3718   8.3810   8.3857   8.3922   8.4346   8.4417   8.4877
     8.5534   8.5580   8.5700   8.5824   8.5872   8.6217   8.7626   8.7670
     8.7972   8.8088   8.9347   8.9849   9.0182   9.0935   9.2096   9.2503

     the Fermi energy is     2.7523 ev

!    total energy              =  -12508.63434368 Ry
     Harris-Foulkes estimate   =  -12508.63434372 Ry
     estimated scf accuracy    <          5.6E-09 Ry

     The total energy is the sum of the following terms:

     one-electron contribution = -109877.32378445 Ry
     hartree contribution      =   56251.80332701 Ry
     xc contribution           =   -4388.23954944 Ry
     ewald contribution        =   45511.19552112 Ry
     Dispersion Correction     =      -2.78481823 Ry
     smearing contrib. (-TS)   =      -3.28503970 Ry

     convergence has been achieved in  43 iterations

     Writing output data file gc.save
 
     init_run     :    168.49s CPU    179.42s WALL (       1 calls)
     electrons    :  20323.28s CPU  21692.77s WALL (       1 calls)

     Called by init_run:
     wfcinit      :    165.48s CPU    175.96s WALL (       1 calls)
     potinit      :      0.98s CPU      1.00s WALL (       1 calls)

     Called by electrons:
     c_bands      :  18308.85s CPU  19519.62s WALL (      43 calls)
     sum_band     :   1603.03s CPU   1699.50s WALL (      43 calls)
     v_of_rho     :      5.44s CPU      6.87s WALL (      44 calls)
     newd         :     15.04s CPU     28.32s WALL (      44 calls)
     mix_rho      :    390.93s CPU    438.70s WALL (      43 calls)

     Called by c_bands:
     init_us_2    :     79.66s CPU     80.64s WALL (     522 calls)
     cegterg      :  17984.20s CPU  19182.59s WALL (     258 calls)

     Called by sum_band:
     sum_band:bec :      4.40s CPU      4.97s WALL (     258 calls)
     addusdens    :     21.44s CPU     33.31s WALL (      43 calls)

     Called by *egterg:
     h_psi        :   6880.84s CPU   7406.70s WALL (    1756 calls)
     s_psi        :   1663.40s CPU   1674.57s WALL (    1756 calls)
     g_psi        :     17.97s CPU     18.02s WALL (    1492 calls)
     cdiaghg      :   4929.73s CPU   5193.22s WALL (    1750 calls)

     Called by h_psi:
     add_vuspsi   :   1667.51s CPU   1679.82s WALL (    1756 calls)

     General routines
     calbec       :   2364.94s CPU   2383.06s WALL (    2014 calls)
     fft          :      4.70s CPU      5.53s WALL (     571 calls)
     ffts         :    171.10s CPU    205.64s WALL (   24592 calls)
     fftw         :   3474.10s CPU   4003.57s WALL ( 1137702 calls)
     davcio       :      0.25s CPU      6.78s WALL (       6 calls)
 
     Parallel routines
     fft_scatter  :   1836.29s CPU   2084.48s WALL ( 1162865 calls)
 
     PWSCF        :     5h41m CPU        6h 4m WALL

 
   This run was terminated on:  20:57:40   8Sep2017            

=------------------------------------------------------------------------------=
   JOB DONE.
=------------------------------------------------------------------------------=
