mpirun: INFO: switching to OpenMPI runtime version 1.10.2

     Program PWSCF v.5.4.0 starts on 11Oct2017 at 17:39:51 

     This program is part of the open-source Quantum ESPRESSO suite
     for quantum simulation of materials; please cite
         "P. Giannozzi et al., J. Phys.:Condens. Matter 21 395502 (2009);
          URL http://www.quantum-espresso.org", 
     in publications or presentations arising from this work. More details at
     http://www.quantum-espresso.org/quote

     Parallel version (MPI & OpenMP), running on      28 processor cores
     Number of MPI processes:                28
     Threads/MPI process:                     1
     R & G space division:  proc/nbgrp/npool/nimage =      28
     Waiting for input...
     Reading input from standard input
Warning: card &IONS ignored
Warning: card / ignored

     Current dimensions of program PWSCF are:
     Max number of different atomic species (ntypx) = 10
     Max number of k-points (npk) =  40000
     Max angular momentum in pseudopotentials (lmaxx) =  3
     WARNING: atomic wfc #  2 for atom type 4 has zero norm
     WARNING: atomic wfc #  4 for atom type 4 has zero norm
     WARNING: atomic wfc #  5 for atom type 4 has zero norm

     -------------------------------------
     Parameters for Dispersion Correction:
     -------------------------------------
       atom      VdW radius       C_6     

        Cu         2.952        374.666
        C_h        2.744         60.710
        C          2.744         60.710
        O          2.536         24.284
        H          1.892          4.857

     Subspace diagonalization in iterative solution of the eigenvalue problem:
     one sub-group per band group will be used
     scalapack distributed-memory algorithm (size of sub-group:  3*  3 procs)

 
     Parallelization info
     --------------------
     sticks:   dense  smooth     PW     G-vecs:    dense   smooth      PW
     Min         408     408    101                73226    73226    9147
     Max         410     410    102                73231    73231    9160
     Sum       11433   11433   2849              2050409  2050409  256287
 


     bravais-lattice index     =            0
     lattice parameter (alat)  =      13.9425  a.u.
     unit-cell volume          =   21209.0878 (a.u.)^3
     number of atoms/cell      =            2
     number of atomic types    =            5
     number of electrons       =        10.00
     number of Kohn-Sham states=            9
     kinetic-energy cutoff     =      80.0000  Ry
     charge density cutoff     =     320.0000  Ry
     convergence threshold     =      1.0E-08
     mixing beta               =       0.7000
     number of iterations used =            8  local-TF  mixing
     Exchange-correlation      =  SLA  PW   PBE  PBE ( 1  4  3  4 0 0)

     celldm(1)=  13.942539  celldm(2)=   0.000000  celldm(3)=   0.000000
     celldm(4)=   0.000000  celldm(5)=   0.000000  celldm(6)=   0.000000

     crystal axes: (cart. coord. in units of alat)
               a(1) = (   1.000000   0.000000   0.000000 )  
               a(2) = (   0.000000   2.309401   0.000000 )  
               a(3) = (   0.000000   0.000000   3.388418 )  

     reciprocal axes: (cart. coord. in units 2 pi/alat)
               b(1) = (  1.000000  0.000000  0.000000 )  
               b(2) = (  0.000000  0.433013  0.000000 )  
               b(3) = (  0.000000  0.000000  0.295123 )  


     PseudoPot. # 1 for Cu read from file:
     /home/549/hxw549/Short/pseudopotentials/Cu.pbe-n-van_ak.UPF
     MD5 check sum: 601f7c30f7467666bec936e0661ce3e1
     Pseudo is Ultrasoft + core correction, Zval = 11.0
     Generated by new atomic code, or converted to UPF format
     Using radial grid of  867 points,  6 beta functions with: 
                l(1) =   0
                l(2) =   0
                l(3) =   1
                l(4) =   1
                l(5) =   2
                l(6) =   2
     Q(r) pseudized with  8 coefficients,  rinner =    1.400   1.400   1.400
                                                       1.400   1.400

     PseudoPot. # 2 for C  read from file:
     /home/549/hxw549/Short/pseudopotentials/C.star1s-pbe-mt_gipaw.UPF
     MD5 check sum: ef0cb3dee31bd9e4ba2a832a2c716264
     Pseudo is Norm-conserving, Zval =  5.0
     Generated by new atomic code, or converted to UPF format
     Using radial grid of 1073 points,  1 beta functions with: 
                l(1) =   0

     PseudoPot. # 3 for C  read from file:
     /home/549/hxw549/Short/pseudopotentials/C.pbe-mt_gipaw.UPF
     MD5 check sum: 5ac2f21f2c440b14befe521540822c15
     Pseudo is Norm-conserving, Zval =  4.0
     Generated by new atomic code, or converted to UPF format
     Using radial grid of 1073 points,  1 beta functions with: 
                l(1) =   0

     PseudoPot. # 4 for O  read from file:
     /home/549/hxw549/Short/pseudopotentials/O.pbe-van_gipaw.UPF
     MD5 check sum: 5ce2a047509d4f331db576c963e74b29
     Pseudo is Ultrasoft, Zval =  6.0
     Generated by new atomic code, or converted to UPF format
     Using radial grid of 1095 points,  4 beta functions with: 
                l(1) =   0
                l(2) =   0
                l(3) =   1
                l(4) =   1
     Q(r) pseudized with 0 coefficients 


     PseudoPot. # 5 for H  read from file:
     /home/549/hxw549/Short/pseudopotentials/H.pbe-van_ak.UPF
     MD5 check sum: 077eb6d537518a38cb46c6de387227b7
     Pseudo is Ultrasoft, Zval =  1.0
     Generated by new atomic code, or converted to UPF format
     Using radial grid of  615 points,  1 beta functions with: 
                l(1) =   0
     Q(r) pseudized with  8 coefficients,  rinner =    0.800

     atomic species   valence    mass     pseudopotential
        Cu            11.00    63.54600     Cu( 1.00)
        C_h            5.00    12.01070     C ( 1.00)
        C              4.00    12.01070     C ( 1.00)
        O              6.00    15.99940     O ( 1.00)
        H              1.00     1.00783     H ( 1.00)

      2 Sym. Ops. (no inversion) found



   Cartesian axes

     site n.     atom                  positions (alat units)
         1           C_h tau(   1) = (   0.4817526   0.9548742   3.3884182  )
         2           O   tau(   2) = (   0.3804061   1.0742193   3.3884182  )

     number of k points=     1  gaussian smearing, width (Ry)=  0.1000
                       cart. coord. in units 2pi/alat
        k(    1) = (   0.0000000   0.0000000   0.0000000), wk =   2.0000000

     Dense  grid:  2050409 G-vectors     FFT dimensions: (  80, 192, 270)

     Largest allocated arrays     est. size (Mb)     dimensions
        Kohn-Sham Wavefunctions         1.26 Mb     (    9151,    9)
        NL pseudopotentials             1.26 Mb     (    9151,    9)
        Each V/rho on FFT grid          2.34 Mb     (  153600)
        Each G-vector array             0.56 Mb     (   73230)
        G-vector shells                 0.27 Mb     (   34888)
     Largest temporary arrays     est. size (Mb)     dimensions
        Auxiliary wavefunctions         5.03 Mb     (    9151,   36)
        Each subspace H/S matrix        0.00 Mb     (      12,   12)
        Each <psi_i|beta_j> matrix      0.00 Mb     (       9,    9)
        Arrays for rho mixing          18.75 Mb     (  153600,    8)

     Initial potential from superposition of free atoms

     starting charge    9.50000, renormalised to   10.00000

     negative rho (up, down):  8.758E-05 0.000E+00
     Starting wfc are   12 randomized atomic wfcs

     total cpu time spent up to now is        4.4 secs

     Self-consistent Calculation

     iteration #  1     ecut=    80.00 Ry     beta=0.70
     Davidson diagonalization with overlap
     ethr =  1.00E-04,  avg # of iterations = 10.0

     negative rho (up, down):  4.800E-02 0.000E+00

     total cpu time spent up to now is      103.8 secs

     total energy              =     -49.38401724 Ry
     Harris-Foulkes estimate   =     -51.02334990 Ry
     estimated scf accuracy    <       3.98435108 Ry

     iteration #  2     ecut=    80.00 Ry     beta=0.70
     Davidson diagonalization with overlap
     ethr =  1.00E-02,  avg # of iterations =  2.0

     negative rho (up, down):  4.381E-02 0.000E+00

     total cpu time spent up to now is      133.0 secs

     total energy              =     -50.20521024 Ry
     Harris-Foulkes estimate   =     -50.51671717 Ry
     estimated scf accuracy    <       0.97000484 Ry

     iteration #  3     ecut=    80.00 Ry     beta=0.70
     Davidson diagonalization with overlap
     ethr =  9.70E-03,  avg # of iterations =  1.0

     negative rho (up, down):  5.047E-02 0.000E+00

     total cpu time spent up to now is      192.6 secs

     total energy              =     -50.31653539 Ry
     Harris-Foulkes estimate   =     -50.32888059 Ry
     estimated scf accuracy    <       0.03187968 Ry

     iteration #  4     ecut=    80.00 Ry     beta=0.70
     Davidson diagonalization with overlap
     ethr =  3.19E-04,  avg # of iterations =  3.0

     negative rho (up, down):  4.245E-02 0.000E+00

     total cpu time spent up to now is      242.3 secs

     total energy              =     -50.31620204 Ry
     Harris-Foulkes estimate   =     -50.31966905 Ry
     estimated scf accuracy    <       0.00946921 Ry

     iteration #  5     ecut=    80.00 Ry     beta=0.70
     Davidson diagonalization with overlap
     ethr =  9.47E-05,  avg # of iterations =  4.0

     negative rho (up, down):  2.332E-02 0.000E+00

     total cpu time spent up to now is      284.3 secs

     total energy              =     -50.31680741 Ry
     Harris-Foulkes estimate   =     -50.31706683 Ry
     estimated scf accuracy    <       0.00096909 Ry

     iteration #  6     ecut=    80.00 Ry     beta=0.70
     Davidson diagonalization with overlap
     ethr =  9.69E-06,  avg # of iterations =  4.0

     negative rho (up, down):  1.139E-02 0.000E+00

     total cpu time spent up to now is      376.0 secs

     total energy              =     -50.31675913 Ry
     Harris-Foulkes estimate   =     -50.31685752 Ry
     estimated scf accuracy    <       0.00020309 Ry

     iteration #  7     ecut=    80.00 Ry     beta=0.70
     Davidson diagonalization with overlap
     ethr =  2.03E-06,  avg # of iterations =  4.0

     negative rho (up, down):  2.959E-03 0.000E+00

     total cpu time spent up to now is      428.6 secs

     total energy              =     -50.31677771 Ry
     Harris-Foulkes estimate   =     -50.31678442 Ry
     estimated scf accuracy    <       0.00005382 Ry

     iteration #  8     ecut=    80.00 Ry     beta=0.70
     Davidson diagonalization with overlap
     ethr =  5.38E-07,  avg # of iterations =  6.0

     negative rho (up, down):  2.355E-04 0.000E+00

     total cpu time spent up to now is      515.4 secs

     total energy              =     -50.31679131 Ry
     Harris-Foulkes estimate   =     -50.31678316 Ry
     estimated scf accuracy    <       0.00000268 Ry

     iteration #  9     ecut=    80.00 Ry     beta=0.70
     Davidson diagonalization with overlap
     ethr =  2.68E-08,  avg # of iterations =  4.0

     negative rho (up, down):  5.484E-05 0.000E+00

     total cpu time spent up to now is      572.1 secs

     total energy              =     -50.31679310 Ry
     Harris-Foulkes estimate   =     -50.31679166 Ry
     estimated scf accuracy    <       0.00000051 Ry

     iteration # 10     ecut=    80.00 Ry     beta=0.70
     Davidson diagonalization with overlap
     ethr =  5.12E-09,  avg # of iterations =  1.0

     negative rho (up, down):  9.988E-05 0.000E+00

     total cpu time spent up to now is      638.3 secs

     total energy              =     -50.31679402 Ry
     Harris-Foulkes estimate   =     -50.31679317 Ry
     estimated scf accuracy    <       0.00000011 Ry

     iteration # 11     ecut=    80.00 Ry     beta=0.70
     Davidson diagonalization with overlap
     ethr =  1.14E-09,  avg # of iterations =  1.0

     negative rho (up, down):  6.506E-05 0.000E+00

     total cpu time spent up to now is      738.1 secs

     total energy              =     -50.31679442 Ry
     Harris-Foulkes estimate   =     -50.31679403 Ry
     estimated scf accuracy    <       0.00000002 Ry

     iteration # 12     ecut=    80.00 Ry     beta=0.70
     Davidson diagonalization with overlap
     ethr =  1.56E-10,  avg # of iterations =  2.0

     negative rho (up, down):  4.676E-05 0.000E+00

     total cpu time spent up to now is      739.4 secs

     End of self-consistent calculation

          k = 0.0000 0.0000 0.0000 (256287 PWs)   bands (ev):

   -42.1067 -25.7219 -23.3682 -23.3528 -21.1172 -14.6367 -14.6206  -4.2876
    -2.6294

     the Fermi energy is   -17.9648 ev

!    total energy              =     -50.31679447 Ry
     Harris-Foulkes estimate   =     -50.31679442 Ry
     estimated scf accuracy    <          2.9E-09 Ry

     The total energy is the sum of the following terms:

     one-electron contribution =    -116.17946002 Ry
     hartree contribution      =      55.06008483 Ry
     xc contribution           =     -10.70325532 Ry
     ewald contribution        =      21.50639610 Ry
     Dispersion Correction     =      -0.00002070 Ry
     smearing contrib. (-TS)   =      -0.00053937 Ry

     convergence has been achieved in  12 iterations

     Writing output data file gc.save
 
     init_run     :      2.76s CPU      3.61s WALL (       1 calls)
     electrons    :    657.86s CPU    735.24s WALL (       1 calls)

     Called by init_run:
     wfcinit      :      0.13s CPU      0.32s WALL (       1 calls)
     potinit      :      0.92s CPU      0.98s WALL (       1 calls)

     Called by electrons:
     c_bands      :      2.64s CPU      3.18s WALL (      12 calls)
     sum_band     :      5.08s CPU      7.57s WALL (      12 calls)
     v_of_rho     :      1.26s CPU      1.65s WALL (      13 calls)
     newd         :      1.97s CPU      4.75s WALL (      13 calls)
     mix_rho      :    646.96s CPU    718.27s WALL (      12 calls)

     Called by c_bands:
     init_us_2    :      0.06s CPU      0.11s WALL (      25 calls)
     cegterg      :      2.57s CPU      3.06s WALL (      12 calls)

     Called by sum_band:
     sum_band:bec :      0.00s CPU      0.01s WALL (      12 calls)
     addusdens    :      4.22s CPU      6.50s WALL (      12 calls)

     Called by *egterg:
     h_psi        :      2.12s CPU      2.44s WALL (      55 calls)
     s_psi        :      0.02s CPU      0.03s WALL (      55 calls)
     g_psi        :      0.01s CPU      0.01s WALL (      42 calls)
     cdiaghg      :      0.17s CPU      0.24s WALL (      54 calls)

     Called by h_psi:
     add_vuspsi   :      0.02s CPU      0.03s WALL (      55 calls)

     General routines
     calbec       :      0.06s CPU      0.08s WALL (      67 calls)
     fft          :      1.59s CPU      2.05s WALL (     168 calls)
     ffts         :    274.41s CPU    326.42s WALL (   42997 calls)
     fftw         :      1.96s CPU      2.21s WALL (     710 calls)
     davcio       :      0.01s CPU      0.01s WALL (       1 calls)
 
     Parallel routines
     fft_scatter  :    173.68s CPU    208.33s WALL (   43875 calls)
 
     PWSCF        : 11m 0.94s CPU    12m20.33s WALL

 
   This run was terminated on:  17:52:11  11Oct2017            

=------------------------------------------------------------------------------=
   JOB DONE.
=------------------------------------------------------------------------------=
