
     Program PWSCF v.5.4.0 starts on 14Mar2017 at 21:20:48 

     This program is part of the open-source Quantum ESPRESSO suite
     for quantum simulation of materials; please cite
         "P. Giannozzi et al., J. Phys.:Condens. Matter 21 395502 (2009);
          URL http://www.quantum-espresso.org", 
     in publications or presentations arising from this work. More details at
     http://www.quantum-espresso.org/quote

     Parallel version (MPI & OpenMP), running on      56 processor cores
     Number of MPI processes:                56
     Threads/MPI process:                     1
     R & G space division:  proc/nbgrp/npool/nimage =      56
     Waiting for input...
     Reading input from standard input
Warning: card &IONS ignored
Warning: card / ignored

     Current dimensions of program PWSCF are:
     Max number of different atomic species (ntypx) = 10
     Max number of k-points (npk) =  40000
     Max angular momentum in pseudopotentials (lmaxx) =  3

     -------------------------------------
     Parameters for Dispersion Correction:
     -------------------------------------
       atom      VdW radius       C_6     

        Cu         2.952        374.666
        C_h        2.744         60.710
        C          2.744         60.710

     Subspace diagonalization in iterative solution of the eigenvalue problem:
     one sub-group per band group will be used
     scalapack distributed-memory algorithm (size of sub-group:  5*  5 procs)

 
     Parallelization info
     --------------------
     sticks:   dense  smooth     PW     G-vecs:    dense   smooth      PW
     Min         204     204     54                36612    36612    4962
     Max         205     205     55                36617    36617    4968
     Sum       11433   11433   3039              2050409  2050409  278033
 


     bravais-lattice index     =            0
     lattice parameter (alat)  =      13.9425  a.u.
     unit-cell volume          =   21209.0878 (a.u.)^3
     number of atoms/cell      =          148
     number of atomic types    =            3
     number of electrons       =      1292.00
     number of Kohn-Sham states=          775
     kinetic-energy cutoff     =      80.0000  Ry
     charge density cutoff     =     320.0000  Ry
     convergence threshold     =      1.0E-08
     mixing beta               =       0.7000
     number of iterations used =            8  local-TF  mixing
     Exchange-correlation      =  SLA  PW   PBX  PBC ( 1  4  3  4 0 0)

     celldm(1)=  13.942539  celldm(2)=   0.000000  celldm(3)=   0.000000
     celldm(4)=   0.000000  celldm(5)=   0.000000  celldm(6)=   0.000000

     crystal axes: (cart. coord. in units of alat)
               a(1) = (   1.000000   0.000000   0.000000 )  
               a(2) = (   0.000000   2.309401   0.000000 )  
               a(3) = (   0.000000   0.000000   3.388418 )  

     reciprocal axes: (cart. coord. in units 2 pi/alat)
               b(1) = (  1.000000  0.000000  0.000000 )  
               b(2) = (  0.000000  0.433013  0.000000 )  
               b(3) = (  0.000000  0.000000  0.295123 )  


     PseudoPot. # 1 for Cu read from file:
     /home/549/hxw549/Short/pseudopotentials/Cu.pbe-n-van_ak.UPF
     MD5 check sum: 601f7c30f7467666bec936e0661ce3e1
     Pseudo is Ultrasoft + core correction, Zval = 11.0
     Generated by new atomic code, or converted to UPF format
     Using radial grid of  867 points,  6 beta functions with: 
                l(1) =   0
                l(2) =   0
                l(3) =   1
                l(4) =   1
                l(5) =   2
                l(6) =   2
     Q(r) pseudized with  8 coefficients,  rinner =    1.400   1.400   1.400
                                                       1.400   1.400

     PseudoPot. # 2 for C  read from file:
     /home/549/hxw549/Short/pseudopotentials/C.star1s-pbe-mt_gipaw.UPF
     MD5 check sum: ef0cb3dee31bd9e4ba2a832a2c716264
     Pseudo is Norm-conserving, Zval =  5.0
     Generated by new atomic code, or converted to UPF format
     Using radial grid of 1073 points,  1 beta functions with: 
                l(1) =   0

     PseudoPot. # 3 for C  read from file:
     /home/549/hxw549/Short/pseudopotentials/C.pbe-mt_gipaw.UPF
     MD5 check sum: 5ac2f21f2c440b14befe521540822c15
     Pseudo is Norm-conserving, Zval =  4.0
     Generated by new atomic code, or converted to UPF format
     Using radial grid of 1073 points,  1 beta functions with: 
                l(1) =   0

     atomic species   valence    mass     pseudopotential
        Cu            11.00    63.54600     Cu( 1.00)
        C_h            5.00    12.01070     C ( 1.00)
        C              4.00    12.01070     C ( 1.00)

      2 Sym. Ops. (no inversion) found



   Cartesian axes

     site n.     atom                  positions (alat units)
         1           Cu  tau(   1) = (   0.0000000   0.0000567   0.9971194  )
         2           Cu  tau(   2) = (   0.2499927   0.2309760   0.9972946  )
         3           Cu  tau(   3) = (   0.5000000   0.0000313   0.9971490  )
         4           Cu  tau(   4) = (   0.7500073   0.2309760   0.9972946  )
         5           Cu  tau(   5) = (   0.0000000   0.4618437   0.9973425  )
         6           Cu  tau(   6) = (   0.2499840   0.6927701   0.9971914  )
         7           Cu  tau(   7) = (   0.5000000   0.4618722   0.9973119  )
         8           Cu  tau(   8) = (   0.7500160   0.6927701   0.9971914  )
         9           Cu  tau(   9) = (   0.0000000   0.9237521   0.9970621  )
        10           Cu  tau(  10) = (   0.2500157   1.1547420   0.9971373  )
        11           Cu  tau(  11) = (   0.5000000   0.9237453   0.9970727  )
        12           Cu  tau(  12) = (   0.7499843   1.1547420   0.9971373  )
        13           Cu  tau(  13) = (   0.0000000   1.3856555   0.9972830  )
        14           Cu  tau(  14) = (   0.2500029   1.6165618   0.9973242  )
        15           Cu  tau(  15) = (   0.5000000   1.3857014   0.9973005  )
        16           Cu  tau(  16) = (   0.7499971   1.6165618   0.9973242  )
        17           Cu  tau(  17) = (   0.0000000   1.8474941   0.9971969  )
        18           Cu  tau(  18) = (   0.2500043   2.0784518   0.9970745  )
        19           Cu  tau(  19) = (   0.5000000   1.8474499   0.9971773  )
        20           Cu  tau(  20) = (   0.7499957   2.0784518   0.9970745  )
        21           Cu  tau(  21) = (   0.0000000   0.2308065   1.2457643  )
        22           Cu  tau(  22) = (   0.2499892  -0.0001010   1.2455764  )
        23           Cu  tau(  23) = (   0.5000000   0.2308938   1.2456746  )
        24           Cu  tau(  24) = (   0.7500108  -0.0001010   1.2455764  )
        25           Cu  tau(  25) = (   0.0000000   0.6929786   1.2456406  )
        26           Cu  tau(  26) = (   0.2499874   0.4619293   1.2457459  )
        27           Cu  tau(  27) = (   0.5000000   0.6929012   1.2456074  )
        28           Cu  tau(  28) = (   0.7500126   0.4619293   1.2457459  )
        29           Cu  tau(  29) = (   0.0000000   1.1546142   1.2455676  )
        30           Cu  tau(  30) = (   0.2499981   0.9237849   1.2455149  )
        31           Cu  tau(  31) = (   0.5000000   1.1545763   1.2455800  )
        32           Cu  tau(  32) = (   0.7500019   0.9237849   1.2455149  )
        33           Cu  tau(  33) = (   0.0000000   1.6166029   1.2456910  )
        34           Cu  tau(  34) = (   0.2500161   1.3855492   1.2457134  )
        35           Cu  tau(  35) = (   0.5000000   1.6166555   1.2458019  )
        36           Cu  tau(  36) = (   0.7499839   1.3855492   1.2457134  )
        37           Cu  tau(  37) = (   0.0000000   2.0784993   1.2455162  )
        38           Cu  tau(  38) = (   0.2500161   1.8476387   1.2456210  )
        39           Cu  tau(  39) = (   0.5000000   2.0784755   1.2455152  )
        40           Cu  tau(  40) = (   0.7499839   1.8476387   1.2456210  )
        41           Cu  tau(  41) = (   0.0000000  -0.0003182   1.4954305  )
        42           Cu  tau(  42) = (   0.2500224   0.2307186   1.4951678  )
        43           Cu  tau(  43) = (   0.5000000  -0.0002059   1.4952775  )
        44           Cu  tau(  44) = (   0.7499776   0.2307186   1.4951678  )
        45           Cu  tau(  45) = (   0.0000000   0.4620254   1.4950571  )
        46           Cu  tau(  46) = (   0.2500339   0.6931225   1.4952807  )
        47           Cu  tau(  47) = (   0.5000000   0.4619896   1.4952144  )
        48           Cu  tau(  48) = (   0.7499661   0.6931225   1.4952807  )
        49           Cu  tau(  49) = (   0.0000000   0.9238798   1.4954544  )
        50           Cu  tau(  50) = (   0.2499708   1.1544329   1.4953374  )
        51           Cu  tau(  51) = (   0.5000000   0.9237633   1.4954072  )
        52           Cu  tau(  52) = (   0.7500292   1.1544329   1.4953374  )
        53           Cu  tau(  53) = (   0.0000000   1.3854453   1.4952066  )
        54           Cu  tau(  54) = (   0.2499861   1.6167017   1.4951298  )
        55           Cu  tau(  55) = (   0.5000000   1.3853760   1.4951346  )
        56           Cu  tau(  56) = (   0.7500139   1.6167017   1.4951298  )
        57           Cu  tau(  57) = (   0.0000000   1.8477718   1.4952308  )
        58           Cu  tau(  58) = (   0.2499930   2.0785254   1.4954090  )
        59           Cu  tau(  59) = (   0.5000000   1.8478762   1.4953503  )
        60           Cu  tau(  60) = (   0.7500070   2.0785254   1.4954090  )
        61           Cu  tau(  61) = (   0.0000000   0.2310733   1.7440777  )
        62           Cu  tau(  62) = (   0.2501089  -0.0001294   1.7450479  )
        63           Cu  tau(  63) = (   0.5000000   0.2306045   1.7445985  )
        64           Cu  tau(  64) = (   0.7498911  -0.0001294   1.7450479  )
        65           Cu  tau(  65) = (   0.0000000   0.6927994   1.7446059  )
        66           Cu  tau(  66) = (   0.2502918   0.4619532   1.7441197  )
        67           Cu  tau(  67) = (   0.5000000   0.6931011   1.7451318  )
        68           Cu  tau(  68) = (   0.7497082   0.4619532   1.7441197  )
        69           Cu  tau(  69) = (   0.0000000   1.1545789   1.7453503  )
        70           Cu  tau(  70) = (   0.2500220   0.9237908   1.7453835  )
        71           Cu  tau(  71) = (   0.5000000   1.1545999   1.7449118  )
        72           Cu  tau(  72) = (   0.7499780   0.9237908   1.7453835  )
        73           Cu  tau(  73) = (   0.0000000   1.6167791   1.7444075  )
        74           Cu  tau(  74) = (   0.2497438   1.3855115   1.7442733  )
        75           Cu  tau(  75) = (   0.5000000   1.6164906   1.7439233  )
        76           Cu  tau(  76) = (   0.7502562   1.3855115   1.7442733  )
        77           Cu  tau(  77) = (   0.0000000   2.0782721   1.7455014  )
        78           Cu  tau(  78) = (   0.2498426   1.8476765   1.7447807  )
        79           Cu  tau(  79) = (   0.5000000   2.0787016   1.7454002  )
        80           Cu  tau(  80) = (   0.7501574   1.8476765   1.7447807  )
        81           Cu  tau(  81) = (   0.0000000   0.0010732   1.9906710  )
        82           Cu  tau(  82) = (   0.2503054   0.2314650   1.9904877  )
        83           Cu  tau(  83) = (   0.5000000   0.0001335   1.9924670  )
        84           Cu  tau(  84) = (   0.7496946   0.2314650   1.9904877  )
        85           Cu  tau(  85) = (   0.0000000   0.4618379   1.9901778  )
        86           Cu  tau(  86) = (   0.2508441   0.6921348   1.9910282  )
        87           Cu  tau(  87) = (   0.5000000   0.4613052   1.9913358  )
        88           Cu  tau(  88) = (   0.7491559   0.6921348   1.9910282  )
        89           Cu  tau(  89) = (   0.0000000   0.9224699   1.9915918  )
        90           Cu  tau(  90) = (   0.2491275   1.1552920   1.9912642  )
        91           Cu  tau(  91) = (   0.5000000   0.9247757   1.9920574  )
        92           Cu  tau(  92) = (   0.7508725   1.1552920   1.9912642  )
        93           Cu  tau(  93) = (   0.0000000   1.3865904   1.9916296  )
        94           Cu  tau(  94) = (   0.2499532   1.6162906   1.9903050  )
        95           Cu  tau(  95) = (   0.5000000   1.3858063   1.9901800  )
        96           Cu  tau(  96) = (   0.7500468   1.6162906   1.9903050  )
        97           Cu  tau(  97) = (   0.0000000   1.8468318   1.9923212  )
        98           Cu  tau(  98) = (   0.2497561   2.0783183   1.9915134  )
        99           Cu  tau(  99) = (   0.5000000   1.8467805   1.9903847  )
       100           Cu  tau( 100) = (   0.7502439   2.0783183   1.9915134  )
       101           C   tau( 101) = (   0.0000000   0.0962962   2.4228003  )
       102           C   tau( 102) = (   0.0000000   0.2886925   2.4578366  )
       103           C   tau( 103) = (   0.1666323   0.0000435   2.3878590  )
       104           C   tau( 104) = (   0.1664900   0.3848966   2.4473596  )
       105           C   tau( 105) = (   0.3331238   0.0962174   2.4198998  )
       106           C   tau( 106) = (   0.3331280   0.2886629   2.4534452  )
       107           C   tau( 107) = (   0.5000000  -0.0000818   2.3845383  )
       108           C   tau( 108) = (   0.5000000   0.3849277   2.4429275  )
       109           C   tau( 109) = (   0.6668762   0.0962174   2.4198998  )
       110           C   tau( 110) = (   0.6668720   0.2886629   2.4534452  )
       111           C   tau( 111) = (   0.8333677   0.0000435   2.3878590  )
       112           C   tau( 112) = (   0.8335100   0.3848966   2.4473596  )
       113           C   tau( 113) = (   0.0000000   0.6735163   2.3553844  )
       114           C   tau( 114) = (   0.0000000   0.8659398   2.3193316  )
       115           C   tau( 115) = (   0.1664759   0.5773226   2.3882927  )
       116           C   tau( 116) = (   0.1667428   0.9622141   2.3283312  )
       117           C   tau( 117) = (   0.3332094   0.6735984   2.3519146  )
       118           C   tau( 118) = (   0.3332031   0.8660537   2.3188436  )
       119           C   tau( 119) = (   0.5000000   0.5773685   2.3848365  )
       120           C   tau( 120) = (   0.5000000   0.9623380   2.3274096  )
       121           C   tau( 121) = (   0.6667906   0.6735984   2.3519146  )
       122           C   tau( 122) = (   0.6667969   0.8660537   2.3188436  )
       123           C   tau( 123) = (   0.8335241   0.5773226   2.3882927  )
       124           C   tau( 124) = (   0.8332572   0.9622141   2.3283312  )
       125           C   tau( 125) = (   0.0000000   1.2508867   2.4191408  )
       126           C   tau( 126) = (   0.0000000   1.4433300   2.4518594  )
       127           C   tau( 127) = (   0.1667360   1.1546708   2.3859614  )
       128           C   tau( 128) = (   0.1668939   1.5396104   2.4444049  )
       129           C   tau( 129) = (   0.3335095   1.2509657   2.4217973  )
       130           C   tau( 130) = (   0.3334866   1.4433958   2.4564270  )
       131           C   tau( 131) = (   0.5000000   1.1547731   2.3885773  )
       132           C_h tau( 132) = (   0.5000000   1.5396099   2.4488369  )
       133           C   tau( 133) = (   0.6664905   1.2509657   2.4217973  )
       134           C   tau( 134) = (   0.6665134   1.4433958   2.4564270  )
       135           C   tau( 135) = (   0.8332640   1.1546708   2.3859614  )
       136           C   tau( 136) = (   0.8331061   1.5396104   2.4444049  )
       137           C   tau( 137) = (   0.0000000   1.8283510   2.3502882  )
       138           C   tau( 138) = (   0.0000000   2.0207949   2.3185726  )
       139           C   tau( 139) = (   0.1668959   1.7320513   2.3858666  )
       140           C   tau( 140) = (   0.1666186   2.1169980   2.3278568  )
       141           C   tau( 141) = (   0.3334155   1.8282368   2.3543407  )
       142           C   tau( 142) = (   0.3334352   2.0206763   2.3191825  )
       143           C   tau( 143) = (   0.5000000   1.7319961   2.3895667  )
       144           C   tau( 144) = (   0.5000000   2.1168754   2.3283177  )
       145           C   tau( 145) = (   0.6665845   1.8282368   2.3543407  )
       146           C   tau( 146) = (   0.6665648   2.0206763   2.3191825  )
       147           C   tau( 147) = (   0.8331041   1.7320513   2.3858666  )
       148           C   tau( 148) = (   0.8333814   2.1169980   2.3278568  )

     number of k points=     6  gaussian smearing, width (Ry)=  0.1000
                       cart. coord. in units 2pi/alat
        k(    1) = (   0.0000000   0.0000000   0.0000000), wk =   0.2500000
        k(    2) = (   0.0000000  -0.2165064   0.0000000), wk =   0.2500000
        k(    3) = (   0.2500000   0.0000000   0.0000000), wk =   0.5000000
        k(    4) = (   0.2500000  -0.2165064   0.0000000), wk =   0.5000000
        k(    5) = (  -0.5000000   0.0000000   0.0000000), wk =   0.2500000
        k(    6) = (  -0.5000000  -0.2165064   0.0000000), wk =   0.2500000

     Dense  grid:  2050409 G-vectors     FFT dimensions: (  80, 192, 270)

     Largest allocated arrays     est. size (Mb)     dimensions
        Kohn-Sham Wavefunctions        54.44 Mb     (    4604,  775)
        NL pseudopotentials           129.82 Mb     (    4604, 1848)
        Each V/rho on FFT grid          1.17 Mb     (   76800)
        Each G-vector array             0.28 Mb     (   36616)
        G-vector shells                 0.14 Mb     (   17932)
     Largest temporary arrays     est. size (Mb)     dimensions
        Auxiliary wavefunctions       217.78 Mb     (    4604, 3100)
        Each subspace H/S matrix        5.87 Mb     (     620,  620)
        Each <psi_i|beta_j> matrix     21.85 Mb     (    1848,  775)
        Arrays for rho mixing           9.38 Mb     (   76800,    8)

     Initial potential from superposition of free atoms
     Check: negative starting charge=   -0.001813

     starting charge 1266.81751, renormalised to 1292.00000

     negative rho (up, down):  1.849E-03 0.000E+00
     Starting wfc are 1284 randomized atomic wfcs

     total cpu time spent up to now is      107.9 secs

     Self-consistent Calculation

     iteration #  1     ecut=    80.00 Ry     beta=0.70
     Davidson diagonalization with overlap
     c_bands:  2 eigenvalues not converged
     c_bands:  5 eigenvalues not converged
     c_bands:  1 eigenvalues not converged
     c_bands:  1 eigenvalues not converged
     ethr =  1.00E-04,  avg # of iterations = 38.2

     negative rho (up, down):  2.739E+01 0.000E+00

     total cpu time spent up to now is     2122.2 secs

     total energy              =   -9471.11182361 Ry
     Harris-Foulkes estimate   =  -17293.21833015 Ry
     estimated scf accuracy    <  180019.84147255 Ry

     iteration #  2     ecut=    80.00 Ry     beta=0.70
     Davidson diagonalization with overlap
     ethr =  1.00E-02,  avg # of iterations = 12.8

     negative rho (up, down):  3.145E+01 0.000E+00

     total cpu time spent up to now is     3045.0 secs

     total energy              =  -12194.05497971 Ry
     Harris-Foulkes estimate   =  -13662.96670257 Ry
     estimated scf accuracy    <   23794.91843983 Ry

     iteration #  3     ecut=    80.00 Ry     beta=0.70
     Davidson diagonalization with overlap
     ethr =  1.00E-02,  avg # of iterations =  7.7

     negative rho (up, down):  3.180E+01 0.000E+00

     total cpu time spent up to now is     3582.5 secs

     total energy              =  -12465.76934444 Ry
     Harris-Foulkes estimate   =  -13407.44706298 Ry
     estimated scf accuracy    <    5780.20341292 Ry

     iteration #  4     ecut=    80.00 Ry     beta=0.70
     Davidson diagonalization with overlap
     ethr =  1.00E-02,  avg # of iterations =  6.0

     negative rho (up, down):  2.339E+01 0.000E+00

     total cpu time spent up to now is     4055.3 secs

     total energy              =  -12849.14076091 Ry
     Harris-Foulkes estimate   =  -13084.80385377 Ry
     estimated scf accuracy    <    1822.77801640 Ry

     iteration #  5     ecut=    80.00 Ry     beta=0.70
     Davidson diagonalization with overlap
     ethr =  1.00E-02,  avg # of iterations =  3.8

     negative rho (up, down):  1.764E+01 0.000E+00

     total cpu time spent up to now is     4331.9 secs

     total energy              =  -12844.31350612 Ry
     Harris-Foulkes estimate   =  -12959.70601378 Ry
     estimated scf accuracy    <    1137.32630134 Ry

     iteration #  6     ecut=    80.00 Ry     beta=0.70
     Davidson diagonalization with overlap
     ethr =  1.00E-02,  avg # of iterations =  3.0

     negative rho (up, down):  1.196E+01 0.000E+00

     total cpu time spent up to now is     4529.9 secs

     total energy              =  -12832.53829366 Ry
     Harris-Foulkes estimate   =  -12900.76499793 Ry
     estimated scf accuracy    <     536.39233549 Ry

     iteration #  7     ecut=    80.00 Ry     beta=0.70
     Davidson diagonalization with overlap
     ethr =  1.00E-02,  avg # of iterations =  2.0

     negative rho (up, down):  8.229E+00 0.000E+00

     total cpu time spent up to now is     4715.0 secs

     total energy              =  -12800.13461865 Ry
     Harris-Foulkes estimate   =  -12845.45404945 Ry
     estimated scf accuracy    <     413.95021400 Ry

     iteration #  8     ecut=    80.00 Ry     beta=0.70
     Davidson diagonalization with overlap
     ethr =  1.00E-02,  avg # of iterations =  2.0

     negative rho (up, down):  6.789E+00 0.000E+00

     total cpu time spent up to now is     4895.1 secs

     total energy              =  -12787.32497034 Ry
     Harris-Foulkes estimate   =  -12814.19748455 Ry
     estimated scf accuracy    <     424.06024139 Ry

     iteration #  9     ecut=    80.00 Ry     beta=0.70
     Davidson diagonalization with overlap
     ethr =  1.00E-02,  avg # of iterations =  2.2

     negative rho (up, down):  5.890E+00 0.000E+00

     total cpu time spent up to now is     5075.5 secs

     total energy              =  -12785.38418392 Ry
     Harris-Foulkes estimate   =  -12797.58696375 Ry
     estimated scf accuracy    <     196.29647487 Ry

     iteration # 10     ecut=    80.00 Ry     beta=0.70
     Davidson diagonalization with overlap
     ethr =  1.00E-02,  avg # of iterations =  1.0

     negative rho (up, down):  1.569E+00 0.000E+00

     total cpu time spent up to now is     5242.7 secs

     total energy              =  -12742.60138521 Ry
     Harris-Foulkes estimate   =  -12787.61765401 Ry
     estimated scf accuracy    <     160.43029212 Ry

     iteration # 11     ecut=    80.00 Ry     beta=0.70
     Davidson diagonalization with overlap
     ethr =  1.00E-02,  avg # of iterations =  3.0

     negative rho (up, down):  1.001E+00 0.000E+00

     total cpu time spent up to now is     5433.9 secs

     total energy              =  -12720.43375103 Ry
     Harris-Foulkes estimate   =  -12754.11216436 Ry
     estimated scf accuracy    <     360.94737566 Ry

     iteration # 12     ecut=    80.00 Ry     beta=0.70
     Davidson diagonalization with overlap
     ethr =  1.00E-02,  avg # of iterations =  2.2

     negative rho (up, down):  2.054E+00 0.000E+00

     total cpu time spent up to now is     5615.3 secs

     total energy              =  -12719.93364656 Ry
     Harris-Foulkes estimate   =  -12741.13941757 Ry
     estimated scf accuracy    <     311.82745274 Ry

     iteration # 13     ecut=    80.00 Ry     beta=0.70
     Davidson diagonalization with overlap
     ethr =  1.00E-02,  avg # of iterations =  1.3

     negative rho (up, down):  3.480E+00 0.000E+00

     total cpu time spent up to now is     5785.9 secs

     total energy              =  -12717.52337769 Ry
     Harris-Foulkes estimate   =  -12730.21484603 Ry
     estimated scf accuracy    <      98.35827221 Ry

     iteration # 14     ecut=    80.00 Ry     beta=0.70
     Davidson diagonalization with overlap
     ethr =  7.61E-03,  avg # of iterations =  2.2

     negative rho (up, down):  4.557E+00 0.000E+00

     total cpu time spent up to now is     5967.8 secs

     total energy              =  -12718.79642164 Ry
     Harris-Foulkes estimate   =  -12726.70962036 Ry
     estimated scf accuracy    <     141.95140020 Ry

     iteration # 15     ecut=    80.00 Ry     beta=0.70
     Davidson diagonalization with overlap
     ethr =  7.61E-03,  avg # of iterations =  1.0

     negative rho (up, down):  4.426E+00 0.000E+00

     total cpu time spent up to now is     6134.4 secs

     total energy              =  -12719.06056984 Ry
     Harris-Foulkes estimate   =  -12722.90249195 Ry
     estimated scf accuracy    <      76.01742801 Ry

     iteration # 16     ecut=    80.00 Ry     beta=0.70
     Davidson diagonalization with overlap
     ethr =  5.88E-03,  avg # of iterations =  1.0

     negative rho (up, down):  5.346E+00 0.000E+00

     total cpu time spent up to now is     6301.5 secs

     total energy              =  -12717.00780573 Ry
     Harris-Foulkes estimate   =  -12720.44018917 Ry
     estimated scf accuracy    <      40.69091595 Ry

     iteration # 17     ecut=    80.00 Ry     beta=0.70
     Davidson diagonalization with overlap
     ethr =  3.15E-03,  avg # of iterations =  1.5

     negative rho (up, down):  5.819E+00 0.000E+00

     total cpu time spent up to now is     6473.9 secs

     total energy              =  -12714.92799109 Ry
     Harris-Foulkes estimate   =  -12717.68811807 Ry
     estimated scf accuracy    <      31.52624923 Ry

     iteration # 18     ecut=    80.00 Ry     beta=0.70
     Davidson diagonalization with overlap
     ethr =  2.44E-03,  avg # of iterations =  4.8

     negative rho (up, down):  3.610E+00 0.000E+00

     total cpu time spent up to now is     6685.7 secs

     total energy              =  -12712.29479428 Ry
     Harris-Foulkes estimate   =  -12715.69000096 Ry
     estimated scf accuracy    <      21.02465851 Ry

     iteration # 19     ecut=    80.00 Ry     beta=0.70
     Davidson diagonalization with overlap
     ethr =  1.63E-03,  avg # of iterations =  4.0

     negative rho (up, down):  3.338E+00 0.000E+00

     total cpu time spent up to now is     6887.5 secs

     total energy              =  -12712.12307461 Ry
     Harris-Foulkes estimate   =  -12713.02089037 Ry
     estimated scf accuracy    <       8.84682215 Ry

     iteration # 20     ecut=    80.00 Ry     beta=0.70
     Davidson diagonalization with overlap
     ethr =  6.85E-04,  avg # of iterations =  5.8

     negative rho (up, down):  2.192E+00 0.000E+00

     total cpu time spent up to now is     7115.5 secs

     total energy              =  -12711.57647517 Ry
     Harris-Foulkes estimate   =  -12712.35221266 Ry
     estimated scf accuracy    <       7.49945865 Ry

     iteration # 21     ecut=    80.00 Ry     beta=0.70
     Davidson diagonalization with overlap
     ethr =  5.80E-04,  avg # of iterations =  2.0

     negative rho (up, down):  1.989E+00 0.000E+00

     total cpu time spent up to now is     7294.9 secs

     total energy              =  -12711.01713868 Ry
     Harris-Foulkes estimate   =  -12711.66654909 Ry
     estimated scf accuracy    <       7.87195249 Ry

     iteration # 22     ecut=    80.00 Ry     beta=0.70
     Davidson diagonalization with overlap
     ethr =  5.80E-04,  avg # of iterations =  1.0

     negative rho (up, down):  1.268E+00 0.000E+00

     total cpu time spent up to now is     7463.9 secs

     total energy              =  -12710.34255897 Ry
     Harris-Foulkes estimate   =  -12711.16950864 Ry
     estimated scf accuracy    <       8.96978038 Ry

     iteration # 23     ecut=    80.00 Ry     beta=0.70
     Davidson diagonalization with overlap
     ethr =  5.80E-04,  avg # of iterations =  1.0

     negative rho (up, down):  1.607E+00 0.000E+00

     total cpu time spent up to now is     7631.1 secs

     total energy              =  -12709.92698557 Ry
     Harris-Foulkes estimate   =  -12710.48224447 Ry
     estimated scf accuracy    <       7.97776215 Ry

     iteration # 24     ecut=    80.00 Ry     beta=0.70
     Davidson diagonalization with overlap
     ethr =  5.80E-04,  avg # of iterations =  2.0

     negative rho (up, down):  9.288E-01 0.000E+00

     total cpu time spent up to now is     7810.8 secs

     total energy              =  -12707.75830308 Ry
     Harris-Foulkes estimate   =  -12710.34513770 Ry
     estimated scf accuracy    <       6.02123608 Ry

     iteration # 25     ecut=    80.00 Ry     beta=0.70
     Davidson diagonalization with overlap
     ethr =  4.66E-04,  avg # of iterations =  5.5

     negative rho (up, down):  6.600E-01 0.000E+00

     total cpu time spent up to now is     8038.2 secs

     total energy              =  -12707.07761177 Ry
     Harris-Foulkes estimate   =  -12707.92094988 Ry
     estimated scf accuracy    <       5.73729891 Ry

     iteration # 26     ecut=    80.00 Ry     beta=0.70
     Davidson diagonalization with overlap
     ethr =  4.44E-04,  avg # of iterations =  2.0

     negative rho (up, down):  1.070E+00 0.000E+00

     total cpu time spent up to now is     8218.6 secs

     total energy              =  -12707.08214762 Ry
     Harris-Foulkes estimate   =  -12707.43018987 Ry
     estimated scf accuracy    <       1.84340648 Ry

     iteration # 27     ecut=    80.00 Ry     beta=0.70
     Davidson diagonalization with overlap
     ethr =  1.43E-04,  avg # of iterations =  6.3

     negative rho (up, down):  1.048E+00 0.000E+00

     total cpu time spent up to now is     8463.4 secs

     total energy              =  -12707.06488195 Ry
     Harris-Foulkes estimate   =  -12707.19174952 Ry
     estimated scf accuracy    <       0.99247967 Ry

     iteration # 28     ecut=    80.00 Ry     beta=0.70
     Davidson diagonalization with overlap
     ethr =  7.68E-05,  avg # of iterations =  2.2

     negative rho (up, down):  1.028E+00 0.000E+00

     total cpu time spent up to now is     8645.2 secs

     total energy              =  -12706.99407049 Ry
     Harris-Foulkes estimate   =  -12707.10037373 Ry
     estimated scf accuracy    <       0.53201484 Ry

     iteration # 29     ecut=    80.00 Ry     beta=0.70
     Davidson diagonalization with overlap
     ethr =  4.12E-05,  avg # of iterations =  6.8

     negative rho (up, down):  7.238E-01 0.000E+00

     total cpu time spent up to now is     8896.2 secs

     total energy              =  -12706.91236856 Ry
     Harris-Foulkes estimate   =  -12707.02203471 Ry
     estimated scf accuracy    <       0.49899439 Ry

     iteration # 30     ecut=    80.00 Ry     beta=0.70
     Davidson diagonalization with overlap
     ethr =  3.86E-05,  avg # of iterations =  7.5

     negative rho (up, down):  7.195E-01 0.000E+00

     total cpu time spent up to now is     9150.7 secs

     total energy              =  -12706.88163814 Ry
     Harris-Foulkes estimate   =  -12706.93393204 Ry
     estimated scf accuracy    <       0.46134699 Ry

     iteration # 31     ecut=    80.00 Ry     beta=0.70
     Davidson diagonalization with overlap
     ethr =  3.57E-05,  avg # of iterations =  6.2

     negative rho (up, down):  2.881E-01 0.000E+00

     total cpu time spent up to now is     9400.5 secs

     total energy              =  -12706.84281955 Ry
     Harris-Foulkes estimate   =  -12706.90126142 Ry
     estimated scf accuracy    <       0.15022616 Ry

     iteration # 32     ecut=    80.00 Ry     beta=0.70
     Davidson diagonalization with overlap
     c_bands:  1 eigenvalues not converged
     ethr =  1.16E-05,  avg # of iterations = 17.3

     negative rho (up, down):  1.898E-01 0.000E+00

     total cpu time spent up to now is     9808.2 secs

     total energy              =  -12706.84973386 Ry
     Harris-Foulkes estimate   =  -12706.85547832 Ry
     estimated scf accuracy    <       0.03677923 Ry

     iteration # 33     ecut=    80.00 Ry     beta=0.70
     Davidson diagonalization with overlap
     c_bands:  1 eigenvalues not converged
     ethr =  2.85E-06,  avg # of iterations = 13.3

     negative rho (up, down):  1.223E-01 0.000E+00

     total cpu time spent up to now is    10140.0 secs

     total energy              =  -12706.84879804 Ry
     Harris-Foulkes estimate   =  -12706.85240790 Ry
     estimated scf accuracy    <       0.00813142 Ry

     iteration # 34     ecut=    80.00 Ry     beta=0.70
     Davidson diagonalization with overlap
     c_bands:  1 eigenvalues not converged
     c_bands:  1 eigenvalues not converged
     ethr =  6.29E-07,  avg # of iterations = 15.5

     negative rho (up, down):  6.222E-02 0.000E+00

     total cpu time spent up to now is    10505.5 secs

     total energy              =  -12706.84769309 Ry
     Harris-Foulkes estimate   =  -12706.84948204 Ry
     estimated scf accuracy    <       0.00303488 Ry

     iteration # 35     ecut=    80.00 Ry     beta=0.70
     Davidson diagonalization with overlap
     c_bands:  3 eigenvalues not converged
     c_bands:  1 eigenvalues not converged
     ethr =  2.35E-07,  avg # of iterations = 16.5

     negative rho (up, down):  1.888E-02 0.000E+00

     total cpu time spent up to now is    10882.8 secs

     total energy              =  -12706.84696895 Ry
     Harris-Foulkes estimate   =  -12706.84796727 Ry
     estimated scf accuracy    <       0.00156123 Ry

     iteration # 36     ecut=    80.00 Ry     beta=0.70
     Davidson diagonalization with overlap
     c_bands:  1 eigenvalues not converged
     c_bands:  1 eigenvalues not converged
     ethr =  1.21E-07,  avg # of iterations = 17.3

     negative rho (up, down):  6.027E-03 0.000E+00

     total cpu time spent up to now is    11283.4 secs

     total energy              =  -12706.84699641 Ry
     Harris-Foulkes estimate   =  -12706.84717725 Ry
     estimated scf accuracy    <       0.00078148 Ry

     iteration # 37     ecut=    80.00 Ry     beta=0.70
     Davidson diagonalization with overlap
     c_bands:  1 eigenvalues not converged
     c_bands:  1 eigenvalues not converged
     ethr =  6.05E-08,  avg # of iterations = 11.8

     negative rho (up, down):  2.367E-03 0.000E+00

     total cpu time spent up to now is    11593.3 secs

     total energy              =  -12706.84721330 Ry
     Harris-Foulkes estimate   =  -12706.84705030 Ry
     estimated scf accuracy    <       0.00009291 Ry

     iteration # 38     ecut=    80.00 Ry     beta=0.70
     Davidson diagonalization with overlap
     c_bands:  1 eigenvalues not converged
     c_bands:  1 eigenvalues not converged
     c_bands:  1 eigenvalues not converged
     ethr =  7.19E-09,  avg # of iterations = 13.2

     negative rho (up, down):  2.533E-03 0.000E+00

     total cpu time spent up to now is    11936.3 secs

     total energy              =  -12706.84724794 Ry
     Harris-Foulkes estimate   =  -12706.84722058 Ry
     estimated scf accuracy    <       0.00002897 Ry

     iteration # 39     ecut=    80.00 Ry     beta=0.70
     Davidson diagonalization with overlap
     ethr =  2.24E-09,  avg # of iterations =  5.8

     negative rho (up, down):  2.950E-03 0.000E+00

     total cpu time spent up to now is    12170.8 secs

     total energy              =  -12706.84726171 Ry
     Harris-Foulkes estimate   =  -12706.84725043 Ry
     estimated scf accuracy    <       0.00001151 Ry

     iteration # 40     ecut=    80.00 Ry     beta=0.70
     Davidson diagonalization with overlap
     c_bands:  1 eigenvalues not converged
     ethr =  8.91E-10,  avg # of iterations =  7.0

     negative rho (up, down):  2.481E-03 0.000E+00

     total cpu time spent up to now is    12418.5 secs

     total energy              =  -12706.84725929 Ry
     Harris-Foulkes estimate   =  -12706.84726265 Ry
     estimated scf accuracy    <       0.00000469 Ry

     iteration # 41     ecut=    80.00 Ry     beta=0.70
     Davidson diagonalization with overlap
     ethr =  3.63E-10,  avg # of iterations =  2.0

     negative rho (up, down):  1.994E-03 0.000E+00

     total cpu time spent up to now is    12601.9 secs

     total energy              =  -12706.84725898 Ry
     Harris-Foulkes estimate   =  -12706.84725965 Ry
     estimated scf accuracy    <       0.00000239 Ry

     iteration # 42     ecut=    80.00 Ry     beta=0.70
     Davidson diagonalization with overlap
     ethr =  1.85E-10,  avg # of iterations =  2.8

     negative rho (up, down):  2.008E-03 0.000E+00

     total cpu time spent up to now is    12804.4 secs

     total energy              =  -12706.84725952 Ry
     Harris-Foulkes estimate   =  -12706.84725928 Ry
     estimated scf accuracy    <       0.00000068 Ry

     iteration # 43     ecut=    80.00 Ry     beta=0.70
     Davidson diagonalization with overlap
     ethr =  5.30E-11,  avg # of iterations =  3.0

     negative rho (up, down):  2.044E-03 0.000E+00

     total cpu time spent up to now is    13004.1 secs

     total energy              =  -12706.84725975 Ry
     Harris-Foulkes estimate   =  -12706.84725959 Ry
     estimated scf accuracy    <       0.00000020 Ry

     iteration # 44     ecut=    80.00 Ry     beta=0.70
     Davidson diagonalization with overlap
     ethr =  1.55E-11,  avg # of iterations =  3.0

     negative rho (up, down):  2.032E-03 0.000E+00

     total cpu time spent up to now is    13206.5 secs

     total energy              =  -12706.84725986 Ry
     Harris-Foulkes estimate   =  -12706.84725977 Ry
     estimated scf accuracy    <       0.00000006 Ry

     iteration # 45     ecut=    80.00 Ry     beta=0.70
     Davidson diagonalization with overlap
     ethr =  4.41E-12,  avg # of iterations =  3.0

     negative rho (up, down):  2.038E-03 0.000E+00

     total cpu time spent up to now is    13429.8 secs

     total energy              =  -12706.84725989 Ry
     Harris-Foulkes estimate   =  -12706.84725987 Ry
     estimated scf accuracy    <       0.00000002 Ry

     iteration # 46     ecut=    80.00 Ry     beta=0.70
     Davidson diagonalization with overlap
     ethr =  1.26E-12,  avg # of iterations =  3.0

     negative rho (up, down):  2.076E-03 0.000E+00

     total cpu time spent up to now is    13627.1 secs

     End of self-consistent calculation

          k = 0.0000 0.0000 0.0000 (256287 PWs)   bands (ev):

   -16.8931 -16.0274 -15.9803 -15.2399 -14.7875 -14.4960 -14.4027 -14.0384
   -14.0226 -14.0043 -13.9138 -13.3242 -13.1918 -13.1358 -13.0420 -12.7538
   -12.6974 -11.6171 -11.4030 -11.3425 -11.2798 -11.2737 -10.0302  -9.8241
    -9.7579  -9.3723  -9.3332  -8.7156  -8.5698  -8.5068  -8.4430  -7.9578
    -7.7690  -7.7178  -7.6274  -7.4391  -7.4038  -7.1739  -7.1611  -6.3059
    -6.2575  -6.0376  -5.9856  -5.9543  -5.8914  -5.8250  -5.7831  -5.7168
    -5.5215  -5.4860  -5.3451  -4.8883  -4.8661  -4.8526  -4.8027  -4.7532
    -4.5486  -4.3826  -4.2621  -4.1269  -4.0202  -3.9938  -3.9899  -3.9683
    -3.8034  -3.6104  -3.4931  -3.4320  -3.4243  -3.4153  -3.3724  -3.2625
    -3.1739  -3.1467  -3.0467  -3.0440  -3.0120  -3.0108  -2.9498  -2.8962
    -2.8887  -2.8222  -2.8135  -2.7992  -2.7964  -2.7709  -2.7528  -2.7089
    -2.7088  -2.6928  -2.5107  -2.5001  -2.4102  -2.3245  -2.3062  -2.2998
    -2.2169  -2.1990  -2.1652  -2.1634  -2.1611  -2.1606  -2.1484  -2.1391
    -2.1139  -2.0734  -2.0318  -2.0304  -2.0296  -2.0278  -1.9577  -1.9517
    -1.8798  -1.8483  -1.8469  -1.7850  -1.7501  -1.7480  -1.7455  -1.7378
    -1.6990  -1.6897  -1.6779  -1.6668  -1.6654  -1.6217  -1.6084  -1.5838
    -1.5741  -1.5696  -1.5567  -1.5402  -1.5356  -1.5283  -1.5262  -1.5248
    -1.5225  -1.5108  -1.4408  -1.4403  -1.4246  -1.4069  -1.3797  -1.3759
    -1.3744  -1.3616  -1.3085  -1.2756  -1.2703  -1.2596  -1.2230  -1.2194
    -1.2062  -1.2013  -1.1994  -1.1751  -1.1736  -1.1347  -1.0989  -1.0882
    -1.0738  -1.0699  -1.0589  -1.0529  -1.0446  -1.0434  -1.0363  -1.0337
    -1.0320  -1.0308  -1.0263  -1.0195  -1.0194  -1.0115  -0.9891  -0.9677
    -0.9573  -0.9535  -0.9475  -0.9368  -0.9328  -0.9255  -0.9119  -0.9006
    -0.8780  -0.8717  -0.8664  -0.8654  -0.8649  -0.8642  -0.8634  -0.8623
    -0.8617  -0.8574  -0.8570  -0.8566  -0.8522  -0.8513  -0.8493  -0.8412
    -0.8396  -0.8064  -0.7933  -0.7235  -0.7224  -0.7028  -0.7011  -0.6934
    -0.6928  -0.6866  -0.6750  -0.6649  -0.6532  -0.6506  -0.6326  -0.6314
    -0.6263  -0.6243  -0.6073  -0.6031  -0.6003  -0.5908  -0.5733  -0.5724
    -0.5717  -0.5703  -0.5676  -0.5673  -0.5666  -0.5498  -0.5081  -0.5056
    -0.4518  -0.4514  -0.4482  -0.4481  -0.4359  -0.4346  -0.4241  -0.4190
    -0.4175  -0.4144  -0.4144  -0.4130  -0.4127  -0.4112  -0.3962  -0.3953
    -0.3952  -0.3883  -0.3778  -0.3774  -0.3631  -0.3622  -0.3294  -0.3141
    -0.3042  -0.3010  -0.3008  -0.2733  -0.2731  -0.2727  -0.2726  -0.2685
    -0.2682  -0.2667  -0.2529  -0.2521  -0.2412  -0.2397  -0.2367  -0.2266
    -0.2259  -0.2256  -0.2254  -0.2244  -0.2229  -0.2220  -0.2181  -0.2039
    -0.2031  -0.2012  -0.2007  -0.1970  -0.1854  -0.1388  -0.1373  -0.1360
    -0.1285  -0.1282  -0.1010  -0.1008  -0.0947  -0.0943  -0.0863  -0.0755
    -0.0753  -0.0691  -0.0686  -0.0682  -0.0633  -0.0291  -0.0209  -0.0194
    -0.0157  -0.0092   0.0037   0.0049   0.0105   0.0110   0.0153   0.0194
     0.0254   0.0254   0.0311   0.0341   0.0354   0.0388   0.0394   0.0487
     0.0507   0.0512   0.0537   0.0579   0.0593   0.0654   0.0686   0.0943
     0.0961   0.1012   0.1231   0.1248   0.1422   0.1563   0.1604   0.1713
     0.1799   0.1957   0.2222   0.2227   0.2264   0.2266   0.2279   0.2297
     0.2444   0.2456   0.2467   0.2511   0.2527   0.2543   0.2550   0.2716
     0.3086   0.3120   0.3186   0.3310   0.3325   0.3475   0.3569   0.3606
     0.3627   0.3644   0.3695   0.3713   0.3728   0.3819   0.3913   0.4100
     0.4120   0.4164   0.4205   0.4248   0.4255   0.4418   0.4739   0.4766
     0.4780   0.4810   0.4814   0.4836   0.4836   0.4920   0.4941   0.5042
     0.5072   0.5181   0.5197   0.5208   0.5237   0.5246   0.5247   0.5255
     0.5290   0.5364   0.5382   0.5386   0.5580   0.5582   0.5831   0.5833
     0.5878   0.5955   0.5961   0.5965   0.6135   0.6161   0.6192   0.6264
     0.6384   0.6391   0.6405   0.6416   0.6423   0.6465   0.6560   0.6578
     0.6663   0.6682   0.6740   0.6774   0.6776   0.6809   0.6825   0.6835
     0.6848   0.6881   0.6952   0.7055   0.7244   0.7319   0.7323   0.7354
     0.7355   0.7362   0.7404   0.7404   0.7454   0.7482   0.7547   0.7732
     0.7736   0.7935   0.7969   0.7996   0.8003   0.8025   0.8040   0.8105
     0.8117   0.8120   0.8403   0.8411   0.8638   0.8642   0.8661   0.8670
     0.8678   0.8800   0.8826   0.8906   0.8925   0.8947   0.8949   0.9009
     0.9128   0.9160   0.9215   0.9256   0.9283   0.9372   0.9379   0.9547
     0.9562   0.9588   0.9611   0.9642   0.9752   0.9828   0.9860   0.9891
     0.9898   0.9944   1.0001   1.0013   1.0030   1.0058   1.0086   1.0093
     1.0152   1.0164   1.0179   1.0256   1.0261   1.0349   1.0400   1.0422
     1.0531   1.0656   1.0684   1.0712   1.0786   1.0834   1.0836   1.0885
     1.0893   1.1083   1.1087   1.1109   1.1115   1.1216   1.1248   1.1254
     1.1309   1.1347   1.1372   1.1577   1.1642   1.1791   1.1822   1.1896
     1.1947   1.1948   1.1993   1.2008   1.2011   1.2068   1.2140   1.2155
     1.2178   1.2206   1.2222   1.2240   1.2317   1.2323   1.2384   1.2393
     1.2423   1.2461   1.2476   1.2509   1.2591   1.2604   1.2605   1.2632
     1.2662   1.2678   1.2738   1.2826   1.2842   1.2915   1.2933   1.2952
     1.2995   1.2999   1.3003   1.3008   1.3039   1.3101   1.3328   1.3385
     1.3468   1.3491   1.3502   1.3508   1.3509   1.3519   1.3575   1.3608
     1.3720   1.3728   1.3762   1.3778   1.3922   1.4025   1.4054   1.4077
     1.4078   1.4098   1.4107   1.4132   1.4156   1.4234   1.4237   1.4240
     1.4303   1.4323   1.4371   1.4401   1.4407   1.4436   1.4587   1.4591
     1.4613   1.4631   1.4702   1.4910   1.4940   1.5006   1.5036   1.5054
     1.5107   1.5219   1.5325   1.5377   1.5445   1.5452   1.5717   1.5741
     1.5823   1.5956   1.5963   1.5976   1.6164   1.6329   1.6352   1.6359
     1.6402   1.6432   1.6660   1.6705   1.8630   1.9477   2.0841   2.1324
     2.1563   2.1614   2.1884   2.1937   2.1945   2.1948   2.2023   2.2079
     2.2107   2.2558   2.4038   2.4145   2.4220   2.4635   2.4651   2.4680
     2.5009   2.5242   2.5403   2.5675   2.6576   2.6609   2.9365   2.9981
     3.0056   3.0647   3.2027   3.4309   3.6119   3.7270   3.7984   3.8552
     3.8645   3.8869   3.8889   3.8914   3.9480   3.9604   3.9825   3.9881
     4.0076   4.0130   4.1208   4.1216   4.2047   4.2152   4.2270   4.2850
     4.3526   4.3827   4.5285   4.5431   4.5763   4.6338   4.6970   4.7570
     5.2798   5.3078   5.3158   5.4107   5.5754   5.7548   5.8682   5.9040
     5.9282   5.9418   6.0300   6.0983   6.3501   6.3578   6.3620   6.4362
     6.4376   6.4555   6.4932   6.5188   6.5326   6.5887   6.5909   6.6915
     6.7299   6.7338   6.7776   6.7790   6.9578   6.9589   6.9700   7.0241
     7.1755   7.2161   7.3029   7.3408   7.5262   7.5901   7.6323   7.6691
     7.6710   7.7014   7.7495   7.7660   7.8061   7.8932   7.9617   8.0356
     8.0652   8.1368   8.2008   8.2517   8.2552   8.3146   8.3151   8.3176
     8.3188   8.3335   8.3364   8.4486   8.4619   8.4686   8.5222   8.5370
     8.5632   8.6726   8.6896   8.7551   8.7658   8.7683   8.7829   8.8256
     8.8328   8.8590   8.9797   8.9813   9.0859   9.0894   9.1602   9.2532
     9.3124   9.3173   9.3377   9.3619   9.4472   9.5424   9.5651   9.5784
     9.6066   9.6569   9.7137   9.7358   9.8222  10.0036  10.0350

          k = 0.0000-0.2165 0.0000 (256176 PWs)   bands (ev):

   -16.8921 -16.1215 -15.8100 -15.4105 -14.7645 -14.3840 -14.1600 -14.1497
   -14.0728 -14.0526 -13.7207 -13.6532 -13.4588 -13.4477 -12.4465 -12.2740
   -12.1704 -12.1257 -12.0720 -12.0258 -10.6125 -10.4861 -10.4193 -10.3065
    -9.3526  -9.1765  -9.1184  -8.9722  -8.8167  -8.7753  -8.2732  -8.1751
    -7.9500  -7.9225  -7.3523  -7.2030  -6.8272  -6.8002  -6.6963  -6.6942
    -6.6647  -6.6431  -6.2987  -6.2792  -5.8988  -5.8969  -5.4541  -5.3233
    -5.2032  -5.1161  -5.0880  -5.0440  -4.9502  -4.8474  -4.8367  -4.8213
    -4.7434  -4.6993  -4.5916  -4.4567  -4.2337  -3.9375  -3.7863  -3.6710
    -3.5671  -3.5147  -3.3234  -3.3230  -3.3196  -3.3181  -3.1564  -3.1547
    -3.1237  -3.1066  -3.0905  -3.0529  -3.0418  -3.0185  -3.0173  -3.0029
    -2.9679  -2.9344  -2.8758  -2.8620  -2.7473  -2.6607  -2.6351  -2.6313
    -2.5970  -2.5897  -2.5778  -2.5697  -2.5693  -2.4983  -2.3735  -2.3170
    -2.2910  -2.2718  -2.2540  -2.2471  -2.2453  -2.2428  -2.1731  -2.1429
    -2.1248  -2.1213  -2.0938  -2.0509  -1.9968  -1.9966  -1.9692  -1.9689
    -1.9081  -1.8438  -1.8364  -1.7788  -1.7708  -1.7681  -1.7570  -1.7561
    -1.7521  -1.7519  -1.7318  -1.7303  -1.7176  -1.7047  -1.6558  -1.6548
    -1.6435  -1.5566  -1.4808  -1.4808  -1.4647  -1.4637  -1.4487  -1.4465
    -1.3905  -1.3870  -1.3798  -1.3794  -1.3264  -1.3263  -1.2986  -1.2949
    -1.2847  -1.2845  -1.2819  -1.2818  -1.2641  -1.2599  -1.2409  -1.2389
    -1.2372  -1.2328  -1.2284  -1.2255  -1.1868  -1.1791  -1.1717  -1.1529
    -1.1442  -1.1398  -1.1376  -1.1364  -1.0984  -1.0980  -1.0607  -1.0605
    -1.0568  -1.0565  -1.0394  -1.0333  -0.9961  -0.9948  -0.9931  -0.9920
    -0.9917  -0.9914  -0.9420  -0.9414  -0.9297  -0.9293  -0.9239  -0.9234
    -0.9128  -0.9084  -0.9057  -0.9057  -0.8533  -0.8443  -0.8377  -0.8314
    -0.8312  -0.8227  -0.8185  -0.8159  -0.8157  -0.8135  -0.7932  -0.7922
    -0.7684  -0.7680  -0.7679  -0.7610  -0.7154  -0.6660  -0.6655  -0.6634
    -0.6630  -0.6416  -0.6414  -0.6203  -0.6199  -0.6151  -0.6135  -0.6093
    -0.6092  -0.5961  -0.5956  -0.5824  -0.5596  -0.5585  -0.5572  -0.5565
    -0.5551  -0.5537  -0.5491  -0.5458  -0.5188  -0.5187  -0.5025  -0.4921
    -0.4921  -0.4813  -0.4797  -0.4691  -0.4677  -0.4566  -0.4561  -0.4465
    -0.4463  -0.4420  -0.4328  -0.4306  -0.3842  -0.3693  -0.3678  -0.3676
    -0.3668  -0.3509  -0.3460  -0.3442  -0.3142  -0.3134  -0.3126  -0.3114
    -0.3029  -0.3017  -0.2904  -0.2875  -0.2822  -0.2810  -0.2698  -0.2668
    -0.2656  -0.2640  -0.2635  -0.2587  -0.2577  -0.2571  -0.2564  -0.2475
    -0.2469  -0.2160  -0.2154  -0.2143  -0.2137  -0.1943  -0.1656  -0.1611
    -0.1532  -0.1521  -0.1514  -0.1507  -0.1486  -0.1451  -0.1415  -0.1406
    -0.1241  -0.1227  -0.1162  -0.1084  -0.1064  -0.1014  -0.1011  -0.0946
    -0.0922  -0.0911  -0.0899  -0.0784  -0.0703  -0.0621  -0.0578  -0.0522
    -0.0261  -0.0239  -0.0229  -0.0128  -0.0128  -0.0025  -0.0003   0.0012
     0.0015   0.0148   0.0152   0.0205   0.0297   0.0301   0.0456   0.0462
     0.0490   0.0494   0.0672   0.0674   0.0683   0.0683   0.0822   0.0854
     0.1018   0.1029   0.1030   0.1032   0.1143   0.1186   0.1238   0.1254
     0.1651   0.1655   0.1700   0.1711   0.1866   0.1874   0.1923   0.1925
     0.2139   0.2141   0.2436   0.2489   0.2522   0.2523   0.2890   0.2893
     0.2953   0.3260   0.3602   0.3683   0.3683   0.3740   0.3741   0.3761
     0.3778   0.3888   0.3891   0.3979   0.4056   0.4071   0.4276   0.4323
     0.4323   0.4347   0.4373   0.4382   0.4388   0.4395   0.4574   0.4613
     0.4619   0.4626   0.4637   0.4637   0.4776   0.4819   0.5012   0.5014
     0.5117   0.5118   0.5137   0.5137   0.5263   0.5277   0.5278   0.5289
     0.5382   0.5390   0.5395   0.5418   0.5519   0.5587   0.5644   0.5671
     0.5676   0.5687   0.5694   0.5700   0.5748   0.5756   0.5802   0.5803
     0.5931   0.5936   0.6358   0.6367   0.6468   0.6472   0.6532   0.6537
     0.6550   0.6553   0.6555   0.6587   0.6626   0.6634   0.6768   0.6770
     0.6827   0.6835   0.7034   0.7065   0.7095   0.7099   0.7141   0.7145
     0.7287   0.7293   0.7345   0.7358   0.7582   0.7583   0.7626   0.7639
     0.7642   0.7666   0.7776   0.7786   0.8205   0.8218   0.8403   0.8453
     0.8710   0.8724   0.8795   0.8800   0.8898   0.8920   0.8927   0.8943
     0.8969   0.8980   0.8998   0.9005   0.9043   0.9055   0.9074   0.9079
     0.9259   0.9339   0.9357   0.9368   0.9370   0.9442   0.9462   0.9494
     0.9534   0.9545   0.9583   0.9583   0.9620   0.9670   0.9686   0.9695
     0.9808   0.9808   0.9811   0.9816   0.9905   0.9919   0.9981   0.9995
     1.0014   1.0021   1.0104   1.0130   1.0145   1.0194   1.0237   1.0250
     1.0284   1.0315   1.0316   1.0327   1.0468   1.0722   1.0775   1.0913
     1.1092   1.1170   1.1182   1.1188   1.1188   1.1257   1.1353   1.1388
     1.1600   1.1612   1.1643   1.1672   1.1698   1.1702   1.1737   1.1757
     1.1864   1.1869   1.1933   1.1967   1.1971   1.1981   1.1993   1.1996
     1.1997   1.2012   1.2068   1.2118   1.2133   1.2187   1.2205   1.2213
     1.2284   1.2285   1.2457   1.2466   1.2551   1.2567   1.2629   1.2635
     1.2661   1.2665   1.2671   1.2712   1.2915   1.2923   1.2947   1.2961
     1.2985   1.3000   1.3045   1.3054   1.3092   1.3129   1.3165   1.3176
     1.3378   1.3401   1.3419   1.3421   1.3585   1.3598   1.3740   1.3742
     1.3742   1.3744   1.3753   1.3755   1.3851   1.3855   1.3995   1.3999
     1.4023   1.4039   1.4142   1.4144   1.4322   1.4329   1.4367   1.4372
     1.4374   1.4385   1.4403   1.4411   1.4660   1.4662   1.4795   1.4798
     1.4867   1.4872   1.4877   1.4886   1.5108   1.5116   1.5143   1.5150
     1.5206   1.5206   1.5325   1.5326   1.5963   1.5965   1.6039   1.6054
     1.6775   1.6868   1.6940   1.7046   1.7134   1.7241   1.7399   1.7417
     1.7579   1.7596   1.7846   1.7891   1.7989   1.8088   1.8146   1.8157
     1.8444   1.8444   1.8478   2.0017   2.1209   2.1334   2.4233   2.4238
     2.4319   2.4380   2.4733   2.4773   2.5663   2.5673   2.6137   2.6209
     2.6828   2.6865   2.6950   2.6957   2.7388   2.7436   2.8090   2.8166
     2.9114   2.9120   3.0199   3.0815   3.1616   3.1616   3.4890   3.4989
     3.6280   3.6434   3.6531   3.7663   3.8188   3.9248   4.1119   4.1152
     4.1192   4.1203   4.3076   4.3516   4.3949   4.3970   4.4003   4.4015
     4.6230   4.6462   4.9516   5.0044   5.0472   5.0677   5.0841   5.0930
     5.1025   5.3448   5.3516   5.3562   5.3625   5.4136   5.4356   5.4442
     5.5225   5.5334   5.6178   5.6463   6.4058   6.4164   6.4783   6.4833
     6.5260   6.5319   6.5836   6.5845   6.6356   6.6437   6.7960   6.9102
     6.9269   6.9786   7.0061   7.0172   7.0393   7.0535   7.0714   7.1163
     7.1181   7.1354   7.1674   7.1784   7.2164   7.2166   7.2661   7.2707
     7.4389   7.4823   7.6630   7.7542   7.7598   7.7646   7.7924   7.9291
     8.0266   8.0464   8.1399   8.1404   8.2165   8.2849   8.3902   8.4315
     8.4369   8.4456   8.5057   8.5102   8.5423   8.5478   8.6920   8.6923
     8.7008   8.7204   8.7218   8.7475   8.7751   8.7924   8.8286   8.8585
     9.1025   9.1119   9.2062   9.2199   9.3206   9.3470   9.3589   9.3726
     9.3753   9.3815   9.3840   9.4706   9.4718   9.4752   9.4817   9.6080
     9.7254   9.7262   9.7420   9.7720   9.7732   9.8800   9.8816

          k = 0.2500 0.0000 0.0000 (256240 PWs)   bands (ev):

   -16.8351 -15.9219 -15.8600 -15.3615 -15.0074 -14.8847 -14.7635 -14.5489
   -14.0240 -13.6377 -13.4633 -13.0900 -13.0477 -12.9419 -12.8386 -12.2040
   -12.1245 -12.0997 -11.7090 -11.3544 -10.8801 -10.6283 -10.4847 -10.4285
    -9.9146  -9.8117  -9.7870  -9.2011  -9.1750  -8.8186  -8.7738  -7.9107
    -7.7117  -7.6437  -7.5085  -7.4233  -7.3754  -6.8518  -6.7432  -6.2986
    -6.2117  -5.9252  -5.8580  -5.8037  -5.7206  -5.3646  -5.3494  -5.3128
    -5.2775  -5.1906  -4.8279  -4.7565  -4.6841  -4.5477  -4.4885  -4.4414
    -4.4205  -4.3083  -4.2364  -4.1526  -4.0952  -4.0303  -3.9999  -3.9868
    -3.9286  -3.9111  -3.8463  -3.8365  -3.7136  -3.6980  -3.5458  -3.5066
    -3.4964  -3.3954  -3.3760  -3.3487  -3.3324  -3.2146  -3.1771  -3.1313
    -3.0475  -3.0075  -2.9372  -2.9030  -2.8068  -2.8029  -2.7638  -2.6674
    -2.6369  -2.6236  -2.5804  -2.4515  -2.4137  -2.3421  -2.3398  -2.2266
    -2.1816  -2.1280  -2.1072  -2.0983  -2.0893  -2.0272  -1.9979  -1.9924
    -1.9439  -1.9267  -1.8993  -1.8633  -1.8406  -1.8376  -1.8137  -1.8117
    -1.8048  -1.8025  -1.7838  -1.7786  -1.7600  -1.7326  -1.7205  -1.6904
    -1.6815  -1.6529  -1.6416  -1.6106  -1.5934  -1.5919  -1.5901  -1.5897
    -1.5830  -1.5794  -1.5468  -1.5337  -1.5153  -1.5121  -1.5012  -1.5001
    -1.4541  -1.4135  -1.3820  -1.3370  -1.3229  -1.3035  -1.2818  -1.2640
    -1.2553  -1.2514  -1.2489  -1.2468  -1.2417  -1.2269  -1.2176  -1.2115
    -1.1963  -1.1914  -1.1852  -1.1821  -1.1759  -1.1600  -1.1450  -1.1435
    -1.1332  -1.1253  -1.1215  -1.1191  -1.1068  -1.0906  -1.0778  -1.0710
    -1.0572  -1.0529  -1.0478  -1.0357  -1.0303  -1.0263  -1.0238  -1.0223
    -1.0204  -1.0167  -1.0134  -1.0103  -0.9902  -0.9899  -0.9893  -0.9888
    -0.9884  -0.9859  -0.9799  -0.9761  -0.9585  -0.9544  -0.9353  -0.9133
    -0.9118  -0.9113  -0.8691  -0.8627  -0.8537  -0.8263  -0.8256  -0.8100
    -0.8026  -0.8019  -0.7826  -0.7816  -0.7730  -0.7675  -0.7668  -0.7618
    -0.7614  -0.7554  -0.7397  -0.7341  -0.6386  -0.6180  -0.6130  -0.6014
    -0.5815  -0.5802  -0.5784  -0.5680  -0.5642  -0.5598  -0.5592  -0.5472
    -0.5451  -0.5422  -0.5378  -0.5372  -0.5271  -0.5082  -0.5047  -0.4996
    -0.4931  -0.4910  -0.4904  -0.4717  -0.4711  -0.4703  -0.4614  -0.4294
    -0.4171  -0.4101  -0.4060  -0.4029  -0.4021  -0.4010  -0.3919  -0.3873
    -0.3823  -0.3710  -0.3676  -0.3562  -0.3521  -0.3445  -0.3418  -0.3076
    -0.3046  -0.3036  -0.3012  -0.2979  -0.2975  -0.2955  -0.2851  -0.2789
    -0.2769  -0.2639  -0.2555  -0.2506  -0.2430  -0.2235  -0.2206  -0.2186
    -0.2121  -0.2062  -0.2013  -0.1952  -0.1940  -0.1936  -0.1831  -0.1663
    -0.1633  -0.1601  -0.1516  -0.1473  -0.1423  -0.1328  -0.1288  -0.1227
    -0.1200  -0.0794  -0.0773  -0.0758  -0.0746  -0.0703  -0.0674  -0.0483
    -0.0444  -0.0415  -0.0383  -0.0233  -0.0195  -0.0181  -0.0177  -0.0141
    -0.0101  -0.0095  -0.0063  -0.0037  -0.0019  -0.0002   0.0124   0.0168
     0.0237   0.0263   0.0269   0.0306   0.0420   0.0459   0.0614   0.0694
     0.0819   0.0872   0.0945   0.1001   0.1019   0.1082   0.1193   0.1226
     0.1266   0.1270   0.1295   0.1392   0.1451   0.1583   0.1659   0.1683
     0.1725   0.2029   0.2314   0.2383   0.2444   0.2449   0.2501   0.2522
     0.2582   0.2659   0.2702   0.2710   0.2733   0.2753   0.2755   0.2760
     0.2784   0.2854   0.2885   0.2967   0.2979   0.3007   0.3042   0.3162
     0.3210   0.3247   0.3256   0.3269   0.3314   0.3524   0.3628   0.3804
     0.3915   0.3929   0.3958   0.3985   0.4233   0.4248   0.4272   0.4305
     0.4347   0.4472   0.4599   0.4610   0.4647   0.4670   0.4692   0.4700
     0.4748   0.4780   0.4821   0.4863   0.4981   0.5057   0.5140   0.5180
     0.5183   0.5206   0.5236   0.5273   0.5354   0.5377   0.5404   0.5426
     0.5493   0.5617   0.5635   0.5671   0.5749   0.5830   0.5859   0.5916
     0.5923   0.5954   0.5964   0.5984   0.6048   0.6203   0.6273   0.6309
     0.6352   0.6490   0.6511   0.6518   0.6564   0.6580   0.6668   0.6695
     0.6825   0.6961   0.7001   0.7071   0.7244   0.7272   0.7295   0.7357
     0.7366   0.7429   0.7496   0.7598   0.7611   0.7651   0.7660   0.7708
     0.7757   0.7789   0.7851   0.7861   0.7917   0.8007   0.8019   0.8109
     0.8338   0.8373   0.8445   0.8476   0.8529   0.8666   0.8682   0.8720
     0.8756   0.8768   0.8792   0.8813   0.8856   0.8881   0.8951   0.8969
     0.8982   0.9098   0.9236   0.9358   0.9437   0.9451   0.9493   0.9576
     0.9639   0.9676   0.9768   0.9786   0.9792   0.9821   0.9849   0.9940
     0.9959   0.9962   1.0002   1.0022   1.0066   1.0073   1.0079   1.0094
     1.0110   1.0168   1.0192   1.0210   1.0243   1.0275   1.0313   1.0496
     1.0516   1.0540   1.0572   1.0586   1.0597   1.0647   1.0661   1.0756
     1.0770   1.0791   1.0883   1.0957   1.0966   1.1012   1.1087   1.1113
     1.1154   1.1220   1.1255   1.1293   1.1322   1.1368   1.1455   1.1487
     1.1566   1.1702   1.1769   1.1773   1.1809   1.1879   1.1987   1.2073
     1.2110   1.2175   1.2245   1.2291   1.2346   1.2365   1.2393   1.2443
     1.2515   1.2521   1.2562   1.2631   1.2654   1.2678   1.2690   1.2736
     1.2776   1.2801   1.2813   1.2842   1.2921   1.2930   1.2954   1.2969
     1.2979   1.3022   1.3092   1.3137   1.3218   1.3242   1.3319   1.3395
     1.3406   1.3409   1.3433   1.3449   1.3492   1.3605   1.3670   1.3714
     1.3729   1.3759   1.3761   1.3781   1.3822   1.3879   1.3891   1.4064
     1.4071   1.4079   1.4096   1.4112   1.4132   1.4174   1.4211   1.4231
     1.4244   1.4292   1.4322   1.4354   1.4476   1.4482   1.4558   1.4582
     1.4584   1.4609   1.4738   1.4754   1.4786   1.4799   1.4868   1.4944
     1.4980   1.4991   1.5057   1.5071   1.5093   1.5201   1.5336   1.5444
     1.5609   1.5689   1.5929   1.6088   1.6105   1.6188   1.6410   1.6939
     1.7202   1.7334   1.7464   1.7531   1.7563   1.7654   1.8073   1.8281
     1.8347   1.9096   2.0197   2.0289   2.0476   2.0653   2.1564   2.2048
     2.2317   2.3112   2.3635   2.5245   2.5475   2.5816   2.5825   2.9629
     2.9652   3.0496   3.1661   3.1761   3.2078   3.2090   3.2547   3.3042
     3.4119   3.4367   3.4806   3.5174   3.5891   3.6247   3.6630   3.6712
     3.6734   3.7268   3.7364   3.7811   3.7857   3.8610   3.9144   4.0552
     4.1247   4.1408   4.1740   4.2031   4.2535   4.2806   4.4050   4.5465
     4.7526   4.8125   4.8294   4.8539   5.1373   5.1531   5.2306   5.2720
     5.3112   5.3297   5.4021   5.4360   5.4501   5.4642   5.4834   5.5124
     5.5334   5.5508   5.5714   5.6902   5.7721   5.8978   5.9428   5.9908
     6.0041   6.0221   6.0506   6.0631   6.1787   6.3270   6.4354   6.4584
     6.7047   6.7306   6.7485   6.7729   6.8263   6.8598   6.9127   6.9502
     6.9919   7.0305   7.0573   7.0594   7.1799   7.2477   7.2945   7.3412
     7.4457   7.4848   7.5841   7.6485   7.7455   7.7893   7.8191   7.8310
     7.8458   7.9181   7.9375   8.0582   8.0612   8.0824   8.2063   8.2220
     8.2962   8.3017   8.3083   8.3381   8.3444   8.4867   8.5123   8.5388
     8.6029   8.6462   8.6731   8.8453   8.9211   8.9534   8.9765   8.9945
     9.0037   9.0307   9.0934   9.1570   9.1947   9.2071   9.2148   9.2560
     9.3198   9.3525   9.3846   9.3955   9.4263   9.4581   9.4816   9.5421
     9.5785   9.6522   9.6874   9.6961   9.7367   9.7740   9.7994

          k = 0.2500-0.2165 0.0000 (256316 PWs)   bands (ev):

   -16.8345 -15.9970 -15.7416 -15.2949 -15.2156 -15.0042 -14.5965 -14.3107
   -14.0414 -13.9304 -13.4275 -13.0706 -13.0510 -12.9740 -12.6720 -12.3957
   -12.1370 -11.9659 -11.3651 -11.2198 -11.1794 -11.0602 -10.7037 -10.3772
    -9.7528  -9.5701  -9.3156  -9.2849  -9.0758  -8.9390  -8.5457  -8.4100
    -8.3150  -8.2393  -7.1109  -6.9147  -6.7506  -6.5702  -6.5414  -6.3798
    -6.2543  -6.1829  -6.1513  -6.1057  -5.7217  -5.7196  -5.4065  -5.2282
    -4.9727  -4.9088  -4.8516  -4.8439  -4.6872  -4.6732  -4.5253  -4.4731
    -4.4048  -4.3626  -4.3567  -4.3006  -4.2501  -4.1347  -4.0995  -3.9180
    -3.7934  -3.7216  -3.6808  -3.6664  -3.5710  -3.5183  -3.4672  -3.4594
    -3.4573  -3.4454  -3.3824  -3.2887  -3.2081  -3.1971  -3.1707  -3.1583
    -3.0425  -2.9459  -2.9184  -2.9121  -2.9096  -2.8805  -2.8073  -2.7938
    -2.7482  -2.6994  -2.6219  -2.4431  -2.3285  -2.3266  -2.3114  -2.2842
    -2.1895  -2.1799  -2.1781  -2.1779  -2.1017  -2.0449  -2.0221  -2.0198
    -1.9862  -1.9711  -1.9684  -1.9208  -1.8235  -1.8227  -1.8168  -1.7883
    -1.7510  -1.7441  -1.7403  -1.7349  -1.7254  -1.7234  -1.7188  -1.7178
    -1.6866  -1.6855  -1.6843  -1.6826  -1.6758  -1.6736  -1.6593  -1.6484
    -1.5914  -1.5910  -1.4939  -1.4869  -1.4637  -1.3975  -1.3862  -1.3782
    -1.3625  -1.3534  -1.3398  -1.3389  -1.2877  -1.2873  -1.2814  -1.2745
    -1.2718  -1.2595  -1.2578  -1.2572  -1.2408  -1.2338  -1.2326  -1.2223
    -1.2223  -1.2113  -1.2057  -1.2005  -1.1968  -1.1966  -1.1752  -1.1530
    -1.1465  -1.1374  -1.1351  -1.1309  -1.1241  -1.1220  -1.1165  -1.1051
    -1.0733  -1.0635  -1.0527  -1.0493  -1.0450  -1.0420  -1.0389  -1.0108
    -1.0086  -1.0055  -1.0037  -1.0016  -0.9772  -0.9733  -0.9721  -0.9690
    -0.9653  -0.9613  -0.9480  -0.9402  -0.9383  -0.9301  -0.9224  -0.8811
    -0.8786  -0.8779  -0.8727  -0.8719  -0.8386  -0.7942  -0.7937  -0.7907
    -0.7894  -0.7865  -0.7823  -0.7618  -0.7435  -0.7429  -0.7261  -0.7257
    -0.7179  -0.7157  -0.7120  -0.7070  -0.6873  -0.6691  -0.6688  -0.6392
    -0.6342  -0.6275  -0.5962  -0.5791  -0.5786  -0.5743  -0.5719  -0.5514
    -0.5504  -0.5413  -0.5362  -0.5331  -0.5196  -0.5154  -0.5131  -0.5017
    -0.4967  -0.4938  -0.4736  -0.4695  -0.4668  -0.4577  -0.4555  -0.4553
    -0.4250  -0.4236  -0.4188  -0.4108  -0.4095  -0.3911  -0.3905  -0.3827
    -0.3802  -0.3766  -0.3726  -0.3721  -0.3687  -0.3660  -0.3649  -0.3464
    -0.3463  -0.3385  -0.3302  -0.3243  -0.3032  -0.3020  -0.2884  -0.2860
    -0.2710  -0.2634  -0.2540  -0.2533  -0.2416  -0.2363  -0.2338  -0.2333
    -0.2220  -0.2218  -0.2099  -0.1849  -0.1824  -0.1634  -0.1633  -0.1434
    -0.1234  -0.1222  -0.1199  -0.1194  -0.1093  -0.1024  -0.0977  -0.0836
    -0.0817  -0.0810  -0.0720  -0.0717  -0.0693  -0.0669  -0.0658  -0.0645
    -0.0584  -0.0582  -0.0315  -0.0301  -0.0297  -0.0210  -0.0188  -0.0144
    -0.0128  -0.0119  -0.0107  -0.0097  -0.0055  -0.0042   0.0152   0.0155
     0.0172   0.0191   0.0206   0.0405   0.0410   0.0486   0.0596   0.0628
     0.0702   0.0831   0.0898   0.1002   0.1062   0.1146   0.1183   0.1271
     0.1292   0.1313   0.1373   0.1386   0.1463   0.1475   0.1554   0.1557
     0.1648   0.1670   0.1876   0.1881   0.2405   0.2483   0.2592   0.2617
     0.2647   0.2676   0.2704   0.2706   0.2707   0.2733   0.2780   0.2781
     0.2957   0.3020   0.3054   0.3062   0.3094   0.3130   0.3155   0.3231
     0.3238   0.3252   0.3433   0.3479   0.3538   0.3561   0.3584   0.3640
     0.3764   0.3848   0.4058   0.4071   0.4279   0.4394   0.4414   0.4437
     0.4455   0.4470   0.4489   0.4558   0.4571   0.4594   0.4650   0.4667
     0.4690   0.4696   0.4817   0.4841   0.4903   0.4947   0.5123   0.5180
     0.5223   0.5455   0.5477   0.5495   0.5499   0.5668   0.5747   0.5770
     0.5838   0.5857   0.5873   0.5909   0.5948   0.5991   0.6036   0.6058
     0.6079   0.6148   0.6250   0.6256   0.6373   0.6380   0.6400   0.6407
     0.6529   0.6535   0.6593   0.6603   0.6721   0.6750   0.6752   0.6779
     0.6797   0.6801   0.6917   0.6941   0.6949   0.6960   0.6967   0.6977
     0.7009   0.7015   0.7119   0.7127   0.7388   0.7433   0.7439   0.7472
     0.7559   0.7619   0.7786   0.7956   0.8058   0.8066   0.8076   0.8079
     0.8111   0.8146   0.8159   0.8406   0.8408   0.8419   0.8433   0.8452
     0.8452   0.8534   0.8567   0.8627   0.8647   0.8689   0.8788   0.8812
     0.8878   0.8933   0.9007   0.9157   0.9165   0.9195   0.9216   0.9308
     0.9353   0.9410   0.9539   0.9541   0.9605   0.9620   0.9693   0.9843
     0.9878   0.9889   0.9962   0.9973   1.0003   1.0125   1.0189   1.0210
     1.0289   1.0346   1.0546   1.0605   1.0619   1.0661   1.0736   1.0746
     1.0773   1.0784   1.0799   1.0804   1.0836   1.0850   1.0913   1.0919
     1.1004   1.1008   1.1091   1.1102   1.1202   1.1243   1.1321   1.1401
     1.1406   1.1476   1.1542   1.1553   1.1613   1.1637   1.1674   1.1696
     1.1725   1.1726   1.1755   1.1770   1.1827   1.1850   1.1865   1.1907
     1.2013   1.2027   1.2060   1.2075   1.2119   1.2121   1.2139   1.2163
     1.2334   1.2336   1.2551   1.2578   1.2649   1.2658   1.2676   1.2689
     1.2742   1.2764   1.2783   1.2818   1.2959   1.2972   1.3136   1.3147
     1.3150   1.3198   1.3201   1.3206   1.3259   1.3279   1.3315   1.3321
     1.3355   1.3375   1.3397   1.3497   1.3558   1.3582   1.3594   1.3623
     1.3694   1.3695   1.3718   1.3730   1.3820   1.3821   1.3838   1.3840
     1.3882   1.3957   1.3975   1.4047   1.4095   1.4137   1.4211   1.4233
     1.4242   1.4247   1.4299   1.4300   1.4311   1.4355   1.4395   1.4430
     1.4442   1.4516   1.4668   1.4669   1.4773   1.4774   1.4863   1.4896
     1.5026   1.5050   1.5073   1.5107   1.5148   1.5369   1.5373   1.5445
     1.5455   1.5464   1.5855   1.5875   1.6172   1.6345   1.6816   1.6860
     1.7394   1.7436   1.7630   1.7661   1.7699   1.7842   1.7954   1.9025
     1.9040   1.9100   1.9182   1.9292   2.1093   2.1127   2.1436   2.1486
     2.2977   2.2995   2.5707   2.5715   2.7348   2.7417   2.7608   2.7716
     2.7751   2.7780   2.8891   2.8953   2.9632   2.9672   3.1162   3.1225
     3.4932   3.5456   3.5702   3.6638   3.6872   3.7373   3.7474   3.7750
     3.8033   3.8072   3.8409   3.8993   3.9608   4.0323   4.0602   4.0869
     4.1361   4.1503   4.2545   4.3762   4.3936   4.4002   4.4167   4.4959
     4.6252   4.6477   4.6916   4.7239   4.8522   4.8643   5.0842   5.1293
     5.2366   5.2604   5.3149   5.3278   5.3681   5.4042   5.4209   5.4778
     5.4824   5.4916   5.6334   5.7387   5.7652   5.7684   5.9243   5.9333
     5.9571   5.9583   6.1989   6.3982   6.4629   6.5405   6.6313   6.7515
     6.7550   6.7597   6.7729   6.8387   6.9765   6.9980   7.0040   7.0203
     7.0983   7.1008   7.1545   7.1816   7.1945   7.2418   7.2587   7.2892
     7.3718   7.4033   7.4312   7.4460   7.4893   7.4985   7.6990   7.7050
     7.8337   7.9219   8.0136   8.0570   8.0948   8.0992   8.1874   8.1967
     8.2211   8.2314   8.4788   8.5503   8.6079   8.6160   8.6339   8.6404
     8.6846   8.6927   8.7261   8.7360   8.8604   8.8719   8.9171   8.9463
     8.9515   8.9583   9.0891   9.1343   9.1438   9.1541   9.1592   9.1774
     9.1925   9.2294   9.2871   9.3233   9.3488   9.3634   9.3911   9.4475
     9.4526   9.4870   9.5068   9.5301   9.6421   9.6485   9.6942

          k =-0.5000 0.0000 0.0000 (256496 PWs)   bands (ev):

   -16.7639 -15.7690 -15.5433 -15.5141 -15.4699 -15.2920 -14.7127 -14.5033
   -14.2811 -14.1010 -13.0231 -12.7881 -12.6320 -12.5976 -12.1733 -12.1099
   -11.7739 -11.6978 -11.6102 -11.5684 -11.1467 -11.1178 -10.9285 -10.8781
   -10.1643 -10.0079  -9.7527  -9.4379  -9.0112  -8.9627  -8.8986  -8.8963
    -7.7981  -7.6990  -7.6624  -7.4573  -7.3842  -7.3400  -6.0339  -5.9395
    -5.6090  -5.3463  -5.3304  -5.1904  -5.0260  -4.9734  -4.9518  -4.8428
    -4.8401  -4.8047  -4.8034  -4.7840  -4.6462  -4.6333  -4.6018  -4.5920
    -4.5548  -4.4365  -4.4311  -4.3536  -4.3384  -4.3240  -4.2889  -4.2162
    -4.1677  -3.8839  -3.8635  -3.8416  -3.7527  -3.7122  -3.6267  -3.5772
    -3.5574  -3.5443  -3.4437  -3.4265  -3.4254  -3.4206  -3.4119  -3.4110
    -3.1513  -3.1093  -2.9881  -2.8315  -2.8210  -2.7751  -2.7402  -2.7291
    -2.7167  -2.6895  -2.6395  -2.6185  -2.5240  -2.4703  -2.3630  -2.3327
    -2.3245  -2.2779  -2.2633  -2.2585  -1.9782  -1.9025  -1.8903  -1.8879
    -1.8879  -1.8877  -1.8864  -1.8864  -1.7958  -1.7808  -1.7750  -1.7567
    -1.7418  -1.6782  -1.6625  -1.6612  -1.6601  -1.6525  -1.6166  -1.6153
    -1.6129  -1.6103  -1.6097  -1.5899  -1.5035  -1.5026  -1.4967  -1.4966
    -1.4424  -1.4360  -1.4340  -1.4333  -1.4145  -1.4140  -1.4030  -1.3677
    -1.3671  -1.3650  -1.3649  -1.3647  -1.3592  -1.3547  -1.3477  -1.3413
    -1.3053  -1.3028  -1.3024  -1.3019  -1.2879  -1.2837  -1.2748  -1.2743
    -1.2141  -1.2140  -1.1999  -1.1978  -1.1972  -1.1917  -1.1912  -1.1827
    -1.1815  -1.1642  -1.1626  -1.1600  -1.1568  -1.1531  -1.1217  -1.1202
    -1.1158  -1.1158  -1.1086  -1.0956  -1.0949  -1.0654  -1.0654  -1.0239
    -1.0237  -0.9934  -0.9917  -0.9915  -0.9909  -0.9893  -0.9854  -0.9668
    -0.9633  -0.9576  -0.9574  -0.9464  -0.9443  -0.9425  -0.9412  -0.9387
    -0.9381  -0.9261  -0.9217  -0.9088  -0.8675  -0.8630  -0.8546  -0.8534
    -0.8080  -0.8079  -0.7964  -0.7564  -0.7304  -0.7292  -0.7198  -0.7197
    -0.7141  -0.7102  -0.6877  -0.6875  -0.6858  -0.6857  -0.6854  -0.6829
    -0.6629  -0.6559  -0.6442  -0.6425  -0.6388  -0.6336  -0.6196  -0.6145
    -0.6141  -0.5951  -0.5846  -0.5773  -0.5403  -0.5354  -0.5255  -0.4734
    -0.4730  -0.4717  -0.4626  -0.4608  -0.4533  -0.4409  -0.4284  -0.4203
    -0.4190  -0.4176  -0.4158  -0.4153  -0.4049  -0.3892  -0.3797  -0.3790
    -0.3760  -0.3753  -0.3499  -0.3498  -0.3418  -0.3417  -0.3089  -0.3084
    -0.3070  -0.3068  -0.3049  -0.2960  -0.2960  -0.2616  -0.2614  -0.2606
    -0.2606  -0.2586  -0.2557  -0.2456  -0.2354  -0.2307  -0.2160  -0.1960
    -0.1675  -0.1528  -0.1479  -0.1461  -0.1424  -0.1420  -0.1399  -0.1398
    -0.1266  -0.1116  -0.1082  -0.1054  -0.1032  -0.1017  -0.0720  -0.0703
    -0.0472  -0.0393  -0.0371  -0.0368  -0.0364  -0.0354  -0.0339  -0.0309
    -0.0309  -0.0283  -0.0266  -0.0263  -0.0251   0.0021   0.0321   0.0350
     0.0508   0.0508   0.0528   0.0531   0.0558   0.0582   0.0585   0.0596
     0.0638   0.0657   0.0707   0.0768   0.0910   0.0920   0.0933   0.0933
     0.1075   0.1078   0.1084   0.1085   0.1108   0.1117   0.1140   0.1154
     0.1162   0.1173   0.1187   0.1258   0.1287   0.1405   0.1411   0.1420
     0.1440   0.1461   0.1655   0.1682   0.1690   0.1835   0.2066   0.2620
     0.2623   0.2663   0.2667   0.3046   0.3055   0.3076   0.3079   0.3095
     0.3185   0.3185   0.3206   0.3286   0.3289   0.3320   0.3335   0.3344
     0.3350   0.3375   0.3381   0.3430   0.3444   0.3480   0.3572   0.3573
     0.3658   0.3772   0.3773   0.3805   0.3809   0.3820   0.3842   0.3857
     0.3937   0.3991   0.4339   0.4575   0.4664   0.4678   0.4783   0.4818
     0.4833   0.4901   0.4967   0.4987   0.5012   0.5020   0.5054   0.5062
     0.5204   0.5217   0.5241   0.5245   0.5247   0.5248   0.5274   0.5278
     0.5287   0.5296   0.5442   0.5474   0.5595   0.5635   0.5650   0.5682
     0.5694   0.5738   0.5941   0.5947   0.6080   0.6103   0.6108   0.6157
     0.6175   0.6189   0.6217   0.6226   0.6246   0.6269   0.6386   0.6397
     0.6483   0.6512   0.6561   0.6593   0.6726   0.6796   0.6833   0.6842
     0.6931   0.6937   0.6981   0.6983   0.7113   0.7115   0.7261   0.7273
     0.7358   0.7364   0.7510   0.7553   0.7559   0.7578   0.7781   0.7928
     0.8146   0.8211   0.8289   0.8294   0.8317   0.8317   0.8330   0.8334
     0.8342   0.8347   0.8394   0.8412   0.8534   0.8550   0.8688   0.8707
     0.8727   0.8730   0.8745   0.8746   0.8790   0.8895   0.8910   0.8923
     0.8966   0.8972   0.9360   0.9418   0.9482   0.9483   0.9632   0.9673
     0.9996   1.0027   1.0046   1.0066   1.0216   1.0221   1.0249   1.0306
     1.0330   1.0346   1.0418   1.0455   1.0575   1.0639   1.0650   1.0702
     1.0758   1.0807   1.0921   1.0923   1.0977   1.0985   1.1041   1.1043
     1.1051   1.1060   1.1103   1.1178   1.1232   1.1247   1.1248   1.1254
     1.1261   1.1279   1.1291   1.1330   1.1671   1.1671   1.1686   1.1699
     1.1732   1.1743   1.1797   1.1817   1.1971   1.1988   1.2128   1.2160
     1.2164   1.2181   1.2273   1.2282   1.2285   1.2301   1.2314   1.2320
     1.2375   1.2411   1.2505   1.2556   1.2617   1.2638   1.2726   1.2768
     1.2833   1.2837   1.2955   1.3021   1.3045   1.3064   1.3064   1.3103
     1.3127   1.3133   1.3152   1.3155   1.3161   1.3166   1.3191   1.3203
     1.3233   1.3236   1.3243   1.3249   1.3289   1.3293   1.3322   1.3408
     1.3507   1.3512   1.3532   1.3597   1.3714   1.3718   1.3769   1.3794
     1.3811   1.3823   1.3981   1.3995   1.4042   1.4044   1.4107   1.4113
     1.4147   1.4149   1.4251   1.4257   1.4333   1.4345   1.4347   1.4364
     1.4544   1.4565   1.4599   1.4605   1.4658   1.4678   1.4693   1.4747
     1.4769   1.4777   1.4939   1.4988   1.4996   1.4998   1.5038   1.5041
     1.5047   1.5052   1.5092   1.5200   1.5223   1.5324   1.5592   1.5602
     1.5927   1.5933   1.5975   1.5976   1.6172   1.6305   2.0026   2.0053
     2.1011   2.1119   2.2248   2.2346   2.2684   2.2684   2.2805   2.2848
     2.3199   2.3222   2.5918   2.5958   2.7221   2.7232   2.7946   2.8030
     2.8492   2.8513   3.1621   3.1627   3.1807   3.1848   3.4197   3.4704
     3.5747   3.6241   3.8037   3.8097   3.8140   3.8503   3.9088   3.9135
     3.9329   3.9994   4.0506   4.0796   4.0927   4.2871   4.2891   4.3736
     4.3932   4.4784   4.6304   4.6846   4.6868   4.7157   4.7662   4.7903
     4.7927   4.8367   4.8439   4.9105   4.9252   4.9617   4.9629   5.0092
     5.0108   5.0250   5.0282   5.0567   5.0673   5.0790   5.1380   5.1434
     5.3648   5.3771   5.4607   5.4815   5.5811   5.5914   5.6538   5.6649
     5.8545   5.9399   5.9514   5.9765   5.9837   5.9972   6.0232   6.1214
     6.1470   6.1627   6.2514   6.2567   6.3504   6.3620   6.6746   6.6862
     7.0991   7.1103   7.1807   7.1969   7.1996   7.2051   7.5543   7.5816
     7.5831   7.5963   7.5985   7.6491   7.6829   7.6918   7.7568   7.7785
     7.8065   7.8136   7.8532   7.8765   7.8835   7.8977   7.9304   7.9373
     8.0854   8.1678   8.2253   8.2621   8.2995   8.3503   8.4114   8.4937
     8.6828   8.7078   8.7695   8.7938   8.8106   8.8408   8.8417   8.8507
     8.8562   8.8842   9.0050   9.0065   9.0650   9.1176   9.1414   9.1641
     9.1818   9.2230   9.2259   9.4274   9.4717   9.4978   9.5014   9.5085
     9.5093   9.5284   9.5445   9.6664   9.6991   9.8067   9.8119

          k =-0.5000-0.2165 0.0000 (256328 PWs)   bands (ev):

   -16.7637 -15.7294 -15.6404 -15.6077 -15.3323 -14.9946 -14.9434 -14.8862
   -13.8383 -13.6480 -13.5197 -13.4908 -12.3785 -12.1915 -11.8677 -11.8528
   -11.7168 -11.6686 -11.6530 -11.5666 -11.5169 -11.3226 -11.2438 -11.0629
    -9.8364  -9.7795  -9.6587  -9.5126  -9.1123  -8.7750  -8.6975  -8.6329
    -8.2892  -8.2266  -7.9859  -7.9797  -6.5009  -6.2249  -6.1349  -6.0372
    -5.8435  -5.4865  -5.2958  -5.2071  -5.2023  -5.1977  -5.1965  -5.1949
    -5.0897  -4.9322  -4.7740  -4.7592  -4.6514  -4.5329  -4.4679  -4.4386
    -4.3941  -4.2928  -4.2327  -4.1994  -4.1972  -4.1958  -4.1366  -4.0516
    -4.0444  -3.9880  -3.9850  -3.8900  -3.8609  -3.8396  -3.7358  -3.7189
    -3.5797  -3.5578  -3.5514  -3.5108  -3.5098  -3.4065  -3.3562  -3.3438
    -3.1893  -3.0495  -3.0105  -2.9866  -2.6410  -2.5983  -2.5903  -2.5901
    -2.5858  -2.5827  -2.5537  -2.5495  -2.5047  -2.4988  -2.4563  -2.4528
    -2.2083  -2.1818  -2.1365  -2.1156  -2.1035  -2.0766  -2.0699  -2.0460
    -2.0277  -2.0204  -1.9961  -1.9384  -1.8585  -1.8143  -1.8140  -1.8131
    -1.8116  -1.7663  -1.7642  -1.7130  -1.5785  -1.5531  -1.5506  -1.5376
    -1.5032  -1.5026  -1.5025  -1.5023  -1.4758  -1.4460  -1.4441  -1.4436
    -1.4430  -1.4408  -1.4342  -1.4312  -1.3975  -1.3972  -1.3964  -1.3961
    -1.3909  -1.3907  -1.3901  -1.3899  -1.3672  -1.3672  -1.3670  -1.3670
    -1.3256  -1.3256  -1.3246  -1.3202  -1.3132  -1.2558  -1.2478  -1.2458
    -1.2445  -1.2001  -1.2001  -1.2001  -1.1997  -1.1900  -1.1857  -1.1850
    -1.1822  -1.1535  -1.1432  -1.1428  -1.1392  -1.1312  -1.1303  -1.1286
    -1.1246  -1.1244  -1.1242  -1.1241  -1.1105  -1.0675  -1.0671  -1.0669
    -1.0668  -1.0501  -1.0498  -1.0496  -1.0495  -1.0490  -1.0488  -1.0485
    -1.0483  -1.0051  -0.9599  -0.9391  -0.9012  -0.9010  -0.8999  -0.8989
    -0.8632  -0.8630  -0.8625  -0.8624  -0.8071  -0.8032  -0.7955  -0.7846
    -0.7836  -0.7830  -0.7823  -0.7805  -0.7791  -0.7655  -0.7637  -0.7515
    -0.7157  -0.7127  -0.7123  -0.7086  -0.7038  -0.7030  -0.7023  -0.7018
    -0.6931  -0.6895  -0.6851  -0.6822  -0.6632  -0.6569  -0.6322  -0.6204
    -0.5796  -0.5743  -0.5737  -0.5723  -0.5138  -0.5133  -0.5128  -0.5127
    -0.4749  -0.4726  -0.4654  -0.4643  -0.4464  -0.4458  -0.4453  -0.4441
    -0.4388  -0.4382  -0.4361  -0.4229  -0.4033  -0.4033  -0.4029  -0.4022
    -0.3953  -0.3675  -0.3658  -0.3637  -0.2914  -0.2853  -0.2852  -0.2849
    -0.2834  -0.2693  -0.2690  -0.2689  -0.2688  -0.2573  -0.2559  -0.2517
    -0.2502  -0.1976  -0.1867  -0.1722  -0.1701  -0.1696  -0.1688  -0.1675
    -0.1668  -0.1650  -0.1641  -0.1634  -0.1459  -0.1322  -0.1224  -0.1214
    -0.1211  -0.1200  -0.1194  -0.1116  -0.1107  -0.1099  -0.1096  -0.1072
    -0.1054  -0.1032  -0.1031  -0.0464  -0.0427  -0.0414  -0.0406  -0.0242
    -0.0198  -0.0147  -0.0124  -0.0048   0.0004   0.0253   0.0283   0.0339
     0.0392   0.0653   0.0654   0.0662   0.0675   0.0693   0.0703   0.0723
     0.0783   0.0843   0.0846   0.0869   0.0870   0.0898   0.0948   0.0954
     0.0981   0.0984   0.0986   0.0990   0.1059   0.1121   0.1133   0.1149
     0.1210   0.1396   0.1396   0.1398   0.1400   0.1461   0.1467   0.1474
     0.1479   0.2001   0.2006   0.2008   0.2010   0.2188   0.2293   0.2305
     0.2313   0.2317   0.2338   0.2559   0.2729   0.2837   0.2879   0.2980
     0.3119   0.3125   0.3138   0.3189   0.3320   0.3355   0.3361   0.3364
     0.3368   0.3490   0.3494   0.3499   0.3505   0.3546   0.3550   0.3558
     0.3564   0.3656   0.3681   0.3705   0.3718   0.3953   0.4305   0.4321
     0.4323   0.4330   0.4474   0.4502   0.4516   0.4550   0.4589   0.4594
     0.4597   0.4598   0.4797   0.4806   0.4822   0.4839   0.4964   0.4985
     0.4985   0.4996   0.5265   0.5282   0.5285   0.5329   0.5404   0.5499
     0.5510   0.5533   0.5538   0.5542   0.5544   0.5567   0.5590   0.5607
     0.5618   0.5656   0.5682   0.5682   0.5752   0.5765   0.5848   0.5866
     0.5902   0.5940   0.6232   0.6386   0.6415   0.6471   0.6511   0.6531
     0.6560   0.6591   0.6710   0.6712   0.6728   0.6739   0.6776   0.6803
     0.6988   0.6997   0.7032   0.7079   0.7173   0.7174   0.7179   0.7180
     0.7181   0.7210   0.7216   0.7228   0.7668   0.7675   0.7769   0.7783
     0.7909   0.7975   0.7981   0.7984   0.8009   0.8009   0.8303   0.8337
     0.8339   0.8348   0.8366   0.8527   0.8699   0.8712   0.8714   0.8777
     0.9115   0.9115   0.9119   0.9125   0.9331   0.9337   0.9345   0.9359
     0.9723   0.9798   0.9827   0.9879   0.9931   0.9945   1.0022   1.0036
     1.0166   1.0198   1.0202   1.0226   1.0277   1.0301   1.0306   1.0310
     1.0323   1.0330   1.0339   1.0359   1.0369   1.0407   1.0416   1.0445
     1.0455   1.0503   1.0600   1.0670   1.0687   1.0696   1.0701   1.0772
     1.1016   1.1021   1.1045   1.1046   1.1085   1.1091   1.1127   1.1182
     1.1262   1.1290   1.1297   1.1306   1.1406   1.1418   1.1466   1.1479
     1.1645   1.1658   1.1685   1.1694   1.1765   1.1772   1.1787   1.1815
     1.2086   1.2115   1.2121   1.2129   1.2400   1.2417   1.2426   1.2433
     1.2485   1.2492   1.2521   1.2542   1.2548   1.2550   1.2566   1.2665
     1.2711   1.2714   1.2729   1.2730   1.2753   1.2758   1.2774   1.2914
     1.3265   1.3316   1.3321   1.3336   1.3356   1.3363   1.3364   1.3369
     1.3398   1.3404   1.3423   1.3454   1.3561   1.3579   1.3581   1.3615
     1.3733   1.3734   1.3734   1.3736   1.3771   1.3777   1.3787   1.3796
     1.3849   1.3852   1.3857   1.3860   1.3939   1.3953   1.3958   1.3982
     1.4088   1.4102   1.4111   1.4119   1.4418   1.4454   1.4468   1.4471
     1.4574   1.4580   1.4596   1.4623   1.4639   1.4647   1.4655   1.4675
     1.4964   1.4975   1.4977   1.4993   1.5406   1.5409   1.5433   1.5437
     1.5600   1.5608   1.5609   1.5612   1.5879   1.5902   1.5917   1.5942
     1.6030   1.6061   1.6062   1.6087   1.6662   1.6809   1.6863   1.6868
     1.8247   1.8278   1.8289   1.8290   2.3707   2.3775   2.3792   2.3811
     2.5471   2.5484   2.5520   2.5565   2.7707   2.7755   2.7758   2.7824
     3.1498   3.1530   3.1547   3.1576   3.4290   3.4383   3.4388   3.4394
     3.5706   3.6173   3.6304   3.6352   3.8617   3.9117   3.9134   3.9140
     3.9487   4.1795   4.1827   4.1877   4.2042   4.3183   4.3261   4.3274
     4.3381   4.3859   4.4030   4.4044   4.4617   4.4894   4.4897   4.5187
     4.6101   4.7558   4.7749   4.8171   4.8523   5.0028   5.0184   5.0525
     5.0586   5.0727   5.1300   5.1746   5.1913   5.2194   5.2261   5.2443
     5.3041   5.3107   5.4275   5.4413   5.4515   5.4774   5.4803   5.4965
     5.7570   5.7755   5.7766   5.7778   5.9946   6.0102   6.0142   6.0162
     6.6256   6.7498   6.7564   6.7583   6.8083   6.9241   6.9506   6.9531
     7.1128   7.1170   7.1246   7.1255   7.2308   7.3218   7.3248   7.3330
     7.3535   7.3537   7.3622   7.3654   7.3890   7.3957   7.3965   7.4028
     7.7383   7.7608   7.7785   7.7801   8.1439   8.1726   8.1889   8.2027
     8.2127   8.2303   8.2361   8.2501   8.3104   8.3525   8.4118   8.4250
     8.8630   8.8757   8.8964   8.8985   8.9180   8.9196   8.9200   8.9226
     8.9554   8.9598   8.9703   8.9724   9.0977   9.1189   9.1251   9.1341
     9.1351   9.1868   9.3038   9.3154   9.3412   9.3673   9.3875   9.4018
     9.4203   9.5786   9.6018   9.6044   9.6402   9.6952   9.7629

     the Fermi energy is     3.3125 ev

!    total energy              =  -12706.84725985 Ry
     Harris-Foulkes estimate   =  -12706.84725989 Ry
     estimated scf accuracy    <          4.5E-09 Ry

     The total energy is the sum of the following terms:

     one-electron contribution = -109241.34590006 Ry
     hartree contribution      =   55981.43471485 Ry
     xc contribution           =   -4446.47183810 Ry
     ewald contribution        =   45005.89357734 Ry
     Dispersion Correction     =      -2.97438890 Ry
     smearing contrib. (-TS)   =      -3.38342498 Ry

     convergence has been achieved in  46 iterations

     Writing output data file gc.save
 
     init_run     :    101.03s CPU    107.75s WALL (       1 calls)
     electrons    :  12671.69s CPU  13519.36s WALL (       1 calls)

     Called by init_run:
     wfcinit      :     98.68s CPU    105.17s WALL (       1 calls)
     potinit      :      0.37s CPU      0.37s WALL (       1 calls)

     Called by electrons:
     c_bands      :  11649.77s CPU  12397.89s WALL (      46 calls)
     sum_band     :    853.44s CPU    926.96s WALL (      46 calls)
     v_of_rho     :      3.12s CPU      3.80s WALL (      47 calls)
     newd         :      8.70s CPU     14.32s WALL (      47 calls)
     mix_rho      :    156.57s CPU    176.33s WALL (      46 calls)

     Called by c_bands:
     init_us_2    :     38.56s CPU     39.09s WALL (     558 calls)
     cegterg      :  11478.44s CPU  12220.58s WALL (     282 calls)

     Called by sum_band:
     sum_band:bec :      4.69s CPU      5.37s WALL (     276 calls)
     addusdens    :      8.51s CPU     13.94s WALL (      46 calls)

     Called by *egterg:
     h_psi        :   4187.41s CPU   4513.96s WALL (    1984 calls)
     s_psi        :    996.41s CPU   1007.70s WALL (    1984 calls)
     g_psi        :     10.63s CPU     10.64s WALL (    1696 calls)
     cdiaghg      :   3314.02s CPU   3441.19s WALL (    1972 calls)

     Called by h_psi:
     add_vuspsi   :   1002.31s CPU   1014.98s WALL (    1984 calls)

     General routines
     calbec       :   1451.93s CPU   1462.03s WALL (    2260 calls)
     fft          :      3.11s CPU      3.54s WALL (     610 calls)
     ffts         :     91.95s CPU    103.62s WALL (   23787 calls)
     fftw         :   2420.26s CPU   2679.13s WALL ( 1330594 calls)
     davcio       :      0.21s CPU      3.60s WALL (       6 calls)
 
     Parallel routines
     fft_scatter  :   1559.09s CPU   1702.50s WALL ( 1354991 calls)
 
     PWSCF        :     3h32m CPU        3h47m WALL

 
   This run was terminated on:   1: 8: 1  15Mar2017            

=------------------------------------------------------------------------------=
   JOB DONE.
=------------------------------------------------------------------------------=
