
     Program PWSCF v.5.4.0 starts on 20Apr2017 at 14:30:56 

     This program is part of the open-source Quantum ESPRESSO suite
     for quantum simulation of materials; please cite
         "P. Giannozzi et al., J. Phys.:Condens. Matter 21 395502 (2009);
          URL http://www.quantum-espresso.org", 
     in publications or presentations arising from this work. More details at
     http://www.quantum-espresso.org/quote

     Parallel version (MPI & OpenMP), running on      56 processor cores
     Number of MPI processes:                56
     Threads/MPI process:                     1
     R & G space division:  proc/nbgrp/npool/nimage =      56
     Waiting for input...
     Reading input from standard input
Warning: card &IONS ignored
Warning: card / ignored

     Current dimensions of program PWSCF are:
     Max number of different atomic species (ntypx) = 10
     Max number of k-points (npk) =  40000
     Max angular momentum in pseudopotentials (lmaxx) =  3

     -------------------------------------
     Parameters for Dispersion Correction:
     -------------------------------------
       atom      VdW radius       C_6     

        Cu         2.952        374.666
        C_h        2.744         60.710
        C          2.744         60.710

     Subspace diagonalization in iterative solution of the eigenvalue problem:
     one sub-group per band group will be used
     scalapack distributed-memory algorithm (size of sub-group:  5*  5 procs)

 
     Parallelization info
     --------------------
     sticks:   dense  smooth     PW     G-vecs:    dense   smooth      PW
     Min         204     204     54                36612    36612    4962
     Max         205     205     55                36617    36617    4968
     Sum       11433   11433   3039              2050409  2050409  278033
 


     bravais-lattice index     =            0
     lattice parameter (alat)  =      13.9425  a.u.
     unit-cell volume          =   21209.0878 (a.u.)^3
     number of atoms/cell      =          156
     number of atomic types    =            3
     number of electrons       =      1380.00
     number of Kohn-Sham states=          828
     kinetic-energy cutoff     =      80.0000  Ry
     charge density cutoff     =     320.0000  Ry
     convergence threshold     =      1.0E-08
     mixing beta               =       0.7000
     number of iterations used =            8  local-TF  mixing
     Exchange-correlation      =  SLA  PW   PBX  PBC ( 1  4  3  4 0 0)

     celldm(1)=  13.942539  celldm(2)=   0.000000  celldm(3)=   0.000000
     celldm(4)=   0.000000  celldm(5)=   0.000000  celldm(6)=   0.000000

     crystal axes: (cart. coord. in units of alat)
               a(1) = (   1.000000   0.000000   0.000000 )  
               a(2) = (   0.000000   2.309401   0.000000 )  
               a(3) = (   0.000000   0.000000   3.388418 )  

     reciprocal axes: (cart. coord. in units 2 pi/alat)
               b(1) = (  1.000000  0.000000  0.000000 )  
               b(2) = (  0.000000  0.433013  0.000000 )  
               b(3) = (  0.000000  0.000000  0.295123 )  


     PseudoPot. # 1 for Cu read from file:
     /home/549/hxw549/Short/pseudopotentials/Cu.pbe-n-van_ak.UPF
     MD5 check sum: 601f7c30f7467666bec936e0661ce3e1
     Pseudo is Ultrasoft + core correction, Zval = 11.0
     Generated by new atomic code, or converted to UPF format
     Using radial grid of  867 points,  6 beta functions with: 
                l(1) =   0
                l(2) =   0
                l(3) =   1
                l(4) =   1
                l(5) =   2
                l(6) =   2
     Q(r) pseudized with  8 coefficients,  rinner =    1.400   1.400   1.400
                                                       1.400   1.400

     PseudoPot. # 2 for C  read from file:
     /home/549/hxw549/Short/pseudopotentials/C.star1s-pbe-mt_gipaw.UPF
     MD5 check sum: ef0cb3dee31bd9e4ba2a832a2c716264
     Pseudo is Norm-conserving, Zval =  5.0
     Generated by new atomic code, or converted to UPF format
     Using radial grid of 1073 points,  1 beta functions with: 
                l(1) =   0

     PseudoPot. # 3 for C  read from file:
     /home/549/hxw549/Short/pseudopotentials/C.pbe-mt_gipaw.UPF
     MD5 check sum: 5ac2f21f2c440b14befe521540822c15
     Pseudo is Norm-conserving, Zval =  4.0
     Generated by new atomic code, or converted to UPF format
     Using radial grid of 1073 points,  1 beta functions with: 
                l(1) =   0

     atomic species   valence    mass     pseudopotential
        Cu            11.00    63.54600     Cu( 1.00)
        C_h            5.00    12.01070     C ( 1.00)
        C              4.00    12.01070     C ( 1.00)

     No symmetry found



   Cartesian axes

     site n.     atom                  positions (alat units)
         1           Cu  tau(   1) = (  -0.0000549   0.0038944   0.8895039  )
         2           Cu  tau(   2) = (   0.2498561   0.2364069   0.8931545  )
         3           Cu  tau(   3) = (   0.4999834   0.0040272   0.8891076  )
         4           Cu  tau(   4) = (   0.7500655   0.2365774   0.8930538  )
         5           Cu  tau(   5) = (  -0.0000562   0.4680485   0.8986857  )
         6           Cu  tau(   6) = (   0.2499204   0.6979601   0.9023997  )
         7           Cu  tau(   7) = (   0.4999770   0.4680600   0.8986438  )
         8           Cu  tau(   8) = (   0.7499919   0.6979170   0.9024188  )
         9           Cu  tau(   9) = (  -0.0000103   0.9272203   0.9035556  )
        10           Cu  tau(  10) = (   0.2499589   1.1564729   0.9037066  )
        11           Cu  tau(  11) = (   0.4999145   0.9271629   0.9034395  )
        12           Cu  tau(  12) = (   0.7499463   1.1564243   0.9036188  )
        13           Cu  tau(  13) = (  -0.0001139   1.3860246   0.9027183  )
        14           Cu  tau(  14) = (   0.2498801   1.6163418   0.8986746  )
        15           Cu  tau(  15) = (   0.5000280   1.3859803   0.9024834  )
        16           Cu  tau(  16) = (   0.7500312   1.6160597   0.8985479  )
        17           Cu  tau(  17) = (   0.0000423   1.8478793   0.8927838  )
        18           Cu  tau(  18) = (   0.2500275   2.0802463   0.8891797  )
        19           Cu  tau(  19) = (   0.4998824   1.8476458   0.8930400  )
        20           Cu  tau(  20) = (   0.7499023   2.0802466   0.8892023  )
        21           Cu  tau(  21) = (  -0.0000006   0.2314407   1.1418707  )
        22           Cu  tau(  22) = (   0.2498892   0.0016921   1.1383038  )
        23           Cu  tau(  23) = (   0.4999305   0.2313254   1.1417344  )
        24           Cu  tau(  24) = (   0.7500314   0.0017233   1.1384329  )
        25           Cu  tau(  25) = (  -0.0000709   0.6957747   1.1517252  )
        26           Cu  tau(  26) = (   0.2500244   0.4632860   1.1474081  )
        27           Cu  tau(  27) = (   0.4999876   0.6957836   1.1516684  )
        28           Cu  tau(  28) = (   0.7498984   0.4632432   1.1473117  )
        29           Cu  tau(  29) = (  -0.0000630   1.1568679   1.1543012  )
        30           Cu  tau(  30) = (   0.2499277   0.9268448   1.1543638  )
        31           Cu  tau(  31) = (   0.4999724   1.1568693   1.1541867  )
        32           Cu  tau(  32) = (   0.7500027   0.9269784   1.1543223  )
        33           Cu  tau(  33) = (  -0.0000082   1.6210599   1.1470060  )
        34           Cu  tau(  34) = (   0.2498596   1.3881448   1.1514236  )
        35           Cu  tau(  35) = (   0.4999174   1.6209561   1.1473344  )
        36           Cu  tau(  36) = (   0.7500490   1.3882920   1.1514093  )
        37           Cu  tau(  37) = (  -0.0001368   2.0821940   1.1384383  )
        38           Cu  tau(  38) = (   0.2500917   1.8528039   1.1417247  )
        39           Cu  tau(  39) = (   0.5000439   2.0824138   1.1382179  )
        40           Cu  tau(  40) = (   0.7498259   1.8528944   1.1417626  )
        41           Cu  tau(  41) = (  -0.0001378   0.0006883   1.3919862  )
        42           Cu  tau(  42) = (   0.2499845   0.2287190   1.3929011  )
        43           Cu  tau(  43) = (   0.5000483   0.0010692   1.3920855  )
        44           Cu  tau(  44) = (   0.7499379   0.2286829   1.3928022  )
        45           Cu  tau(  45) = (   0.0000062   0.4584630   1.3955340  )
        46           Cu  tau(  46) = (   0.2499963   0.6914661   1.3999671  )
        47           Cu  tau(  47) = (   0.4999185   0.4580848   1.3951344  )
        48           Cu  tau(  48) = (   0.7499533   0.6912121   1.4000695  )
        49           Cu  tau(  49) = (  -0.0000360   0.9252124   1.4043059  )
        50           Cu  tau(  50) = (   0.2499282   1.1590389   1.4037961  )
        51           Cu  tau(  51) = (   0.4999469   0.9251753   1.4044409  )
        52           Cu  tau(  52) = (   0.7500253   1.1590458   1.4042624  )
        53           Cu  tau(  53) = (  -0.0000739   1.3928481   1.3993409  )
        54           Cu  tau(  54) = (   0.2500691   1.6257625   1.3946926  )
        55           Cu  tau(  55) = (   0.4999884   1.3926344   1.3994945  )
        56           Cu  tau(  56) = (   0.7498314   1.6259215   1.3947318  )
        57           Cu  tau(  57) = (  -0.0000489   1.8554057   1.3928460  )
        58           Cu  tau(  58) = (   0.2499235   2.0832681   1.3919605  )
        59           Cu  tau(  59) = (   0.4999390   1.8556516   1.3922941  )
        60           Cu  tau(  60) = (   0.7499778   2.0829845   1.3920999  )
        61           Cu  tau(  61) = (  -0.0000594   0.2275935   1.6471819  )
        62           Cu  tau(  62) = (   0.2501001   0.0001540   1.6468201  )
        63           Cu  tau(  63) = (   0.4999427   0.2275226   1.6475724  )
        64           Cu  tau(  64) = (   0.7498079   0.0002051   1.6469932  )
        65           Cu  tau(  65) = (   0.0000357   0.6849101   1.6488244  )
        66           Cu  tau(  66) = (   0.2501027   0.4550203   1.6471545  )
        67           Cu  tau(  67) = (   0.4999170   0.6842384   1.6480417  )
        68           Cu  tau(  68) = (   0.7498109   0.4548594   1.6471270  )
        69           Cu  tau(  69) = (  -0.0000527   1.1637303   1.6506847  )
        70           Cu  tau(  70) = (   0.2501509   0.9216146   1.6509466  )
        71           Cu  tau(  71) = (   0.5000517   1.1629157   1.6515761  )
        72           Cu  tau(  72) = (   0.7497688   0.9213551   1.6514686  )
        73           Cu  tau(  73) = (  -0.0001140   1.6285458   1.6471528  )
        74           Cu  tau(  74) = (   0.2500948   1.3996204   1.6478345  )
        75           Cu  tau(  75) = (   0.5000089   1.6292832   1.6462570  )
        76           Cu  tau(  76) = (   0.7498648   1.4001992   1.6480762  )
        77           Cu  tau(  77) = (  -0.0001698   2.0839327   1.6471420  )
        78           Cu  tau(  78) = (   0.2497414   1.8566981   1.6467677  )
        79           Cu  tau(  79) = (   0.5001041   2.0836196   1.6465065  )
        80           Cu  tau(  80) = (   0.7501418   1.8567086   1.6473694  )
        81           Cu  tau(  81) = (   0.0000606   0.0005566   1.9026502  )
        82           Cu  tau(  82) = (   0.2503732   0.2248242   1.9015096  )
        83           Cu  tau(  83) = (   0.4998202  -0.0005144   1.9024713  )
        84           Cu  tau(  84) = (   0.7495713   0.2246990   1.9014783  )
        85           Cu  tau(  85) = (   0.0000338   0.4467760   1.9043256  )
        86           Cu  tau(  86) = (   0.2493514   0.6728710   1.9029509  )
        87           Cu  tau(  87) = (   0.4998802   0.4455824   1.9021670  )
        88           Cu  tau(  88) = (   0.7505658   0.6721677   1.9028605  )
        89           Cu  tau(  89) = (   0.0006263   0.9184138   1.8867044  )
        90           Cu  tau(  90) = (   0.2497779   1.1671666   1.8871488  )
        91           Cu  tau(  91) = (   0.4991665   0.9167096   1.8870412  )
        92           Cu  tau(  92) = (   0.7501328   1.1676623   1.8863851  )
        93           Cu  tau(  93) = (   0.0000031   1.4129974   1.9041958  )
        94           Cu  tau(  94) = (   0.2501514   1.6381240   1.9026581  )
        95           Cu  tau(  95) = (   0.4998962   1.4122563   1.9006415  )
        96           Cu  tau(  96) = (   0.7497848   1.6384651   1.9031469  )
        97           Cu  tau(  97) = (  -0.0000327   1.8590214   1.9016926  )
        98           Cu  tau(  98) = (   0.2493588   2.0836751   1.9022804  )
        99           Cu  tau(  99) = (   0.4999181   1.8599112   1.9009201  )
       100           Cu  tau( 100) = (   0.7504827   2.0840516   1.9026399  )
       101           Cu  tau( 101) = (   0.2536675   1.3944837   2.1357621  )
       102           Cu  tau( 102) = (   0.7464037   1.3942318   2.1363374  )
       103           Cu  tau( 103) = (  -0.0004629   1.1583394   2.1209052  )
       104           Cu  tau( 104) = (   0.2505084   0.9288428   2.1206185  )
       105           Cu  tau( 105) = (   0.5002771   1.1562048   2.1193217  )
       106           Cu  tau( 106) = (   0.7495267   0.9280549   2.1199382  )
       107           Cu  tau( 107) = (  -0.0000193   0.6948418   2.1354509  )
       108           Cu  tau( 108) = (   0.4998810   0.6882222   2.1355829  )
       109           C   tau( 109) = (   0.0000991   0.0901428   2.4031502  )
       110           C   tau( 110) = (   0.0000930   0.2823830   2.4180114  )
       111           C   tau( 111) = (   0.1666773  -0.0064510   2.3996578  )
       112           C   tau( 112) = (   0.1668787   0.3782408   2.4277671  )
       113           C   tau( 113) = (   0.3333089   0.0900211   2.4026227  )
       114           C   tau( 114) = (   0.3334028   0.2822316   2.4161361  )
       115           C   tau( 115) = (   0.5000830  -0.0063283   2.3982863  )
       116           C_h tau( 116) = (   0.5000767   0.3780919   2.4227795  )
       117           C   tau( 117) = (   0.6669041   0.0900346   2.4025061  )
       118           C   tau( 118) = (   0.6667952   0.2822435   2.4160878  )
       119           C   tau( 119) = (   0.8334865  -0.0064471   2.3995724  )
       120           C   tau( 120) = (   0.8332736   0.3782539   2.4277003  )
       121           C   tau( 121) = (   0.0000735   0.6670179   2.4604097  )
       122           C   tau( 122) = (   0.0001050   0.8588633   2.4907114  )
       123           C   tau( 123) = (   0.1672571   0.5698504   2.4498428  )
       124           C   tau( 124) = (   0.1665971   0.9552497   2.4963875  )
       125           C   tau( 125) = (   0.3330385   0.6665151   2.4637668  )
       126           C   tau( 126) = (   0.3335343   0.8585536   2.4894103  )
       127           C   tau( 127) = (   0.5001160   0.5707969   2.4446470  )
       128           C   tau( 128) = (   0.5000868   0.9548012   2.4981070  )
       129           C   tau( 129) = (   0.6671111   0.6664905   2.4640110  )
       130           C   tau( 130) = (   0.6666802   0.8585370   2.4895177  )
       131           C   tau( 131) = (   0.8329626   0.5698624   2.4498385  )
       132           C   tau( 132) = (   0.8335464   0.9552517   2.4962856  )
       133           C   tau( 133) = (   0.0000911   1.2451825   2.4876213  )
       134           C   tau( 134) = (   0.0001131   1.4371710   2.4617966  )
       135           C   tau( 135) = (   0.1670675   1.1488169   2.4970265  )
       136           C   tau( 136) = (   0.1662741   1.5330753   2.4437487  )
       137           C   tau( 137) = (   0.3332653   1.2449196   2.4879988  )
       138           C   tau( 138) = (   0.3337767   1.4368407   2.4576005  )
       139           C   tau( 139) = (   0.5001230   1.1482862   2.4940804  )
       140           C   tau( 140) = (   0.5000809   1.5342903   2.4464359  )
       141           C   tau( 141) = (   0.6669118   1.2449151   2.4881715  )
       142           C   tau( 142) = (   0.6664409   1.4368275   2.4575860  )
       143           C   tau( 143) = (   0.8331701   1.1488111   2.4971678  )
       144           C   tau( 144) = (   0.8339073   1.5330595   2.4436703  )
       145           C   tau( 145) = (   0.0001003   1.8211673   2.4126494  )
       146           C   tau( 146) = (   0.0000762   2.0135533   2.4010454  )
       147           C   tau( 147) = (   0.1666886   1.7253778   2.4216854  )
       148           C   tau( 148) = (   0.1666494   2.1103073   2.3983956  )
       149           C   tau( 149) = (   0.3333114   1.8216121   2.4144844  )
       150           C   tau( 150) = (   0.3333631   2.0140026   2.4017749  )
       151           C   tau( 151) = (   0.5000809   1.7256607   2.4249251  )
       152           C   tau( 152) = (   0.5001229   2.1104737   2.3992384  )
       153           C   tau( 153) = (   0.6668851   1.8216063   2.4144419  )
       154           C   tau( 154) = (   0.6667882   2.0139890   2.4016302  )
       155           C   tau( 155) = (   0.8334653   1.7253669   2.4216510  )
       156           C   tau( 156) = (   0.8335837   2.1103089   2.3982893  )

     number of k points=     6  gaussian smearing, width (Ry)=  0.1000
                       cart. coord. in units 2pi/alat
        k(    1) = (   0.0000000   0.0000000   0.0000000), wk =   0.2500000
        k(    2) = (   0.0000000  -0.2165064   0.0000000), wk =   0.2500000
        k(    3) = (   0.2500000   0.0000000   0.0000000), wk =   0.5000000
        k(    4) = (   0.2500000  -0.2165064   0.0000000), wk =   0.5000000
        k(    5) = (  -0.5000000   0.0000000   0.0000000), wk =   0.2500000
        k(    6) = (  -0.5000000  -0.2165064   0.0000000), wk =   0.2500000

     Dense  grid:  2050409 G-vectors     FFT dimensions: (  80, 192, 270)

     Largest allocated arrays     est. size (Mb)     dimensions
        Kohn-Sham Wavefunctions        58.17 Mb     (    4604,  828)
        NL pseudopotentials           139.94 Mb     (    4604, 1992)
        Each V/rho on FFT grid          1.17 Mb     (   76800)
        Each G-vector array             0.28 Mb     (   36616)
        G-vector shells                 0.14 Mb     (   17932)
     Largest temporary arrays     est. size (Mb)     dimensions
        Auxiliary wavefunctions       232.67 Mb     (    4604, 3312)
        Each subspace H/S matrix        6.69 Mb     (     662,  662)
        Each <psi_i|beta_j> matrix     25.17 Mb     (    1992,  828)
        Arrays for rho mixing           9.38 Mb     (   76800,    8)

     Initial potential from superposition of free atoms
     Check: negative starting charge=   -0.001552

     starting charge 1354.72292, renormalised to 1380.00000

     negative rho (up, down):  1.581E-03 0.000E+00
     Starting wfc are 1356 randomized atomic wfcs

     total cpu time spent up to now is      115.6 secs

     Self-consistent Calculation

     iteration #  1     ecut=    80.00 Ry     beta=0.70
     Davidson diagonalization with overlap
     c_bands:  4 eigenvalues not converged
     c_bands:  3 eigenvalues not converged
     c_bands:  4 eigenvalues not converged
     c_bands:  4 eigenvalues not converged
     ethr =  1.00E-04,  avg # of iterations = 42.0

     negative rho (up, down):  2.538E+01 0.000E+00

     total cpu time spent up to now is     2551.4 secs

     total energy              =  -10751.66345784 Ry
     Harris-Foulkes estimate   =  -19015.64088499 Ry
     estimated scf accuracy    <  214369.21096494 Ry

     iteration #  2     ecut=    80.00 Ry     beta=0.70
     Davidson diagonalization with overlap
     ethr =  1.00E-02,  avg # of iterations = 14.3

     negative rho (up, down):  3.109E+01 0.000E+00

     total cpu time spent up to now is     3681.9 secs

     total energy              =  -13080.08914674 Ry
     Harris-Foulkes estimate   =  -14667.62134410 Ry
     estimated scf accuracy    <   24827.73068246 Ry

     iteration #  3     ecut=    80.00 Ry     beta=0.70
     Davidson diagonalization with overlap
     ethr =  1.00E-02,  avg # of iterations =  6.2

     negative rho (up, down):  3.289E+01 0.000E+00

     total cpu time spent up to now is     4254.1 secs

     total energy              =  -13428.27214333 Ry
     Harris-Foulkes estimate   =  -14419.72783473 Ry
     estimated scf accuracy    <    7941.01890823 Ry

     iteration #  4     ecut=    80.00 Ry     beta=0.70
     Davidson diagonalization with overlap
     ethr =  1.00E-02,  avg # of iterations =  4.8

     negative rho (up, down):  2.620E+01 0.000E+00

     total cpu time spent up to now is     4788.5 secs

     total energy              =  -13721.03658562 Ry
     Harris-Foulkes estimate   =  -14095.68712628 Ry
     estimated scf accuracy    <    3209.00667762 Ry

     iteration #  5     ecut=    80.00 Ry     beta=0.70
     Davidson diagonalization with overlap
     ethr =  1.00E-02,  avg # of iterations =  4.2

     negative rho (up, down):  1.654E+01 0.000E+00

     total cpu time spent up to now is     5152.3 secs

     total energy              =  -13818.35343320 Ry
     Harris-Foulkes estimate   =  -13957.92956126 Ry
     estimated scf accuracy    <    1092.48019058 Ry

     iteration #  6     ecut=    80.00 Ry     beta=0.70
     Davidson diagonalization with overlap
     ethr =  1.00E-02,  avg # of iterations =  2.0

     negative rho (up, down):  1.091E+01 0.000E+00

     total cpu time spent up to now is     5369.3 secs

     total energy              =  -13789.46201704 Ry
     Harris-Foulkes estimate   =  -13842.96771334 Ry
     estimated scf accuracy    <     436.44379306 Ry

     iteration #  7     ecut=    80.00 Ry     beta=0.70
     Davidson diagonalization with overlap
     ethr =  1.00E-02,  avg # of iterations =  2.0

     negative rho (up, down):  7.874E+00 0.000E+00

     total cpu time spent up to now is     5565.2 secs

     total energy              =  -13775.63630417 Ry
     Harris-Foulkes estimate   =  -13804.57271019 Ry
     estimated scf accuracy    <     301.70342275 Ry

     iteration #  8     ecut=    80.00 Ry     beta=0.70
     Davidson diagonalization with overlap
     ethr =  1.00E-02,  avg # of iterations =  1.0

     negative rho (up, down):  5.903E+00 0.000E+00

     total cpu time spent up to now is     5747.9 secs

     total energy              =  -13757.66498928 Ry
     Harris-Foulkes estimate   =  -13779.74417666 Ry
     estimated scf accuracy    <     233.23053456 Ry

     iteration #  9     ecut=    80.00 Ry     beta=0.70
     Davidson diagonalization with overlap
     ethr =  1.00E-02,  avg # of iterations =  1.2

     negative rho (up, down):  3.819E+00 0.000E+00

     total cpu time spent up to now is     5932.5 secs

     total energy              =  -13739.57475821 Ry
     Harris-Foulkes estimate   =  -13762.71575115 Ry
     estimated scf accuracy    <     221.71143630 Ry

     iteration # 10     ecut=    80.00 Ry     beta=0.70
     Davidson diagonalization with overlap
     ethr =  1.00E-02,  avg # of iterations =  2.0

     negative rho (up, down):  1.442E+00 0.000E+00

     total cpu time spent up to now is     6129.4 secs

     total energy              =  -13704.92242746 Ry
     Harris-Foulkes estimate   =  -13746.55722753 Ry
     estimated scf accuracy    <     160.94613282 Ry

     iteration # 11     ecut=    80.00 Ry     beta=0.70
     Davidson diagonalization with overlap
     ethr =  1.00E-02,  avg # of iterations =  2.0

     negative rho (up, down):  1.921E+00 0.000E+00

     total cpu time spent up to now is     6325.8 secs

     total energy              =  -13688.48358080 Ry
     Harris-Foulkes estimate   =  -13720.04294301 Ry
     estimated scf accuracy    <     245.48687389 Ry

     iteration # 12     ecut=    80.00 Ry     beta=0.70
     Davidson diagonalization with overlap
     ethr =  1.00E-02,  avg # of iterations =  2.7

     negative rho (up, down):  3.316E+00 0.000E+00

     total cpu time spent up to now is     6532.6 secs

     total energy              =  -13697.95494868 Ry
     Harris-Foulkes estimate   =  -13707.58092581 Ry
     estimated scf accuracy    <     155.58836241 Ry

     iteration # 13     ecut=    80.00 Ry     beta=0.70
     Davidson diagonalization with overlap
     ethr =  1.00E-02,  avg # of iterations =  1.2

     negative rho (up, down):  3.611E+00 0.000E+00

     total cpu time spent up to now is     6718.1 secs

     total energy              =  -13690.66236657 Ry
     Harris-Foulkes estimate   =  -13699.31462188 Ry
     estimated scf accuracy    <      98.73351800 Ry

     iteration # 14     ecut=    80.00 Ry     beta=0.70
     Davidson diagonalization with overlap
     ethr =  7.15E-03,  avg # of iterations =  1.0

     negative rho (up, down):  5.936E+00 0.000E+00

     total cpu time spent up to now is     6901.4 secs

     total energy              =  -13681.76749287 Ry
     Harris-Foulkes estimate   =  -13697.29085774 Ry
     estimated scf accuracy    <     201.13820787 Ry

     iteration # 15     ecut=    80.00 Ry     beta=0.70
     Davidson diagonalization with overlap
     ethr =  7.15E-03,  avg # of iterations =  2.2

     negative rho (up, down):  5.250E+00 0.000E+00

     total cpu time spent up to now is     7101.0 secs

     total energy              =  -13687.62422829 Ry
     Harris-Foulkes estimate   =  -13692.34284342 Ry
     estimated scf accuracy    <      62.10140561 Ry

     iteration # 16     ecut=    80.00 Ry     beta=0.70
     Davidson diagonalization with overlap
     ethr =  4.50E-03,  avg # of iterations =  1.2

     negative rho (up, down):  4.530E+00 0.000E+00

     total cpu time spent up to now is     7285.8 secs

     total energy              =  -13686.22867674 Ry
     Harris-Foulkes estimate   =  -13688.69919001 Ry
     estimated scf accuracy    <      28.33733351 Ry

     iteration # 17     ecut=    80.00 Ry     beta=0.70
     Davidson diagonalization with overlap
     ethr =  2.05E-03,  avg # of iterations =  3.3

     negative rho (up, down):  3.718E+00 0.000E+00

     total cpu time spent up to now is     7502.1 secs

     total energy              =  -13684.83892739 Ry
     Harris-Foulkes estimate   =  -13686.66009571 Ry
     estimated scf accuracy    <      13.62421150 Ry

     iteration # 18     ecut=    80.00 Ry     beta=0.70
     Davidson diagonalization with overlap
     ethr =  9.87E-04,  avg # of iterations =  8.8

     negative rho (up, down):  1.970E+00 0.000E+00

     total cpu time spent up to now is     7806.1 secs

     total energy              =  -13683.12080309 Ry
     Harris-Foulkes estimate   =  -13685.09429168 Ry
     estimated scf accuracy    <       8.33257873 Ry

     iteration # 19     ecut=    80.00 Ry     beta=0.70
     Davidson diagonalization with overlap
     ethr =  6.04E-04,  avg # of iterations =  2.0

     negative rho (up, down):  1.739E+00 0.000E+00

     total cpu time spent up to now is     8003.5 secs

     total energy              =  -13682.53224438 Ry
     Harris-Foulkes estimate   =  -13683.52524336 Ry
     estimated scf accuracy    <      10.68656993 Ry

     iteration # 20     ecut=    80.00 Ry     beta=0.70
     Davidson diagonalization with overlap
     ethr =  6.04E-04,  avg # of iterations =  1.0

     negative rho (up, down):  1.672E+00 0.000E+00

     total cpu time spent up to now is     8186.5 secs

     total energy              =  -13682.26137945 Ry
     Harris-Foulkes estimate   =  -13682.70688725 Ry
     estimated scf accuracy    <      12.40979800 Ry

     iteration # 21     ecut=    80.00 Ry     beta=0.70
     Davidson diagonalization with overlap
     ethr =  6.04E-04,  avg # of iterations =  2.0

     negative rho (up, down):  3.332E-01 0.000E+00

     total cpu time spent up to now is     8383.2 secs

     total energy              =  -13680.47507766 Ry
     Harris-Foulkes estimate   =  -13682.78665153 Ry
     estimated scf accuracy    <       5.98159846 Ry

     iteration # 22     ecut=    80.00 Ry     beta=0.70
     Davidson diagonalization with overlap
     c_bands:  1 eigenvalues not converged
     ethr =  4.33E-04,  avg # of iterations = 10.2

     negative rho (up, down):  1.631E-01 0.000E+00

     total cpu time spent up to now is     8692.5 secs

     total energy              =  -13680.00437334 Ry
     Harris-Foulkes estimate   =  -13680.74745303 Ry
     estimated scf accuracy    <       7.89676730 Ry

     iteration # 23     ecut=    80.00 Ry     beta=0.70
     Davidson diagonalization with overlap
     ethr =  4.33E-04,  avg # of iterations =  4.3

     negative rho (up, down):  2.043E-01 0.000E+00

     total cpu time spent up to now is     8918.7 secs

     total energy              =  -13679.53000227 Ry
     Harris-Foulkes estimate   =  -13680.25080957 Ry
     estimated scf accuracy    <       3.05830986 Ry

     iteration # 24     ecut=    80.00 Ry     beta=0.70
     Davidson diagonalization with overlap
     ethr =  2.22E-04,  avg # of iterations =  7.5

     negative rho (up, down):  5.187E-01 0.000E+00

     total cpu time spent up to now is     9193.9 secs

     total energy              =  -13679.07429547 Ry
     Harris-Foulkes estimate   =  -13679.83284387 Ry
     estimated scf accuracy    <       8.88665960 Ry

     iteration # 25     ecut=    80.00 Ry     beta=0.70
     Davidson diagonalization with overlap
     ethr =  2.22E-04,  avg # of iterations =  6.0

     negative rho (up, down):  4.757E-01 0.000E+00

     total cpu time spent up to now is     9446.9 secs

     total energy              =  -13679.33542229 Ry
     Harris-Foulkes estimate   =  -13679.56259031 Ry
     estimated scf accuracy    <       1.77226050 Ry

     iteration # 26     ecut=    80.00 Ry     beta=0.70
     Davidson diagonalization with overlap
     ethr =  1.28E-04,  avg # of iterations =  7.5

     negative rho (up, down):  5.654E-01 0.000E+00

     total cpu time spent up to now is     9719.4 secs

     total energy              =  -13679.28506376 Ry
     Harris-Foulkes estimate   =  -13679.46411280 Ry
     estimated scf accuracy    <       0.86298674 Ry

     iteration # 27     ecut=    80.00 Ry     beta=0.70
     Davidson diagonalization with overlap
     ethr =  6.25E-05,  avg # of iterations =  8.0

     negative rho (up, down):  2.535E-01 0.000E+00

     total cpu time spent up to now is    10024.8 secs

     total energy              =  -13679.27172719 Ry
     Harris-Foulkes estimate   =  -13679.33669005 Ry
     estimated scf accuracy    <       0.47968373 Ry

     iteration # 28     ecut=    80.00 Ry     beta=0.70
     Davidson diagonalization with overlap
     ethr =  3.48E-05,  avg # of iterations =  6.7

     negative rho (up, down):  1.262E-01 0.000E+00

     total cpu time spent up to now is    10296.6 secs

     total energy              =  -13679.27628945 Ry
     Harris-Foulkes estimate   =  -13679.29398350 Ry
     estimated scf accuracy    <       0.18281588 Ry

     iteration # 29     ecut=    80.00 Ry     beta=0.70
     Davidson diagonalization with overlap
     ethr =  1.32E-05,  avg # of iterations =  6.3

     negative rho (up, down):  1.154E-01 0.000E+00

     total cpu time spent up to now is    10566.5 secs

     total energy              =  -13679.28351886 Ry
     Harris-Foulkes estimate   =  -13679.28575716 Ry
     estimated scf accuracy    <       0.03882199 Ry

     iteration # 30     ecut=    80.00 Ry     beta=0.70
     Davidson diagonalization with overlap
     ethr =  2.81E-06,  avg # of iterations =  9.2

     negative rho (up, down):  5.666E-02 0.000E+00

     total cpu time spent up to now is    10878.8 secs

     total energy              =  -13679.28207601 Ry
     Harris-Foulkes estimate   =  -13679.28599126 Ry
     estimated scf accuracy    <       0.01513102 Ry

     iteration # 31     ecut=    80.00 Ry     beta=0.70
     Davidson diagonalization with overlap
     ethr =  1.10E-06,  avg # of iterations = 12.0

     negative rho (up, down):  4.111E-02 0.000E+00

     total cpu time spent up to now is    11236.1 secs

     total energy              =  -13679.28240765 Ry
     Harris-Foulkes estimate   =  -13679.28348247 Ry
     estimated scf accuracy    <       0.00856997 Ry

     iteration # 32     ecut=    80.00 Ry     beta=0.70
     Davidson diagonalization with overlap
     c_bands:  1 eigenvalues not converged
     ethr =  6.21E-07,  avg # of iterations = 10.8

     negative rho (up, down):  2.601E-02 0.000E+00

     total cpu time spent up to now is    11576.7 secs

     total energy              =  -13679.28261909 Ry
     Harris-Foulkes estimate   =  -13679.28294337 Ry
     estimated scf accuracy    <       0.00167078 Ry

     iteration # 33     ecut=    80.00 Ry     beta=0.70
     Davidson diagonalization with overlap
     c_bands:  1 eigenvalues not converged
     c_bands:  1 eigenvalues not converged
     ethr =  1.21E-07,  avg # of iterations = 12.8

     negative rho (up, down):  1.851E-02 0.000E+00

     total cpu time spent up to now is    11937.8 secs

     total energy              =  -13679.28258847 Ry
     Harris-Foulkes estimate   =  -13679.28275419 Ry
     estimated scf accuracy    <       0.00095761 Ry

     iteration # 34     ecut=    80.00 Ry     beta=0.70
     Davidson diagonalization with overlap
     c_bands:  1 eigenvalues not converged
     ethr =  6.94E-08,  avg # of iterations = 11.7

     negative rho (up, down):  9.476E-03 0.000E+00

     total cpu time spent up to now is    12281.5 secs

     total energy              =  -13679.28246905 Ry
     Harris-Foulkes estimate   =  -13679.28264941 Ry
     estimated scf accuracy    <       0.00022148 Ry

     iteration # 35     ecut=    80.00 Ry     beta=0.70
     Davidson diagonalization with overlap
     ethr =  1.60E-08,  avg # of iterations = 10.2

     negative rho (up, down):  8.524E-03 0.000E+00

     total cpu time spent up to now is    12608.2 secs

     total energy              =  -13679.28245663 Ry
     Harris-Foulkes estimate   =  -13679.28248796 Ry
     estimated scf accuracy    <       0.00011357 Ry

     iteration # 36     ecut=    80.00 Ry     beta=0.70
     Davidson diagonalization with overlap
     ethr =  8.23E-09,  avg # of iterations =  2.0

     negative rho (up, down):  5.226E-03 0.000E+00

     total cpu time spent up to now is    12811.2 secs

     total energy              =  -13679.28240078 Ry
     Harris-Foulkes estimate   =  -13679.28246569 Ry
     estimated scf accuracy    <       0.00004023 Ry

     iteration # 37     ecut=    80.00 Ry     beta=0.70
     Davidson diagonalization with overlap
     ethr =  2.92E-09,  avg # of iterations =  7.5

     negative rho (up, down):  2.542E-03 0.000E+00

     total cpu time spent up to now is    13088.6 secs

     total energy              =  -13679.28236194 Ry
     Harris-Foulkes estimate   =  -13679.28240323 Ry
     estimated scf accuracy    <       0.00001809 Ry

     iteration # 38     ecut=    80.00 Ry     beta=0.70
     Davidson diagonalization with overlap
     c_bands:  1 eigenvalues not converged
     ethr =  1.31E-09,  avg # of iterations = 13.2

     negative rho (up, down):  1.929E-03 0.000E+00

     total cpu time spent up to now is    13448.5 secs

     total energy              =  -13679.28235898 Ry
     Harris-Foulkes estimate   =  -13679.28236349 Ry
     estimated scf accuracy    <       0.00000855 Ry

     iteration # 39     ecut=    80.00 Ry     beta=0.70
     Davidson diagonalization with overlap
     c_bands:  1 eigenvalues not converged
     ethr =  6.20E-10,  avg # of iterations =  8.3

     negative rho (up, down):  1.633E-03 0.000E+00

     total cpu time spent up to now is    13739.2 secs

     total energy              =  -13679.28235910 Ry
     Harris-Foulkes estimate   =  -13679.28235989 Ry
     estimated scf accuracy    <       0.00000370 Ry

     iteration # 40     ecut=    80.00 Ry     beta=0.70
     Davidson diagonalization with overlap
     ethr =  2.68E-10,  avg # of iterations =  3.2

     negative rho (up, down):  1.604E-03 0.000E+00

     total cpu time spent up to now is    13957.6 secs

     total energy              =  -13679.28235956 Ry
     Harris-Foulkes estimate   =  -13679.28235941 Ry
     estimated scf accuracy    <       0.00000091 Ry

     iteration # 41     ecut=    80.00 Ry     beta=0.70
     Davidson diagonalization with overlap
     ethr =  6.60E-11,  avg # of iterations =  2.8

     negative rho (up, down):  1.645E-03 0.000E+00

     total cpu time spent up to now is    14171.8 secs

     total energy              =  -13679.28235968 Ry
     Harris-Foulkes estimate   =  -13679.28235964 Ry
     estimated scf accuracy    <       0.00000034 Ry

     iteration # 42     ecut=    80.00 Ry     beta=0.70
     Davidson diagonalization with overlap
     ethr =  2.46E-11,  avg # of iterations =  2.0

     negative rho (up, down):  1.664E-03 0.000E+00

     total cpu time spent up to now is    14375.1 secs

     total energy              =  -13679.28235975 Ry
     Harris-Foulkes estimate   =  -13679.28235972 Ry
     estimated scf accuracy    <       0.00000014 Ry

     iteration # 43     ecut=    80.00 Ry     beta=0.70
     Davidson diagonalization with overlap
     ethr =  1.04E-11,  avg # of iterations =  2.3

     negative rho (up, down):  1.699E-03 0.000E+00

     total cpu time spent up to now is    14590.3 secs

     total energy              =  -13679.28235970 Ry
     Harris-Foulkes estimate   =  -13679.28235976 Ry
     estimated scf accuracy    <       0.00000008 Ry

     iteration # 44     ecut=    80.00 Ry     beta=0.70
     Davidson diagonalization with overlap
     ethr =  6.07E-12,  avg # of iterations =  2.2

     negative rho (up, down):  1.706E-03 0.000E+00

     total cpu time spent up to now is    14794.2 secs

     total energy              =  -13679.28235969 Ry
     Harris-Foulkes estimate   =  -13679.28235971 Ry
     estimated scf accuracy    <       0.00000003 Ry

     iteration # 45     ecut=    80.00 Ry     beta=0.70
     Davidson diagonalization with overlap
     ethr =  2.36E-12,  avg # of iterations =  2.0

     negative rho (up, down):  1.713E-03 0.000E+00

     total cpu time spent up to now is    14999.6 secs

     total energy              =  -13679.28235967 Ry
     Harris-Foulkes estimate   =  -13679.28235970 Ry
     estimated scf accuracy    <       0.00000001 Ry

     iteration # 46     ecut=    80.00 Ry     beta=0.70
     Davidson diagonalization with overlap
     ethr =  8.49E-13,  avg # of iterations =  2.2

     negative rho (up, down):  1.711E-03 0.000E+00

     total cpu time spent up to now is    15201.8 secs

     End of self-consistent calculation

          k = 0.0000 0.0000 0.0000 (256287 PWs)   bands (ev):

   -16.6036 -15.6790 -15.4019 -14.7956 -14.4108 -14.1478 -14.0293 -13.6716
   -13.6407 -13.4523 -13.4381 -12.8595 -12.6980 -12.5401 -12.4881 -12.4497
   -12.4449 -11.0751 -10.8994 -10.8823 -10.7675 -10.6251  -9.7136  -9.1572
    -9.1354  -8.9971  -8.9334  -8.3496  -8.1703  -8.0178  -7.9533  -7.4574
    -7.2722  -7.1678  -7.0243  -6.9518  -6.9443  -6.8986  -6.8714  -5.7558
    -5.7426  -5.5182  -5.4049  -5.4045  -5.3474  -5.2873  -5.2511  -5.2411
    -4.9118  -4.8574  -4.6930  -4.3791  -4.2594  -4.1983  -4.1791  -4.0412
    -3.9267  -3.8662  -3.7956  -3.5955  -3.3982  -3.3592  -3.3583  -3.2875
    -3.0061  -3.0017  -2.9738  -2.9460  -2.9066  -2.8167  -2.8137  -2.7882
    -2.7834  -2.6200  -2.5418  -2.5310  -2.4273  -2.4182  -2.4138  -2.3781
    -2.3777  -2.3520  -2.3237  -2.3107  -2.2752  -2.2422  -2.2229  -2.1953
    -2.1064  -2.1029  -2.0087  -1.9034  -1.8144  -1.8014  -1.7413  -1.7404
    -1.6880  -1.6783  -1.6515  -1.5811  -1.5756  -1.5255  -1.5227  -1.5223
    -1.5125  -1.5117  -1.4448  -1.4228  -1.4221  -1.3864  -1.3855  -1.3854
    -1.3805  -1.3724  -1.3652  -1.2466  -1.2325  -1.2314  -1.1656  -1.1527
    -1.1505  -1.1485  -1.1331  -1.1055  -1.1055  -1.0852  -1.0384  -1.0333
    -1.0319  -1.0271  -1.0205  -0.9796  -0.9525  -0.9512  -0.9494  -0.9321
    -0.9264  -0.9100  -0.9066  -0.8974  -0.8726  -0.8561  -0.8434  -0.7996
    -0.7892  -0.7884  -0.7482  -0.7341  -0.7213  -0.6808  -0.6645  -0.6518
    -0.6365  -0.6332  -0.6281  -0.5971  -0.5941  -0.5920  -0.5751  -0.5689
    -0.5668  -0.5629  -0.5517  -0.5310  -0.5163  -0.5038  -0.4953  -0.4748
    -0.4532  -0.4526  -0.4470  -0.4448  -0.4406  -0.4353  -0.4276  -0.4239
    -0.4215  -0.4189  -0.4006  -0.3874  -0.3753  -0.3721  -0.3652  -0.3558
    -0.3474  -0.3458  -0.3319  -0.3228  -0.3201  -0.3184  -0.3175  -0.3126
    -0.2971  -0.2770  -0.2751  -0.2735  -0.2627  -0.2584  -0.2484  -0.2474
    -0.2279  -0.2271  -0.2254  -0.2224  -0.2158  -0.2141  -0.2072  -0.2045
    -0.2011  -0.1867  -0.1424  -0.1373  -0.1304  -0.1129  -0.1055  -0.0917
    -0.0641  -0.0634  -0.0585  -0.0584  -0.0495  -0.0479  -0.0387  -0.0307
    -0.0181  -0.0175  -0.0018  -0.0004  -0.0001   0.0084   0.0169   0.0299
     0.0313   0.0316   0.0465   0.0475   0.0476   0.0854   0.0863   0.0922
     0.1168   0.1331   0.1424   0.1434   0.1484   0.1493   0.1707   0.1715
     0.1771   0.1816   0.2010   0.2020   0.2027   0.2128   0.2132   0.2149
     0.2156   0.2179   0.2216   0.2359   0.2465   0.2504   0.2565   0.2606
     0.2621   0.2662   0.2667   0.2846   0.2878   0.2979   0.2984   0.3059
     0.3214   0.3219   0.3330   0.3338   0.3350   0.3376   0.3406   0.3520
     0.3539   0.3614   0.3641   0.3677   0.3743   0.3749   0.3804   0.3805
     0.3928   0.3934   0.4150   0.4168   0.4206   0.4216   0.4259   0.4262
     0.4277   0.4287   0.4349   0.4351   0.4633   0.4679   0.4692   0.4719
     0.4920   0.4935   0.5072   0.5173   0.5189   0.5205   0.5221   0.5297
     0.5439   0.5442   0.5498   0.5567   0.5570   0.5599   0.5608   0.5732
     0.5802   0.5879   0.5896   0.5942   0.5966   0.6008   0.6046   0.6158
     0.6182   0.6201   0.6268   0.6269   0.6436   0.6462   0.6483   0.6522
     0.6534   0.6544   0.6553   0.6630   0.6759   0.6760   0.6803   0.6808
     0.6841   0.6857   0.6884   0.6985   0.7257   0.7258   0.7415   0.7576
     0.7580   0.7640   0.7768   0.7817   0.7825   0.7843   0.7874   0.7908
     0.8114   0.8298   0.8324   0.8427   0.8451   0.8457   0.8481   0.8561
     0.8582   0.8708   0.8889   0.8998   0.9026   0.9032   0.9046   0.9116
     0.9119   0.9364   0.9383   0.9470   0.9513   0.9529   0.9580   0.9608
     0.9672   0.9675   0.9971   1.0053   1.0107   1.0121   1.0166   1.0195
     1.0221   1.0239   1.0259   1.0405   1.0406   1.0433   1.0448   1.0516
     1.0669   1.0752   1.0760   1.0817   1.0841   1.0981   1.1000   1.1046
     1.1440   1.1474   1.1518   1.1523   1.1620   1.1644   1.1675   1.1684
     1.1706   1.1773   1.1779   1.1838   1.1841   1.1932   1.1956   1.1969
     1.2004   1.2069   1.2075   1.2092   1.2192   1.2247   1.2330   1.2348
     1.2391   1.2425   1.2483   1.2518   1.2530   1.2558   1.2663   1.2689
     1.2753   1.2809   1.2861   1.2895   1.2897   1.2910   1.2929   1.2943
     1.2974   1.3040   1.3215   1.3277   1.3322   1.3336   1.3355   1.3367
     1.3383   1.3403   1.3492   1.3523   1.3528   1.3618   1.3640   1.3645
     1.3647   1.3755   1.3822   1.3837   1.3857   1.3919   1.3959   1.3988
     1.4067   1.4088   1.4101   1.4335   1.4389   1.4427   1.4505   1.4569
     1.4586   1.4695   1.4716   1.4783   1.4811   1.4832   1.4881   1.4912
     1.4962   1.4968   1.4976   1.5115   1.5160   1.5187   1.5249   1.5366
     1.5386   1.5413   1.5437   1.5454   1.5523   1.5547   1.5576   1.5653
     1.5665   1.5734   1.5748   1.5751   1.5862   1.5906   1.5923   1.6034
     1.6036   1.6050   1.6147   1.6169   1.6217   1.6240   1.6343   1.6410
     1.6436   1.6440   1.6458   1.6574   1.6576   1.6651   1.6710   1.6762
     1.6782   1.6816   1.6869   1.6888   1.6914   1.6931   1.6936   1.6983
     1.6989   1.7108   1.7111   1.7153   1.7236   1.7262   1.7273   1.7291
     1.7296   1.7333   1.7381   1.7447   1.7489   1.7534   1.7537   1.7570
     1.7580   1.7650   1.7686   1.7822   1.7851   1.7958   1.7998   1.8045
     1.8052   1.8057   1.8151   1.8156   1.8276   1.8337   1.8397   1.8411
     1.8463   1.8473   1.8495   1.8553   1.8591   1.8649   1.8654   1.8771
     1.8810   1.8828   1.8841   1.8864   1.8885   1.8905   1.8953   1.8999
     1.9042   1.9096   1.9098   1.9157   1.9177   1.9218   1.9232   1.9289
     1.9328   1.9510   1.9514   1.9528   1.9545   1.9547   1.9588   1.9619
     1.9637   1.9646   1.9678   1.9757   1.9835   1.9892   1.9952   1.9975
     1.9980   1.9993   2.0010   2.0028   2.0031   2.0101   2.0119   2.0130
     2.0132   2.0139   2.0183   2.0209   2.0210   2.0325   2.0346   2.0363
     2.0400   2.0443   2.0444   2.0448   2.0480   2.0589   2.0615   2.0735
     2.0746   2.0749   2.0767   2.0789   2.0905   2.0924   2.0945   2.1119
     2.1219   2.1220   2.1426   2.1440   2.1455   2.1609   2.1661   2.1716
     2.1718   2.1964   2.1980   2.1982   2.2267   2.2294   2.2364   2.2380
     2.2387   2.2419   2.2480   2.2606   2.3102   2.4119   2.4880   2.5595
     2.5909   2.6518   2.6680   2.6697   2.7527   2.7542   2.7803   2.7808
     2.8103   2.8108   2.8222   2.8230   2.8916   2.8935   2.9307   2.9450
     2.9464   2.9957   2.9978   3.1704   3.1731   3.2231   3.2367   3.2921
     3.4065   3.5232   3.5576   3.6170   3.6374   3.7983   3.8100   3.9779
     4.0356   4.0411   4.0717   4.2118   4.2166   4.2893   4.2931   4.4713
     4.4964   4.5120   4.5132   4.5468   4.5492   4.5864   4.6113   4.6119
     4.6154   4.6161   4.9083   5.0148   5.0172   5.0650   5.0869   5.2220
     5.3264   5.3908   5.4261   5.5149   5.5470   5.5679   5.6588   5.6606
     5.7875   5.9088   6.1001   6.1180   6.3033   6.3388   6.3707   6.4771
     6.5147   6.7664   6.8057   6.8124   6.8470   6.8740   7.0469   7.0500
     7.1118   7.1723   7.2389   7.2472   7.3156   7.3825   7.4121   7.4127
     7.4175   7.4236   7.4379   7.4447   7.5125   7.6937   7.6998   7.7242
     7.8557   7.9318   7.9531   7.9973   8.0619   8.1201   8.1599   8.2842
     8.2967   8.3077   8.3077   8.5825   8.5833   8.5870   8.6363   8.6638
     8.6688   8.7010   8.7148   8.7997   8.8250   8.8563   8.9094   8.9274
     8.9826   8.9988   9.0655   9.0698   9.1345   9.1422   9.1542   9.1982
     9.2031   9.2970   9.3030   9.3062   9.3079   9.3391   9.3495   9.3554
     9.3789   9.5227   9.5709   9.7096   9.7102   9.7781   9.8029   9.8240
     9.8367   9.8980   9.9772  10.0346  10.0628  10.0886  10.0930  10.3815
    10.4234  10.4719  10.5031  10.5123  10.5228  10.5468  10.5801  10.5875
    10.6135  10.6295  10.6376  10.6512

          k = 0.0000-0.2165 0.0000 (256176 PWs)   bands (ev):

   -16.6030 -15.7201 -15.2227 -15.0483 -14.4118 -14.0137 -13.7738 -13.7424
   -13.6364 -13.5924 -13.1582 -13.1202 -13.0945 -13.0708 -11.9819 -11.8255
   -11.7556 -11.6960 -11.5537 -11.4554 -10.0187  -9.9615  -9.9270  -9.7731
    -8.8319  -8.8230  -8.6625  -8.4883  -8.3871  -8.3178  -7.7668  -7.6441
    -7.5740  -7.5319  -6.8913  -6.6759  -6.4048  -6.3743  -6.2879  -6.2517
    -6.2293  -6.2120  -5.6056  -5.5137  -5.2905  -5.2484  -4.9115  -4.8240
    -4.6921  -4.5842  -4.5490  -4.4101  -4.3531  -4.2278  -4.1883  -4.1633
    -4.1542  -4.0562  -4.0414  -4.0240  -3.5040  -3.3721  -3.2229  -3.1363
    -3.1353  -3.0832  -2.9147  -2.7129  -2.7058  -2.6683  -2.6673  -2.6372
    -2.6319  -2.5861  -2.5418  -2.5043  -2.4569  -2.4045  -2.4010  -2.3141
    -2.3044  -2.2908  -2.2546  -2.2269  -2.1846  -2.1813  -2.0904  -2.0421
    -2.0008  -1.9874  -1.9689  -1.9567  -1.9524  -1.9388  -1.9344  -1.8832
    -1.8551  -1.8522  -1.8088  -1.7424  -1.7394  -1.6475  -1.5808  -1.5699
    -1.5589  -1.5552  -1.5241  -1.5196  -1.5035  -1.3696  -1.3564  -1.3555
    -1.3367  -1.3366  -1.2573  -1.2293  -1.2065  -1.1938  -1.1700  -1.1652
    -1.1525  -1.1303  -1.1106  -1.1065  -1.0939  -1.0909  -1.0896  -1.0769
    -1.0528  -1.0434  -1.0307  -1.0247  -1.0198  -1.0184  -0.9610  -0.9455
    -0.9343  -0.9096  -0.8795  -0.8701  -0.8692  -0.8062  -0.7870  -0.7577
    -0.7473  -0.7406  -0.7109  -0.7033  -0.7020  -0.6937  -0.6861  -0.6861
    -0.6698  -0.6623  -0.6477  -0.6471  -0.6454  -0.6436  -0.6352  -0.6286
    -0.6180  -0.6057  -0.6037  -0.5799  -0.5349  -0.5289  -0.5108  -0.5100
    -0.4843  -0.4681  -0.4648  -0.4468  -0.4441  -0.4438  -0.4282  -0.4247
    -0.4220  -0.4083  -0.4002  -0.3798  -0.3678  -0.3662  -0.3602  -0.3522
    -0.3471  -0.3450  -0.3397  -0.3172  -0.3126  -0.3093  -0.3070  -0.2957
    -0.2921  -0.2590  -0.2582  -0.2573  -0.2443  -0.2368  -0.2363  -0.2272
    -0.2203  -0.2062  -0.1990  -0.1876  -0.1680  -0.1660  -0.1658  -0.1296
    -0.1069  -0.0894  -0.0809  -0.0777  -0.0624  -0.0517  -0.0507  -0.0467
    -0.0461  -0.0230  -0.0199  -0.0181  -0.0179  -0.0095  -0.0081   0.0015
     0.0123   0.0129   0.0217   0.0218   0.0256   0.0305   0.0333   0.0428
     0.0522   0.0566   0.0685   0.0699   0.0847   0.0871   0.0920   0.1053
     0.1173   0.1276   0.1296   0.1311   0.1325   0.1365   0.1446   0.1461
     0.1595   0.1694   0.1766   0.2031   0.2045   0.2120   0.2124   0.2317
     0.2350   0.2457   0.2467   0.2536   0.2544   0.2669   0.2715   0.2751
     0.2755   0.2816   0.2890   0.2943   0.2995   0.2999   0.3148   0.3186
     0.3229   0.3242   0.3250   0.3268   0.3286   0.3322   0.3328   0.3476
     0.3518   0.3607   0.3622   0.3714   0.3738   0.3743   0.3903   0.3906
     0.3998   0.4011   0.4029   0.4105   0.4126   0.4154   0.4168   0.4215
     0.4242   0.4319   0.4394   0.4453   0.4596   0.4717   0.4806   0.4818
     0.4855   0.4905   0.4955   0.5059   0.5074   0.5081   0.5167   0.5216
     0.5276   0.5292   0.5331   0.5334   0.5361   0.5453   0.5463   0.5651
     0.5654   0.5749   0.5793   0.5868   0.5870   0.5933   0.5948   0.6015
     0.6057   0.6208   0.6227   0.6279   0.6373   0.6426   0.6430   0.6495
     0.6584   0.6637   0.6640   0.6781   0.6870   0.6874   0.6927   0.6975
     0.6977   0.7022   0.7035   0.7139   0.7158   0.7185   0.7229   0.7286
     0.7288   0.7370   0.7407   0.7466   0.7542   0.7597   0.7603   0.7624
     0.7780   0.7809   0.7876   0.8071   0.8177   0.8233   0.8359   0.8537
     0.8539   0.8581   0.8586   0.8712   0.8876   0.8944   0.8959   0.8969
     0.9044   0.9155   0.9227   0.9289   0.9344   0.9371   0.9569   0.9585
     0.9587   0.9774   0.9805   0.9943   0.9966   0.9986   1.0146   1.0271
     1.0288   1.0295   1.0422   1.0424   1.0529   1.0593   1.0597   1.0752
     1.0757   1.0922   1.0936   1.0973   1.1004   1.1088   1.1095   1.1252
     1.1339   1.1350   1.1389   1.1397   1.1435   1.1445   1.1542   1.1549
     1.1584   1.1633   1.1653   1.1754   1.1760   1.1769   1.1809   1.1832
     1.1852   1.1970   1.1974   1.2154   1.2165   1.2222   1.2231   1.2248
     1.2266   1.2340   1.2388   1.2390   1.2432   1.2504   1.2508   1.2618
     1.2645   1.2751   1.2755   1.2759   1.2791   1.2841   1.2947   1.2964
     1.2975   1.2983   1.2998   1.3012   1.3086   1.3113   1.3210   1.3230
     1.3291   1.3311   1.3339   1.3349   1.3357   1.3446   1.3450   1.3612
     1.3616   1.3622   1.3676   1.3794   1.3936   1.4062   1.4075   1.4122
     1.4147   1.4166   1.4230   1.4236   1.4388   1.4644   1.4663   1.4862
     1.4898   1.4964   1.4998   1.5012   1.5024   1.5026   1.5116   1.5136
     1.5155   1.5184   1.5200   1.5234   1.5309   1.5326   1.5341   1.5391
     1.5406   1.5433   1.5515   1.5679   1.5683   1.5694   1.5709   1.5791
     1.5800   1.5828   1.5833   1.5871   1.5919   1.5923   1.5926   1.5932
     1.5942   1.5987   1.6100   1.6112   1.6116   1.6138   1.6143   1.6179
     1.6223   1.6240   1.6257   1.6267   1.6358   1.6487   1.6492   1.6503
     1.6571   1.6636   1.6748   1.6775   1.6806   1.6851   1.6857   1.6894
     1.6972   1.7011   1.7024   1.7170   1.7183   1.7256   1.7346   1.7349
     1.7356   1.7372   1.7460   1.7607   1.7677   1.7708   1.7801   1.7816
     1.7832   1.7865   1.7877   1.7967   1.7968   1.7976   1.8032   1.8060
     1.8083   1.8108   1.8140   1.8147   1.8170   1.8265   1.8281   1.8307
     1.8314   1.8370   1.8381   1.8528   1.8549   1.8593   1.8652   1.8684
     1.8724   1.8741   1.8812   1.8828   1.8837   1.8840   1.8901   1.8930
     1.8937   1.9052   1.9070   1.9119   1.9136   1.9238   1.9241   1.9258
     1.9264   1.9321   1.9350   1.9358   1.9420   1.9425   1.9506   1.9540
     1.9623   1.9627   1.9714   1.9747   1.9797   1.9821   1.9878   1.9946
     1.9991   2.0006   2.0023   2.0043   2.0051   2.0074   2.0127   2.0156
     2.0281   2.0284   2.0352   2.0367   2.0448   2.0458   2.0520   2.0521
     2.0562   2.0583   2.0586   2.0594   2.0775   2.0794   2.0827   2.0829
     2.0885   2.0986   2.1032   2.1125   2.1197   2.1258   2.1295   2.1303
     2.1317   2.1321   2.1333   2.1400   2.1441   2.1497   2.1505   2.1568
     2.1807   2.2092   2.2351   2.2514   2.2525   2.3260   2.3468   2.3496
     2.3513   2.3721   2.3765   2.3885   2.3965   2.4080   2.4281   2.4421
     2.4585   2.4604   2.4612   2.6047   2.6132   2.6516   2.6985   2.7228
     2.7497   2.8194   2.8700   2.8819   2.9885   2.9906   3.0124   3.0359
     3.0390   3.0919   3.1673   3.1816   3.1824   3.2688   3.2730   3.2734
     3.3149   3.5177   3.5178   3.5593   3.5838   3.5897   3.7745   3.7745
     3.8065   3.8086   4.0666   4.0842   4.1574   4.1618   4.2315   4.2695
     4.3070   4.4702   4.4932   4.5599   4.5615   4.5916   4.6162   4.6634
     4.6670   4.7973   4.9980   5.0208   5.1553   5.1661   5.4062   5.4890
     5.6106   5.6145   5.6584   5.6952   5.7251   5.8140   5.8760   5.8786
     5.9395   5.9831   5.9847   6.0181   6.1210   6.1706   6.2904   6.3217
     6.3437   6.3989   6.5146   6.5436   6.6063   6.6976   6.8312   6.9654
     7.0455   7.0500   7.2033   7.2040   7.2147   7.3163   7.4811   7.5446
     7.5475   7.5904   7.6213   7.6239   7.6733   7.7355   7.7363   7.7563
     7.7572   7.7777   7.8814   8.0159   8.0215   8.1283   8.1352   8.1893
     8.1936   8.2348   8.2792   8.3076   8.4802   8.5589   8.5955   8.5967
     8.7695   8.8026   8.8616   8.8756   8.9174   8.9292   8.9411   8.9963
     9.0028   9.0452   9.0458   9.0570   9.0667   9.1247   9.1249   9.2351
     9.3039   9.3051   9.3267   9.4278   9.4837   9.4953   9.5269   9.5286
     9.7165   9.7227   9.7405   9.7408   9.8245   9.8349   9.8893   9.8982
     9.9303   9.9333   9.9369   9.9419   9.9628  10.0493  10.1055  10.1122
    10.2869  10.2966  10.3176  10.3995  10.4626  10.4655  10.4715  10.4895
    10.5470  10.5939  10.6541  10.6822

          k = 0.2500 0.0000 0.0000 (256240 PWs)   bands (ev):

   -16.5512 -15.5688 -15.2791 -15.0122 -14.5762 -14.3452 -14.3133 -14.2416
   -13.4827 -13.3211 -13.1120 -12.6699 -12.5464 -12.4896 -12.3639 -11.7469
   -11.6092 -11.5204 -11.4386 -10.6431 -10.5069 -10.1847 -10.0327  -9.7815
    -9.5959  -9.3093  -9.2741  -8.8660  -8.6374  -8.5296  -8.1011  -7.3797
    -7.1999  -7.1037  -6.9546  -6.9336  -6.8276  -6.4577  -6.3412  -5.7243
    -5.5756  -5.4387  -5.3807  -5.2582  -5.2239  -4.8677  -4.7406  -4.6884
    -4.6842  -4.5472  -4.3122  -4.2431  -4.0301  -4.0017  -3.9198  -3.8923
    -3.8492  -3.7712  -3.7633  -3.6519  -3.5816  -3.4557  -3.4194  -3.3711
    -3.3305  -3.2461  -3.2156  -3.2115  -3.2077  -3.0425  -3.0197  -2.9983
    -2.9592  -2.8431  -2.8321  -2.8152  -2.7926  -2.7686  -2.6172  -2.6085
    -2.5615  -2.4876  -2.4510  -2.3706  -2.3068  -2.2517  -2.2217  -2.1948
    -2.1688  -2.1672  -2.0113  -1.8720  -1.8310  -1.7991  -1.7873  -1.7523
    -1.6933  -1.5757  -1.5491  -1.5054  -1.4915  -1.4849  -1.4713  -1.4598
    -1.4306  -1.4147  -1.3945  -1.3612  -1.3183  -1.3051  -1.2512  -1.2279
    -1.2073  -1.2045  -1.1726  -1.1710  -1.1662  -1.1648  -1.1522  -1.1488
    -1.1008  -1.0948  -1.0755  -1.0432  -1.0419  -1.0395  -0.9997  -0.9720
    -0.9654  -0.9604  -0.9562  -0.9435  -0.9324  -0.9212  -0.9082  -0.9014
    -0.8912  -0.8796  -0.8775  -0.8364  -0.8298  -0.8020  -0.7654  -0.7391
    -0.7337  -0.7124  -0.6941  -0.6805  -0.6538  -0.6523  -0.6363  -0.6268
    -0.6253  -0.6190  -0.6142  -0.6064  -0.5923  -0.5874  -0.5744  -0.5670
    -0.5660  -0.5586  -0.5430  -0.5394  -0.5231  -0.5201  -0.5174  -0.5097
    -0.5041  -0.5002  -0.4942  -0.4808  -0.4773  -0.4647  -0.4527  -0.4445
    -0.4383  -0.4292  -0.4262  -0.4174  -0.4092  -0.4073  -0.4034  -0.4030
    -0.4004  -0.3905  -0.3792  -0.3752  -0.3673  -0.3659  -0.3631  -0.3618
    -0.3573  -0.3533  -0.3498  -0.3422  -0.3199  -0.3046  -0.2882  -0.2834
    -0.2717  -0.2692  -0.2594  -0.2461  -0.2248  -0.1926  -0.1891  -0.1879
    -0.1791  -0.1710  -0.1686  -0.1616  -0.1609  -0.1453  -0.1305  -0.1229
    -0.1218  -0.1140  -0.1085  -0.0922  -0.0647  -0.0193  -0.0131  -0.0027
     0.0001   0.0188   0.0241   0.0257   0.0327   0.0493   0.0578   0.0619
     0.0683   0.0694   0.0781   0.0823   0.0943   0.1021   0.1035   0.1113
     0.1124   0.1170   0.1189   0.1237   0.1430   0.1456   0.1466   0.1475
     0.1647   0.1767   0.1834   0.1995   0.2077   0.2132   0.2161   0.2196
     0.2247   0.2282   0.2335   0.2384   0.2431   0.2456   0.2481   0.2562
     0.2577   0.2746   0.2801   0.2859   0.2902   0.2943   0.3033   0.3050
     0.3103   0.3127   0.3208   0.3285   0.3308   0.3316   0.3359   0.3423
     0.3506   0.3533   0.3654   0.3732   0.3826   0.3839   0.3950   0.3967
     0.4079   0.4185   0.4203   0.4211   0.4345   0.4373   0.4384   0.4445
     0.4479   0.4552   0.4638   0.4742   0.4838   0.4845   0.4961   0.4997
     0.5023   0.5058   0.5125   0.5143   0.5193   0.5259   0.5332   0.5455
     0.5503   0.5544   0.5599   0.5649   0.5670   0.5762   0.5920   0.5960
     0.5974   0.6043   0.6065   0.6076   0.6124   0.6157   0.6195   0.6222
     0.6265   0.6325   0.6340   0.6375   0.6511   0.6593   0.6618   0.6667
     0.6703   0.6711   0.6823   0.6839   0.6861   0.6872   0.6884   0.6958
     0.7036   0.7157   0.7290   0.7313   0.7458   0.7497   0.7555   0.7594
     0.7637   0.7667   0.7702   0.7863   0.7951   0.8011   0.8045   0.8111
     0.8232   0.8282   0.8377   0.8505   0.8636   0.8679   0.8707   0.8746
     0.8823   0.8844   0.8882   0.9009   0.9045   0.9081   0.9102   0.9168
     0.9226   0.9259   0.9283   0.9314   0.9331   0.9382   0.9406   0.9451
     0.9478   0.9568   0.9609   0.9614   0.9660   0.9673   0.9696   0.9738
     0.9821   0.9985   1.0047   1.0151   1.0207   1.0358   1.0424   1.0490
     1.0515   1.0549   1.0590   1.0629   1.0663   1.0680   1.0721   1.0766
     1.0835   1.0934   1.1033   1.1086   1.1090   1.1221   1.1244   1.1253
     1.1316   1.1365   1.1395   1.1502   1.1532   1.1639   1.1651   1.1703
     1.1746   1.1770   1.1897   1.1920   1.1938   1.2018   1.2042   1.2079
     1.2091   1.2207   1.2229   1.2247   1.2318   1.2323   1.2370   1.2461
     1.2493   1.2503   1.2575   1.2611   1.2638   1.2654   1.2727   1.2746
     1.2881   1.2907   1.2910   1.2976   1.2986   1.3158   1.3181   1.3234
     1.3300   1.3387   1.3462   1.3494   1.3501   1.3622   1.3633   1.3708
     1.3712   1.3819   1.3853   1.3887   1.3925   1.3956   1.4083   1.4095
     1.4158   1.4203   1.4219   1.4268   1.4370   1.4423   1.4544   1.4571
     1.4585   1.4594   1.4656   1.4694   1.4699   1.4788   1.4862   1.4905
     1.4924   1.4940   1.4989   1.5065   1.5118   1.5141   1.5190   1.5244
     1.5262   1.5302   1.5314   1.5386   1.5498   1.5587   1.5602   1.5676
     1.5779   1.5833   1.5843   1.5888   1.5953   1.5963   1.5985   1.6061
     1.6129   1.6136   1.6163   1.6214   1.6245   1.6280   1.6338   1.6362
     1.6373   1.6418   1.6486   1.6496   1.6523   1.6550   1.6555   1.6599
     1.6649   1.6674   1.6698   1.6718   1.6722   1.6754   1.6799   1.6874
     1.6944   1.6983   1.7006   1.7050   1.7069   1.7127   1.7147   1.7189
     1.7260   1.7291   1.7301   1.7341   1.7386   1.7460   1.7548   1.7574
     1.7632   1.7666   1.7743   1.7769   1.7839   1.7915   1.7994   1.8009
     1.8038   1.8070   1.8102   1.8199   1.8216   1.8249   1.8260   1.8275
     1.8361   1.8427   1.8471   1.8529   1.8544   1.8614   1.8646   1.8661
     1.8755   1.8767   1.8786   1.8795   1.8815   1.8858   1.8871   1.8882
     1.8966   1.8995   1.9050   1.9061   1.9089   1.9108   1.9197   1.9205
     1.9212   1.9261   1.9332   1.9342   1.9442   1.9510   1.9592   1.9685
     1.9692   1.9709   1.9757   1.9785   1.9794   1.9823   1.9841   1.9898
     1.9921   1.9978   1.9985   2.0039   2.0154   2.0168   2.0181   2.0210
     2.0220   2.0285   2.0298   2.0311   2.0322   2.0364   2.0385   2.0422
     2.0464   2.0488   2.0517   2.0538   2.0594   2.0614   2.0657   2.0718
     2.0735   2.0764   2.0783   2.0820   2.0866   2.0924   2.0971   2.1025
     2.1056   2.1070   2.1124   2.1143   2.1295   2.1337   2.1355   2.1517
     2.1663   2.1671   2.1708   2.1789   2.1900   2.1980   2.2091   2.2194
     2.2263   2.2396   2.2446   2.3307   2.3405   2.3471   2.3809   2.4008
     2.4082   2.4393   2.4572   2.4606   2.5260   2.5983   2.6061   2.6296
     2.6363   2.6829   2.7081   2.9846   3.0500   3.0680   3.0799   3.1144
     3.1936   3.3434   3.4891   3.5215   3.5780   3.5791   3.6157   3.7052
     3.7408   3.7744   3.8217   3.8262   3.8560   3.9972   4.0719   4.0763
     4.1778   4.1965   4.2227   4.2423   4.2476   4.2742   4.2821   4.2881
     4.2907   4.3649   4.5948   4.6523   4.7748   4.8009   4.8879   4.9218
     4.9680   5.0222   5.1150   5.1536   5.1682   5.1920   5.2139   5.3660
     5.4084   5.5646   5.6101   5.6620   5.6779   5.7129   5.7490   5.7728
     5.8085   5.8794   5.9621   5.9652   5.9916   6.1036   6.1890   6.1912
     6.2477   6.3610   6.4553   6.5264   6.5371   6.5587   6.5671   6.5925
     6.8133   6.8370   6.9848   7.0688   7.1384   7.2413   7.2532   7.2988
     7.3265   7.3410   7.3553   7.3752   7.4166   7.4502   7.4775   7.5230
     7.5282   7.5593   7.6322   7.6536   7.7720   7.8916   7.9066   7.9329
     8.0921   8.1109   8.1288   8.2061   8.2752   8.3283   8.3856   8.3991
     8.4699   8.4915   8.5279   8.5979   8.6364   8.6490   8.7563   8.7598
     8.8357   8.9673   8.9779   8.9851   9.0277   9.0439   9.1056   9.1418
     9.2305   9.3208   9.3719   9.3919   9.4182   9.4648   9.4719   9.4812
     9.5360   9.5401   9.5736   9.6152   9.6771   9.7476   9.7670   9.7785
     9.8472   9.8652   9.9580   9.9655   9.9952  10.0435  10.0728  10.0789
    10.1705  10.2342  10.2624  10.3177  10.3644  10.3714  10.3906  10.4252
    10.5377  10.5534  10.5691  10.6485

          k = 0.2500-0.2165 0.0000 (256316 PWs)   bands (ev):

   -16.5508 -15.6002 -15.1949 -14.9310 -14.8054 -14.5823 -14.0483 -13.9510
   -13.6094 -13.5070 -13.0607 -12.6754 -12.6117 -12.5435 -12.1054 -12.0382
   -11.5539 -11.4223 -10.8709 -10.8048 -10.6812 -10.5239 -10.3171  -9.9949
    -9.2236  -9.1313  -8.8087  -8.7564  -8.5083  -8.4426  -8.0729  -7.9859
    -7.8365  -7.8156  -6.6342  -6.4168  -6.2102  -6.0811  -6.0151  -5.9020
    -5.7866  -5.6937  -5.4978  -5.4535  -5.1122  -5.0702  -4.7988  -4.6396
    -4.5722  -4.4852  -4.3289  -4.2742  -4.0677  -4.0259  -3.9991  -3.9598
    -3.9135  -3.8365  -3.7502  -3.7108  -3.5999  -3.5537  -3.5090  -3.4222
    -3.2470  -3.2184  -3.1804  -3.1056  -3.0875  -3.0089  -2.9640  -2.8811
    -2.8392  -2.8007  -2.7794  -2.7684  -2.7595  -2.6884  -2.6766  -2.5516
    -2.4870  -2.4673  -2.4396  -2.3660  -2.2844  -2.2824  -2.2234  -2.1754
    -2.1289  -2.0844  -2.0316  -1.9491  -1.9051  -1.8874  -1.7654  -1.7069
    -1.6869  -1.6605  -1.5946  -1.5423  -1.5350  -1.5334  -1.5204  -1.4825
    -1.4632  -1.4481  -1.4016  -1.3998  -1.3666  -1.3373  -1.3157  -1.2640
    -1.2594  -1.2426  -1.1819  -1.1776  -1.1719  -1.1371  -1.1288  -1.0907
    -1.0842  -1.0796  -1.0762  -1.0731  -1.0722  -1.0579  -1.0550  -1.0494
    -0.9893  -0.9857  -0.9672  -0.9525  -0.9514  -0.9428  -0.9302  -0.8796
    -0.8580  -0.8331  -0.8282  -0.7745  -0.7660  -0.7425  -0.7389  -0.7143
    -0.7101  -0.6967  -0.6670  -0.6639  -0.6635  -0.6623  -0.6414  -0.6400
    -0.6278  -0.6228  -0.6147  -0.6123  -0.6067  -0.5931  -0.5872  -0.5832
    -0.5825  -0.5790  -0.5737  -0.5560  -0.5406  -0.5332  -0.5042  -0.4992
    -0.4984  -0.4944  -0.4935  -0.4862  -0.4587  -0.4517  -0.4486  -0.4411
    -0.4362  -0.4326  -0.4276  -0.4247  -0.4136  -0.4081  -0.3960  -0.3918
    -0.3854  -0.3730  -0.3658  -0.3564  -0.3551  -0.3539  -0.3513  -0.3492
    -0.3444  -0.3367  -0.3176  -0.3061  -0.2903  -0.2879  -0.2729  -0.2692
    -0.2518  -0.2479  -0.2441  -0.2300  -0.2254  -0.2168  -0.2040  -0.1940
    -0.1816  -0.1692  -0.1562  -0.1521  -0.1291  -0.1246  -0.1182  -0.0999
    -0.0927  -0.0796  -0.0751  -0.0656  -0.0607  -0.0472  -0.0434  -0.0270
     0.0023   0.0039   0.0102   0.0205   0.0383   0.0397   0.0423   0.0464
     0.0533   0.0562   0.0642   0.0725   0.0798   0.0843   0.1007   0.1129
     0.1149   0.1207   0.1228   0.1296   0.1360   0.1397   0.1514   0.1557
     0.1622   0.1627   0.1632   0.1768   0.1884   0.1912   0.1983   0.2089
     0.2164   0.2204   0.2294   0.2327   0.2351   0.2385   0.2456   0.2532
     0.2541   0.2570   0.2628   0.2660   0.2675   0.2767   0.2835   0.2872
     0.2929   0.3022   0.3097   0.3155   0.3360   0.3380   0.3481   0.3539
     0.3610   0.3642   0.3712   0.3751   0.3807   0.3911   0.3949   0.3984
     0.4045   0.4082   0.4229   0.4256   0.4262   0.4383   0.4455   0.4482
     0.4605   0.4758   0.4855   0.4941   0.4958   0.4969   0.4986   0.5016
     0.5121   0.5164   0.5169   0.5306   0.5370   0.5385   0.5440   0.5508
     0.5519   0.5587   0.5632   0.5645   0.5689   0.5726   0.5862   0.5870
     0.5944   0.5981   0.6003   0.6048   0.6061   0.6119   0.6160   0.6336
     0.6359   0.6405   0.6438   0.6443   0.6455   0.6584   0.6650   0.6731
     0.6901   0.6953   0.6973   0.6986   0.7022   0.7045   0.7063   0.7124
     0.7218   0.7386   0.7402   0.7445   0.7523   0.7553   0.7600   0.7658
     0.7686   0.7720   0.7727   0.7839   0.7895   0.7911   0.7963   0.7969
     0.8051   0.8107   0.8148   0.8158   0.8254   0.8359   0.8398   0.8543
     0.8664   0.8757   0.8846   0.8897   0.8942   0.9010   0.9079   0.9139
     0.9161   0.9231   0.9286   0.9317   0.9339   0.9341   0.9372   0.9481
     0.9530   0.9612   0.9637   0.9652   0.9684   0.9722   0.9857   0.9940
     0.9955   0.9998   1.0024   1.0090   1.0163   1.0198   1.0297   1.0354
     1.0390   1.0412   1.0470   1.0494   1.0565   1.0646   1.0864   1.0982
     1.1044   1.1086   1.1116   1.1163   1.1190   1.1199   1.1228   1.1286
     1.1343   1.1475   1.1507   1.1594   1.1631   1.1691   1.1854   1.1895
     1.1904   1.1935   1.2012   1.2050   1.2053   1.2092   1.2104   1.2150
     1.2211   1.2273   1.2293   1.2371   1.2442   1.2475   1.2525   1.2557
     1.2654   1.2676   1.2690   1.2750   1.2769   1.2867   1.2875   1.2944
     1.2957   1.3023   1.3059   1.3076   1.3120   1.3147   1.3160   1.3226
     1.3269   1.3350   1.3459   1.3473   1.3498   1.3523   1.3534   1.3542
     1.3583   1.3630   1.3675   1.3705   1.3724   1.3845   1.3861   1.3995
     1.4002   1.4031   1.4128   1.4178   1.4303   1.4351   1.4358   1.4386
     1.4491   1.4519   1.4529   1.4592   1.4596   1.4622   1.4746   1.4810
     1.4836   1.4912   1.4944   1.4949   1.4958   1.4982   1.4990   1.5079
     1.5201   1.5244   1.5285   1.5306   1.5338   1.5344   1.5421   1.5501
     1.5597   1.5668   1.5706   1.5706   1.5769   1.5797   1.5817   1.5946
     1.5964   1.5993   1.6004   1.6102   1.6146   1.6342   1.6366   1.6410
     1.6481   1.6555   1.6612   1.6645   1.6707   1.6747   1.6762   1.6832
     1.6900   1.6912   1.6965   1.6981   1.7014   1.7043   1.7080   1.7088
     1.7104   1.7125   1.7135   1.7191   1.7262   1.7292   1.7303   1.7347
     1.7520   1.7549   1.7600   1.7622   1.7667   1.7697   1.7718   1.7738
     1.7755   1.7774   1.7795   1.7823   1.7851   1.7860   1.7885   1.7908
     1.7980   1.8044   1.8060   1.8097   1.8121   1.8123   1.8142   1.8187
     1.8208   1.8299   1.8338   1.8450   1.8478   1.8493   1.8549   1.8600
     1.8644   1.8656   1.8677   1.8721   1.8755   1.8787   1.8879   1.8970
     1.8984   1.9019   1.9060   1.9127   1.9148   1.9172   1.9216   1.9269
     1.9339   1.9372   1.9420   1.9457   1.9491   1.9544   1.9569   1.9627
     1.9653   1.9675   1.9721   1.9737   1.9773   1.9777   1.9821   1.9861
     1.9871   1.9905   1.9907   2.0024   2.0052   2.0062   2.0131   2.0187
     2.0202   2.0278   2.0294   2.0307   2.0337   2.0369   2.0377   2.0398
     2.0427   2.0506   2.0526   2.0558   2.0571   2.0586   2.0666   2.0724
     2.0773   2.0784   2.0811   2.0816   2.0852   2.0899   2.0911   2.0953
     2.1027   2.1055   2.1104   2.1129   2.1184   2.1264   2.1313   2.1441
     2.1461   2.1508   2.1522   2.1577   2.1669   2.1808   2.1928   2.2106
     2.2397   2.2572   2.2922   2.3083   2.3117   2.3325   2.3327   2.3403
     2.3540   2.3573   2.3707   2.4429   2.7061   2.7131   2.7328   2.7418
     2.7735   2.8320   2.8495   2.8597   2.9677   3.0836   3.1601   3.1655
     3.1792   3.2224   3.2857   3.3782   3.3864   3.4263   3.4629   3.4973
     3.5248   3.6830   3.7679   3.7684   3.7866   3.9810   4.1960   4.2190
     4.2262   4.3119   4.3228   4.3997   4.4261   4.4404   4.4614   4.5972
     4.6523   4.6785   4.7458   4.7463   4.7756   4.8583   4.8988   4.9154
     4.9377   4.9472   5.0563   5.0848   5.1182   5.1745   5.1968   5.2050
     5.2532   5.2817   5.3601   5.4216   5.5050   5.5793   5.5858   5.7901
     5.7995   5.8106   5.9527   5.9868   6.0429   6.0516   6.1382   6.1943
     6.3208   6.3261   6.3953   6.4183   6.5427   6.6173   6.6279   6.6586
     6.8229   6.8690   7.0075   7.0425   7.0541   7.0993   7.1516   7.3326
     7.3872   7.4169   7.4417   7.4630   7.5833   7.6054   7.6721   7.6958
     7.7116   7.7208   7.7386   7.7543   7.7852   7.8939   7.9293   7.9772
     8.0216   8.0644   8.0957   8.0980   8.3340   8.3834   8.4228   8.5036
     8.5244   8.5887   8.6025   8.6335   8.6961   8.7918   8.7973   8.8196
     8.8378   8.8781   8.8845   8.9074   9.0233   9.0869   9.0998   9.1011
     9.1590   9.1755   9.2399   9.2863   9.3182   9.3237   9.3315   9.3503
     9.4378   9.5095   9.5933   9.6243   9.6477   9.6613   9.6964   9.7408
     9.7656   9.8088   9.8351   9.8694   9.9103   9.9457  10.0284  10.0634
    10.0992  10.1061  10.1347  10.2227  10.2310  10.2969  10.3450  10.4215
    10.4511  10.4908  10.5189  10.5582

          k =-0.5000 0.0000 0.0000 (256496 PWs)   bands (ev):

   -16.4886 -15.3822 -15.1950 -15.0129 -14.9403 -14.8736 -14.1958 -13.9838
   -13.8833 -13.8442 -12.5886 -12.2910 -12.1543 -12.0765 -11.8101 -11.7617
   -11.3330 -11.3265 -11.1394 -11.1060 -10.5877 -10.5833 -10.4113 -10.1779
    -9.6838  -9.6758  -9.4526  -9.1156  -8.5524  -8.5441  -8.3430  -8.3258
    -7.2139  -7.0621  -7.0210  -6.8164  -6.7731  -6.7470  -5.6156  -5.6035
    -5.2161  -4.7014  -4.6914  -4.6675  -4.5467  -4.3923  -4.3431  -4.2462
    -4.2291  -4.1973  -4.1896  -4.1754  -4.1710  -4.1604  -4.0711  -4.0463
    -4.0418  -3.9517  -3.9506  -3.9303  -3.8262  -3.7853  -3.7658  -3.5879
    -3.5425  -3.4113  -3.3123  -3.2870  -3.2048  -3.1274  -3.0924  -3.0514
    -2.9813  -2.9498  -2.8162  -2.8068  -2.7932  -2.7906  -2.7885  -2.7869
    -2.7826  -2.7526  -2.4291  -2.4170  -2.3420  -2.3206  -2.2951  -2.2431
    -2.1972  -2.1753  -2.1294  -2.1019  -2.0765  -1.9206  -1.9147  -1.8994
    -1.8874  -1.8858  -1.8755  -1.8469  -1.3391  -1.3311  -1.3299  -1.3256
    -1.2669  -1.2598  -1.2569  -1.2539  -1.2509  -1.2479  -1.2459  -1.2295
    -1.2019  -1.1969  -1.0955  -1.0412  -1.0405  -1.0386  -1.0369  -0.9884
    -0.9870  -0.9850  -0.9818  -0.9690  -0.9678  -0.9426  -0.9243  -0.9125
    -0.8890  -0.8729  -0.8725  -0.8469  -0.8456  -0.8384  -0.8331  -0.8314
    -0.8132  -0.8123  -0.7712  -0.7673  -0.7472  -0.7415  -0.7338  -0.7324
    -0.7152  -0.7083  -0.6988  -0.6956  -0.6827  -0.6824  -0.6774  -0.6749
    -0.6651  -0.6638  -0.6605  -0.6576  -0.6014  -0.5999  -0.5973  -0.5877
    -0.5841  -0.5752  -0.5715  -0.5621  -0.5570  -0.5436  -0.5371  -0.5356
    -0.5300  -0.5126  -0.5104  -0.4966  -0.4952  -0.4887  -0.4876  -0.4744
    -0.4728  -0.4663  -0.4603  -0.4578  -0.4360  -0.4201  -0.4186  -0.4089
    -0.3942  -0.3934  -0.3839  -0.3704  -0.3689  -0.3570  -0.3559  -0.3551
    -0.3478  -0.3463  -0.3449  -0.3297  -0.3290  -0.3235  -0.3045  -0.3024
    -0.3014  -0.2920  -0.2919  -0.2879  -0.2873  -0.2746  -0.2640  -0.2278
    -0.2272  -0.1573  -0.1541  -0.1201  -0.1167  -0.1109  -0.1091  -0.0978
    -0.0850  -0.0841  -0.0690  -0.0602  -0.0570  -0.0509  -0.0501  -0.0408
    -0.0367  -0.0327  -0.0189  -0.0069  -0.0054   0.0019   0.0023   0.0175
     0.0180   0.0236   0.0308   0.0359   0.0398   0.0617   0.0626   0.0948
     0.1034   0.1052   0.1127   0.1148   0.1286   0.1375   0.1482   0.1506
     0.1510   0.1518   0.1784   0.1815   0.1891   0.1908   0.2039   0.2064
     0.2363   0.2370   0.2384   0.2401   0.2561   0.2606   0.2679   0.2688
     0.2754   0.2799   0.2837   0.2852   0.3039   0.3075   0.3151   0.3163
     0.3282   0.3318   0.3433   0.3455   0.3547   0.3573   0.3600   0.3615
     0.3683   0.3688   0.3721   0.3877   0.4047   0.4067   0.4276   0.4309
     0.4367   0.4446   0.4552   0.4579   0.4658   0.4663   0.4686   0.4722
     0.4835   0.4851   0.4984   0.5040   0.5053   0.5104   0.5386   0.5426
     0.5441   0.5457   0.5536   0.5596   0.5673   0.5695   0.5740   0.5748
     0.5778   0.5787   0.5916   0.5927   0.5938   0.5959   0.5982   0.6022
     0.6124   0.6207   0.6320   0.6329   0.6421   0.6443   0.6522   0.6671
     0.6826   0.6842   0.6870   0.6894   0.7003   0.7018   0.7032   0.7037
     0.7039   0.7086   0.7100   0.7109   0.7158   0.7192   0.7203   0.7229
     0.7371   0.7375   0.7394   0.7394   0.7426   0.7463   0.7492   0.7499
     0.7535   0.7549   0.7615   0.7638   0.7731   0.7748   0.7755   0.7769
     0.8062   0.8070   0.8198   0.8204   0.8351   0.8398   0.8736   0.8759
     0.8837   0.8901   0.8927   0.8932   0.9060   0.9079   0.9135   0.9153
     0.9278   0.9354   0.9394   0.9504   0.9521   0.9580   0.9599   0.9637
     0.9651   0.9656   0.9742   0.9744   0.9764   0.9835   0.9906   0.9959
     0.9962   0.9972   1.0014   1.0024   1.0029   1.0034   1.0155   1.0170
     1.0247   1.0261   1.0274   1.0310   1.0526   1.0588   1.0651   1.0670
     1.0795   1.0801   1.0962   1.0993   1.0998   1.1084   1.1121   1.1124
     1.1162   1.1253   1.1293   1.1315   1.1468   1.1483   1.1496   1.1533
     1.1588   1.1632   1.1683   1.1698   1.1747   1.1769   1.1800   1.1811
     1.1837   1.1853   1.2087   1.2165   1.2172   1.2181   1.2220   1.2237
     1.2260   1.2323   1.2369   1.2383   1.2463   1.2504   1.2509   1.2538
     1.2646   1.2679   1.2689   1.2715   1.2846   1.2860   1.2941   1.2944
     1.2959   1.2982   1.2995   1.3090   1.3242   1.3276   1.3387   1.3448
     1.3459   1.3485   1.3543   1.3547   1.3605   1.3663   1.3704   1.3721
     1.3739   1.3799   1.3904   1.3918   1.3997   1.4002   1.4162   1.4179
     1.4218   1.4348   1.4403   1.4427   1.4433   1.4437   1.4456   1.4524
     1.4635   1.4648   1.4649   1.4697   1.4750   1.4763   1.4770   1.4848
     1.4955   1.4986   1.5024   1.5047   1.5056   1.5063   1.5275   1.5318
     1.5352   1.5374   1.5525   1.5563   1.5659   1.5667   1.5796   1.5850
     1.5960   1.5979   1.6000   1.6106   1.6154   1.6171   1.6371   1.6419
     1.6426   1.6555   1.6572   1.6647   1.6673   1.6697   1.6758   1.6784
     1.6877   1.6879   1.6922   1.6928   1.6941   1.6986   1.7106   1.7112
     1.7135   1.7204   1.7236   1.7271   1.7323   1.7345   1.7357   1.7362
     1.7418   1.7465   1.7528   1.7580   1.7587   1.7608   1.7715   1.7790
     1.7794   1.7810   1.7825   1.7880   1.7899   1.7908   1.7961   1.8043
     1.8103   1.8133   1.8164   1.8166   1.8197   1.8233   1.8268   1.8276
     1.8288   1.8342   1.8348   1.8368   1.8426   1.8454   1.8469   1.8539
     1.8660   1.8717   1.8798   1.8809   1.8886   1.8910   1.8956   1.8968
     1.8982   1.8999   1.9043   1.9047   1.9101   1.9155   1.9172   1.9227
     1.9229   1.9253   1.9260   1.9269   1.9302   1.9309   1.9324   1.9336
     1.9360   1.9468   1.9481   1.9544   1.9588   1.9640   1.9660   1.9718
     1.9766   1.9781   1.9789   1.9814   1.9832   1.9928   1.9967   2.0010
     2.0030   2.0039   2.0045   2.0133   2.0210   2.0210   2.0225   2.0252
     2.0257   2.0281   2.0327   2.0365   2.0404   2.0487   2.0488   2.0491
     2.0508   2.0513   2.0635   2.0721   2.0735   2.0739   2.0821   2.0838
     2.0937   2.0983   2.0984   2.1014   2.1125   2.1127   2.1130   2.1133
     2.1217   2.1222   2.1361   2.1423   2.1524   2.1662   2.1672   2.1679
     2.1761   2.1816   2.2083   2.2090   2.2187   2.2203   2.3525   2.3534
     2.3887   2.3924   2.5377   2.5424   2.8047   2.8127   2.8568   2.8589
     2.8673   2.8687   2.8846   2.8870   2.9087   2.9092   3.3211   3.3239
     3.3618   3.3642   3.6630   3.6658   3.6855   3.6930   3.7398   3.7491
     3.7755   3.7766   3.8968   3.9076   3.9369   3.9476   4.3516   4.3869
     4.3986   4.4057   4.4538   4.5334   4.5507   4.6021   4.6155   4.6160
     4.6570   4.7281   4.7313   4.9471   5.0245   5.0778   5.2342   5.2706
     5.2728   5.2837   5.3028   5.3279   5.4425   5.4515   5.4618   5.4659
     5.4830   5.5087   5.5632   5.6093   5.6222   5.6266   5.6289   5.6939
     5.7152   5.7246   5.7271   5.7538   5.7783   5.8231   5.8538   5.9019
     5.9292   5.9676   6.3316   6.3418   6.3449   6.3665   6.3983   6.4486
     6.4835   6.4928   6.5175   6.5252   6.5987   6.6064   6.6458   6.6538
     6.8328   7.0280   7.0683   7.0907   7.0968   7.1299   7.2392   7.2477
     7.6852   7.7122   7.7158   7.7322   7.8149   7.8225   7.8593   7.8849
     8.1177   8.1275   8.1908   8.1943   8.2221   8.2286   8.2599   8.2627
     8.4124   8.4161   8.4702   8.4716   8.5067   8.5097   8.6314   8.6927
     8.7459   8.7582   8.8466   8.8474   8.8715   8.8738   9.1371   9.1487
     9.2358   9.2502   9.2607   9.2710   9.3263   9.3317   9.4339   9.4539
     9.4735   9.4759   9.5105   9.6289   9.6465   9.6707   9.6712   9.7746
     9.7810   9.8782   9.9045   9.9175   9.9557   9.9656   9.9663   9.9758
     9.9794  10.0359  10.1639  10.1667  10.1678  10.1824  10.2712  10.2780
    10.3206  10.3302  10.4342  10.4605

          k =-0.5000-0.2165 0.0000 (256328 PWs)   bands (ev):

   -16.4885 -15.3551 -15.2383 -15.1554 -14.7206 -14.6088 -14.5015 -14.4786
   -13.4244 -13.2329 -13.0770 -13.0533 -12.0200 -11.7777 -11.4213 -11.4112
   -11.3071 -11.1435 -11.0826 -10.9682 -10.9297 -10.8845 -10.7692 -10.7566
    -9.4352  -9.3493  -9.1503  -9.1382  -8.6353  -8.2953  -8.1934  -8.1387
    -7.6599  -7.6392  -7.4267  -7.3995  -5.9531  -5.6666  -5.5383  -5.3546
    -5.2184  -5.0315  -4.7974  -4.6851  -4.6802  -4.6013  -4.5835  -4.5761
    -4.5476  -4.5429  -4.4066  -4.3630  -4.3000  -3.9993  -3.8747  -3.8657
    -3.6979  -3.6451  -3.6190  -3.5981  -3.5837  -3.5641  -3.5534  -3.5307
    -3.5195  -3.5059  -3.4775  -3.4653  -3.3507  -3.2811  -3.1492  -3.1423
    -3.1107  -3.0680  -2.9838  -2.9823  -2.9460  -2.8163  -2.8087  -2.7846
    -2.6805  -2.6064  -2.5783  -2.4966  -2.3594  -2.3543  -2.0824  -2.0784
    -2.0541  -1.9858  -1.9523  -1.9509  -1.9494  -1.9481  -1.8354  -1.7716
    -1.6788  -1.6692  -1.6465  -1.6337  -1.5696  -1.5310  -1.4802  -1.4727
    -1.4652  -1.4583  -1.4402  -1.4003  -1.3261  -1.2291  -1.2222  -1.1999
    -1.1908  -1.1897  -1.1799  -1.1795  -1.1474  -1.1136  -1.0701  -1.0190
    -0.9978  -0.9678  -0.9676  -0.9113  -0.8701  -0.8677  -0.8635  -0.8620
    -0.8254  -0.8228  -0.8205  -0.8190  -0.8178  -0.8171  -0.8159  -0.8084
    -0.8055  -0.8055  -0.7792  -0.7755  -0.7718  -0.7712  -0.7518  -0.7509
    -0.7503  -0.7481  -0.7397  -0.7389  -0.7362  -0.7355  -0.7022  -0.6968
    -0.6935  -0.6296  -0.6282  -0.6174  -0.6142  -0.5952  -0.5910  -0.5831
    -0.5813  -0.5724  -0.5704  -0.5466  -0.5452  -0.5355  -0.5348  -0.5183
    -0.5177  -0.5149  -0.5139  -0.5049  -0.5043  -0.5023  -0.4974  -0.4951
    -0.4894  -0.4884  -0.4575  -0.4562  -0.4548  -0.4509  -0.4369  -0.4350
    -0.4315  -0.4300  -0.4293  -0.4217  -0.4110  -0.4104  -0.4093  -0.4081
    -0.3662  -0.3653  -0.3643  -0.3599  -0.3146  -0.3127  -0.3101  -0.3070
    -0.2535  -0.2523  -0.2291  -0.2278  -0.2051  -0.2046  -0.1962  -0.1952
    -0.1565  -0.1541  -0.1418  -0.1412  -0.1403  -0.1395  -0.1286  -0.1274
    -0.1188  -0.1173  -0.0937  -0.0925  -0.0841  -0.0780  -0.0733  -0.0714
    -0.0599  -0.0596  -0.0588  -0.0524  -0.0297   0.0122   0.0287   0.0309
     0.0459   0.0462   0.0579   0.0669   0.0720   0.0748   0.0810   0.0821
     0.0910   0.1045   0.1199   0.1251   0.1253   0.1271   0.1609   0.1650
     0.1661   0.1722   0.1749   0.1750   0.1760   0.1775   0.1953   0.2119
     0.2144   0.2177   0.2220   0.2356   0.2396   0.2444   0.2499   0.2938
     0.2992   0.3088   0.3173   0.3211   0.3390   0.3453   0.3469   0.3477
     0.3504   0.3519   0.3575   0.3599   0.3632   0.3637   0.3682   0.3704
     0.3826   0.3830   0.4103   0.4199   0.4330   0.4377   0.4388   0.4400
     0.4465   0.4468   0.4492   0.4681   0.4800   0.4838   0.4885   0.4895
     0.4914   0.4919   0.4927   0.4943   0.4966   0.4985   0.5022   0.5069
     0.5226   0.5323   0.5363   0.5432   0.5496   0.5504   0.5662   0.5695
     0.5811   0.5919   0.6065   0.6093   0.6104   0.6321   0.6332   0.6361
     0.6429   0.6445   0.6450   0.6504   0.6525   0.6538   0.6695   0.6704
     0.6708   0.6847   0.6852   0.6875   0.6955   0.7001   0.7019   0.7022
     0.7033   0.7041   0.7048   0.7121   0.7153   0.7189   0.7211   0.7226
     0.7260   0.7352   0.7440   0.7443   0.7471   0.7477   0.7506   0.7514
     0.7601   0.7606   0.7730   0.7754   0.8028   0.8119   0.8127   0.8141
     0.8236   0.8251   0.8270   0.8279   0.8394   0.8548   0.8557   0.8572
     0.8598   0.8669   0.8719   0.8745   0.8842   0.8925   0.8959   0.9107
     0.9138   0.9268   0.9416   0.9495   0.9499   0.9540   0.9623   0.9666
     0.9679   0.9731   0.9744   0.9800   0.9834   0.9970   0.9985   1.0023
     1.0033   1.0104   1.0144   1.0183   1.0202   1.0214   1.0269   1.0301
     1.0305   1.0409   1.0432   1.0450   1.0567   1.0594   1.0633   1.0639
     1.0742   1.0765   1.0793   1.0873   1.0903   1.0910   1.0962   1.1045
     1.1102   1.1126   1.1132   1.1145   1.1295   1.1439   1.1471   1.1481
     1.1542   1.1581   1.1678   1.1713   1.1771   1.1775   1.1803   1.1824
     1.1871   1.2027   1.2095   1.2109   1.2128   1.2135   1.2269   1.2286
     1.2301   1.2312   1.2363   1.2368   1.2384   1.2402   1.2472   1.2627
     1.2676   1.2694   1.2801   1.2806   1.2869   1.2898   1.2900   1.2939
     1.3052   1.3076   1.3109   1.3162   1.3171   1.3206   1.3219   1.3301
     1.3323   1.3351   1.3410   1.3443   1.3459   1.3516   1.3634   1.3662
     1.3751   1.3789   1.3849   1.3868   1.3871   1.3909   1.3926   1.3955
     1.3990   1.4109   1.4122   1.4130   1.4233   1.4266   1.4284   1.4360
     1.4457   1.4610   1.4674   1.4691   1.4753   1.4823   1.4900   1.5011
     1.5125   1.5197   1.5311   1.5325   1.5564   1.5587   1.5691   1.5731
     1.5767   1.5804   1.5823   1.5835   1.6010   1.6092   1.6114   1.6179
     1.6260   1.6267   1.6274   1.6281   1.6288   1.6317   1.6356   1.6375
     1.6401   1.6412   1.6448   1.6451   1.6482   1.6496   1.6531   1.6535
     1.6546   1.6554   1.6614   1.6657   1.6830   1.6861   1.6912   1.6934
     1.6936   1.7014   1.7042   1.7071   1.7091   1.7159   1.7192   1.7204
     1.7320   1.7325   1.7371   1.7384   1.7421   1.7424   1.7439   1.7446
     1.7480   1.7498   1.7561   1.7701   1.7817   1.7844   1.7848   1.7874
     1.8041   1.8058   1.8087   1.8110   1.8222   1.8244   1.8262   1.8275
     1.8279   1.8346   1.8452   1.8486   1.8594   1.8610   1.8661   1.8664
     1.8712   1.8836   1.8838   1.8843   1.8870   1.8939   1.8947   1.8953
     1.8959   1.9103   1.9138   1.9150   1.9284   1.9293   1.9307   1.9311
     1.9369   1.9419   1.9440   1.9463   1.9466   1.9469   1.9511   1.9514
     1.9572   1.9575   1.9578   1.9631   1.9640   1.9685   1.9722   1.9758
     1.9765   1.9772   1.9802   1.9833   1.9866   1.9870   1.9949   1.9962
     2.0007   2.0089   2.0103   2.0109   2.0137   2.0181   2.0207   2.0270
     2.0301   2.0303   2.0331   2.0370   2.0382   2.0426   2.0532   2.0538
     2.0555   2.0596   2.0706   2.0723   2.0799   2.0803   2.0970   2.0984
     2.1013   2.1027   2.1089   2.1121   2.1126   2.1131   2.1265   2.1280
     2.1318   2.1348   2.1377   2.1461   2.1783   2.1787   2.1795   2.1801
     2.1850   2.1856   2.2055   2.2082   2.2207   2.2243   2.2268   2.2446
     2.3941   2.3965   2.3993   2.4053   2.4525   2.4534   2.7117   2.7146
     2.9996   3.0043   3.0302   3.0345   3.1260   3.1333   3.1493   3.1502
     3.3517   3.3538   3.3904   3.3920   3.8603   3.8619   4.0052   4.0271
     4.0371   4.0402   4.0454   4.0564   4.1769   4.1819   4.2622   4.2710
     4.4479   4.4499   4.4767   4.5281   4.5286   4.5359   4.5568   4.6124
     4.6328   4.8158   4.8168   4.8220   4.8266   5.0457   5.0537   5.0932
     5.1401   5.1467   5.2250   5.2434   5.2538   5.3113   5.3413   5.4030
     5.4356   5.4579   5.4710   5.5574   5.5992   5.6203   5.6310   5.6345
     5.6620   5.7029   5.7274   5.7331   5.7702   5.8434   6.0213   6.0360
     6.0537   6.0581   6.1243   6.1515   6.1624   6.1785   6.3310   6.3787
     6.3826   6.4021   6.4233   6.4255   6.7983   6.8024   6.8241   6.8341
     7.1797   7.1940   7.2730   7.2769   7.4897   7.5027   7.5040   7.5252
     7.5826   7.5959   7.7257   7.7305   7.7384   7.7407   7.9410   7.9427
     7.9437   7.9458   8.1105   8.1282   8.1750   8.1941   8.1982   8.4073
     8.4082   8.4190   8.5077   8.5446   8.5970   8.6236   8.6358   8.6390
     8.6714   8.6804   8.8519   8.8809   8.9591   8.9795   9.0133   9.0147
     9.2273   9.2376   9.3024   9.3139   9.4165   9.4168   9.4186   9.4195
     9.5053   9.5078   9.5203   9.5235   9.5903   9.5965   9.6063   9.6067
     9.6147   9.6296   9.6561   9.6716   9.7052   9.7226   9.9590   9.9859
    10.0396  10.0573  10.2715  10.2772  10.2826  10.2829  10.3591  10.3603
    10.5154  10.5208  10.5274  10.5356

     the Fermi energy is     3.9213 ev

!    total energy              =  -13679.28235965 Ry
     Harris-Foulkes estimate   =  -13679.28235967 Ry
     estimated scf accuracy    <          3.5E-09 Ry

     The total energy is the sum of the following terms:

     one-electron contribution = -106325.54824677 Ry
     hartree contribution      =   54658.24973293 Ry
     xc contribution           =   -4789.49659835 Ry
     ewald contribution        =   42784.22308098 Ry
     Dispersion Correction     =      -3.10053462 Ry
     smearing contrib. (-TS)   =      -3.60979382 Ry

     convergence has been achieved in  46 iterations

     Writing output data file gc.save
 
     init_run     :    107.66s CPU    115.18s WALL (       1 calls)
     electrons    :  14150.65s CPU  15086.38s WALL (       1 calls)

     Called by init_run:
     wfcinit      :    105.33s CPU    112.51s WALL (       1 calls)
     potinit      :      0.37s CPU      0.40s WALL (       1 calls)

     Called by electrons:
     c_bands      :  13046.95s CPU  13874.62s WALL (      46 calls)
     sum_band     :    927.16s CPU   1007.30s WALL (      46 calls)
     v_of_rho     :      3.15s CPU      3.76s WALL (      47 calls)
     newd         :      9.27s CPU     15.46s WALL (      47 calls)
     mix_rho      :    164.00s CPU    185.13s WALL (      46 calls)

     Called by c_bands:
     init_us_2    :     41.55s CPU     42.17s WALL (     558 calls)
     cegterg      :  12863.45s CPU  13683.22s WALL (     284 calls)

     Called by sum_band:
     sum_band:bec :      5.50s CPU      6.35s WALL (     276 calls)
     addusdens    :      8.90s CPU     15.10s WALL (      46 calls)

     Called by *egterg:
     h_psi        :   4611.86s CPU   4970.30s WALL (    1957 calls)
     s_psi        :   1128.09s CPU   1142.09s WALL (    1957 calls)
     g_psi        :     11.49s CPU     11.51s WALL (    1667 calls)
     cdiaghg      :   3864.43s CPU   4007.33s WALL (    1943 calls)

     Called by h_psi:
     add_vuspsi   :   1137.99s CPU   1153.01s WALL (    1957 calls)

     General routines
     calbec       :   1618.76s CPU   1630.09s WALL (    2233 calls)
     fft          :      3.77s CPU      4.32s WALL (     610 calls)
     ffts         :     96.93s CPU    109.41s WALL (   24871 calls)
     fftw         :   2601.75s CPU   2886.12s WALL ( 1431784 calls)
     davcio       :      0.24s CPU      3.86s WALL (       6 calls)
 
     Parallel routines
     fft_scatter  :   1665.29s CPU   1828.21s WALL ( 1457265 calls)
 
     PWSCF        :     3h57m CPU        4h13m WALL

 
   This run was terminated on:  18:44:26  20Apr2017            

=------------------------------------------------------------------------------=
   JOB DONE.
=------------------------------------------------------------------------------=
