mpirun: INFO: switching to OpenMPI runtime version 1.10.2

     Program PWSCF v.5.4.0 starts on  2Feb2018 at  2:32:48 

     This program is part of the open-source Quantum ESPRESSO suite
     for quantum simulation of materials; please cite
         "P. Giannozzi et al., J. Phys.:Condens. Matter 21 395502 (2009);
          URL http://www.quantum-espresso.org", 
     in publications or presentations arising from this work. More details at
     http://www.quantum-espresso.org/quote

     Parallel version (MPI & OpenMP), running on      28 processor cores
     Number of MPI processes:                28
     Threads/MPI process:                     1
     R & G space division:  proc/nbgrp/npool/nimage =      28
     Waiting for input...
     Reading input from standard input
Warning: card &IONS ignored
Warning: card / ignored

     Current dimensions of program PWSCF are:
     Max number of different atomic species (ntypx) = 10
     Max number of k-points (npk) =  40000
     Max angular momentum in pseudopotentials (lmaxx) =  3
     WARNING: atomic wfc #  2 for atom type 4 has zero norm
     WARNING: atomic wfc #  4 for atom type 4 has zero norm
     WARNING: atomic wfc #  5 for atom type 4 has zero norm

     -------------------------------------
     Parameters for Dispersion Correction:
     -------------------------------------
       atom      VdW radius       C_6     

        Cu         2.952        374.666
        C_h        2.744         60.710
        C          2.744         60.710
        O          2.536         24.284

     Subspace diagonalization in iterative solution of the eigenvalue problem:
     one sub-group per band group will be used
     scalapack distributed-memory algorithm (size of sub-group:  3*  3 procs)

 
     Parallelization info
     --------------------
     sticks:   dense  smooth     PW     G-vecs:    dense   smooth      PW
     Min         408     408    108                73226    73226    9928
     Max         410     410    109                73231    73231    9931
     Sum       11433   11433   3039              2050409  2050409  278033
 


     bravais-lattice index     =            0
     lattice parameter (alat)  =      13.9425  a.u.
     unit-cell volume          =   21209.0878 (a.u.)^3
     number of atoms/cell      =          151
     number of atomic types    =            4
     number of electrons       =      1308.00
     number of Kohn-Sham states=          785
     kinetic-energy cutoff     =      80.0000  Ry
     charge density cutoff     =     320.0000  Ry
     convergence threshold     =      1.0E-08
     mixing beta               =       0.7000
     number of iterations used =            8  local-TF  mixing
     Exchange-correlation      =  SLA  PW   PBX  PBC ( 1  4  3  4 0 0)

     celldm(1)=  13.942539  celldm(2)=   0.000000  celldm(3)=   0.000000
     celldm(4)=   0.000000  celldm(5)=   0.000000  celldm(6)=   0.000000

     crystal axes: (cart. coord. in units of alat)
               a(1) = (   1.000000   0.000000   0.000000 )  
               a(2) = (   0.000000   2.309401   0.000000 )  
               a(3) = (   0.000000   0.000000   3.388418 )  

     reciprocal axes: (cart. coord. in units 2 pi/alat)
               b(1) = (  1.000000  0.000000  0.000000 )  
               b(2) = (  0.000000  0.433013  0.000000 )  
               b(3) = (  0.000000  0.000000  0.295123 )  


     PseudoPot. # 1 for Cu read from file:
     /home/549/hxw549/Short/pseudopotentials/Cu.pbe-n-van_ak.UPF
     MD5 check sum: 601f7c30f7467666bec936e0661ce3e1
     Pseudo is Ultrasoft + core correction, Zval = 11.0
     Generated by new atomic code, or converted to UPF format
     Using radial grid of  867 points,  6 beta functions with: 
                l(1) =   0
                l(2) =   0
                l(3) =   1
                l(4) =   1
                l(5) =   2
                l(6) =   2
     Q(r) pseudized with  8 coefficients,  rinner =    1.400   1.400   1.400
                                                       1.400   1.400

     PseudoPot. # 2 for C  read from file:
     /home/549/hxw549/Short/pseudopotentials/C.star1s-pbe-mt_gipaw.UPF
     MD5 check sum: ef0cb3dee31bd9e4ba2a832a2c716264
     Pseudo is Norm-conserving, Zval =  5.0
     Generated by new atomic code, or converted to UPF format
     Using radial grid of 1073 points,  1 beta functions with: 
                l(1) =   0

     PseudoPot. # 3 for C  read from file:
     /home/549/hxw549/Short/pseudopotentials/C.pbe-mt_gipaw.UPF
     MD5 check sum: 5ac2f21f2c440b14befe521540822c15
     Pseudo is Norm-conserving, Zval =  4.0
     Generated by new atomic code, or converted to UPF format
     Using radial grid of 1073 points,  1 beta functions with: 
                l(1) =   0

     PseudoPot. # 4 for O  read from file:
     /home/549/hxw549/Short/pseudopotentials/O.pbe-van_gipaw.UPF
     MD5 check sum: 5ce2a047509d4f331db576c963e74b29
     Pseudo is Ultrasoft, Zval =  6.0
     Generated by new atomic code, or converted to UPF format
     Using radial grid of 1095 points,  4 beta functions with: 
                l(1) =   0
                l(2) =   0
                l(3) =   1
                l(4) =   1
     Q(r) pseudized with 0 coefficients 


     atomic species   valence    mass     pseudopotential
        Cu            11.00    63.54600     Cu( 1.00)
        C_h            5.00    12.01070     C ( 1.00)
        C              4.00    12.01070     C ( 1.00)
        O              6.00    15.99940     O ( 1.00)

     No symmetry found



   Cartesian axes

     site n.     atom                  positions (alat units)
         1           Cu  tau(   1) = (   0.0008573  -0.0018351   0.9978221  )
         2           Cu  tau(   2) = (   0.2509084   0.2265501   0.9988819  )
         3           Cu  tau(   3) = (   0.5008508  -0.0019840   0.9975683  )
         4           Cu  tau(   4) = (   0.7507462   0.2262783   0.9983867  )
         5           Cu  tau(   5) = (   0.0009226   0.4569115   0.9995359  )
         6           Cu  tau(   6) = (   0.2509466   0.6897606   1.0003884  )
         7           Cu  tau(   7) = (   0.5007722   0.4569051   0.9997958  )
         8           Cu  tau(   8) = (   0.7508337   0.6899314   1.0007366  )
         9           Cu  tau(   9) = (   0.0008211   0.9242436   1.0005631  )
        10           Cu  tau(  10) = (   0.2510407   1.1587939   0.9997695  )
        11           Cu  tau(  11) = (   0.5010675   0.9243093   1.0009642  )
        12           Cu  tau(  12) = (   0.7507832   1.1585479   1.0002867  )
        13           Cu  tau(  13) = (   0.0008076   1.3920149   0.9981651  )
        14           Cu  tau(  14) = (   0.2508641   1.6229259   0.9968872  )
        15           Cu  tau(  15) = (   0.5009303   1.3917396   0.9986134  )
        16           Cu  tau(  16) = (   0.7508151   1.6234999   0.9965118  )
        17           Cu  tau(  17) = (   0.0010768   1.8521250   0.9962205  )
        18           Cu  tau(  18) = (   0.2506674   2.0802054   0.9970792  )
        19           Cu  tau(  19) = (   0.5006451   1.8527931   0.9957352  )
        20           Cu  tau(  20) = (   0.7510969   2.0800373   0.9962109  )
        21           Cu  tau(  21) = (   0.0009471   0.2250132   1.2487253  )
        22           Cu  tau(  22) = (   0.2507882  -0.0031446   1.2497440  )
        23           Cu  tau(  23) = (   0.5007919   0.2252728   1.2491714  )
        24           Cu  tau(  24) = (   0.7507971  -0.0036897   1.2491278  )
        25           Cu  tau(  25) = (   0.0012713   0.6893980   1.2461710  )
        26           Cu  tau(  26) = (   0.2511689   0.4560768   1.2478036  )
        27           Cu  tau(  27) = (   0.5013541   0.6891833   1.2462003  )
        28           Cu  tau(  28) = (   0.7508430   0.4560683   1.2474521  )
        29           Cu  tau(  29) = (   0.0015975   1.1598104   1.2452581  )
        30           Cu  tau(  30) = (   0.2511932   0.9245903   1.2453945  )
        31           Cu  tau(  31) = (   0.5012471   1.1599306   1.2456365  )
        32           Cu  tau(  32) = (   0.7516486   0.9243255   1.2458244  )
        33           Cu  tau(  33) = (   0.0010131   1.6253539   1.2462781  )
        34           Cu  tau(  34) = (   0.2511431   1.3937977   1.2457308  )
        35           Cu  tau(  35) = (   0.5008404   1.6254812   1.2457260  )
        36           Cu  tau(  36) = (   0.7511009   1.3943200   1.2451525  )
        37           Cu  tau(  37) = (   0.0008426   2.0793482   1.2491166  )
        38           Cu  tau(  38) = (   0.2507133   1.8534255   1.2477591  )
        39           Cu  tau(  39) = (   0.5006933   2.0795606   1.2489990  )
        40           Cu  tau(  40) = (   0.7509172   1.8537366   1.2472554  )
        41           Cu  tau(  41) = (   0.0008611  -0.0043987   1.5029302  )
        42           Cu  tau(  42) = (   0.2512449   0.2256642   1.5010773  )
        43           Cu  tau(  43) = (   0.5006184  -0.0040937   1.5031608  )
        44           Cu  tau(  44) = (   0.7506508   0.2245354   1.4992095  )
        45           Cu  tau(  45) = (   0.0016362   0.4566646   1.4959563  )
        46           Cu  tau(  46) = (   0.2523890   0.6905661   1.4930847  )
        47           Cu  tau(  47) = (   0.5011624   0.4575926   1.4977523  )
        48           Cu  tau(  48) = (   0.7518349   0.6902421   1.4941960  )
        49           Cu  tau(  49) = (   0.0023347   0.9247476   1.4925255  )
        50           Cu  tau(  50) = (   0.2526869   1.1599081   1.4923416  )
        51           Cu  tau(  51) = (   0.5020293   0.9246479   1.4907170  )
        52           Cu  tau(  52) = (   0.7523795   1.1609499   1.4907313  )
        53           Cu  tau(  53) = (   0.0022775   1.3952011   1.4935895  )
        54           Cu  tau(  54) = (   0.2511571   1.6262829   1.4978436  )
        55           Cu  tau(  55) = (   0.5013820   1.3947667   1.4939515  )
        56           Cu  tau(  56) = (   0.7512738   1.6266946   1.4968330  )
        57           Cu  tau(  57) = (   0.0008850   1.8536557   1.5027652  )
        58           Cu  tau(  58) = (   0.2508739   2.0790658   1.5048008  )
        59           Cu  tau(  59) = (   0.5008476   1.8533228   1.5022434  )
        60           Cu  tau(  60) = (   0.7505503   2.0787726   1.5044290  )
        61           Cu  tau(  61) = (   0.0016980   0.2262386   1.7497375  )
        62           Cu  tau(  62) = (   0.2509798  -0.0025672   1.7582257  )
        63           Cu  tau(  63) = (   0.5004316   0.2264262   1.7510009  )
        64           Cu  tau(  64) = (   0.7505303  -0.0023169   1.7573829  )
        65           Cu  tau(  65) = (   0.0019661   0.6913147   1.7387950  )
        66           Cu  tau(  66) = (   0.2525391   0.4569089   1.7431399  )
        67           Cu  tau(  67) = (   0.5023063   0.6918415   1.7420106  )
        68           Cu  tau(  68) = (   0.7512651   0.4566422   1.7431147  )
        69           Cu  tau(  69) = (   0.0041309   1.1625029   1.7356721  )
        70           Cu  tau(  70) = (   0.2541015   0.9252915   1.7395658  )
        71           Cu  tau(  71) = (   0.5034121   1.1639708   1.7344821  )
        72           Cu  tau(  72) = (   0.7552233   0.9274694   1.7335093  )
        73           Cu  tau(  73) = (   0.0022497   1.6232892   1.7515641  )
        74           Cu  tau(  74) = (   0.2533954   1.3956478   1.7415910  )
        75           Cu  tau(  75) = (   0.5018708   1.6237189   1.7502102  )
        76           Cu  tau(  76) = (   0.7526275   1.3955884   1.7397767  )
        77           Cu  tau(  77) = (   0.0007931   2.0789532   1.7611861  )
        78           Cu  tau(  78) = (   0.2511024   1.8512109   1.7583458  )
        79           Cu  tau(  79) = (   0.5009469   2.0787117   1.7606683  )
        80           Cu  tau(  80) = (   0.7514974   1.8508067   1.7587645  )
        81           Cu  tau(  81) = (   0.0027001   0.0029980   2.0095044  )
        82           Cu  tau(  82) = (   0.2527623   0.2336652   2.0024965  )
        83           Cu  tau(  83) = (   0.4986408   0.0010217   2.0104275  )
        84           Cu  tau(  84) = (   0.7489619   0.2291224   2.0040216  )
        85           Cu  tau(  85) = (  -0.0040408   0.4547941   1.9920730  )
        86           Cu  tau(  86) = (   0.2450909   0.6829240   1.9777034  )
        87           Cu  tau(  87) = (   0.5057828   0.4610105   1.9921824  )
        88           Cu  tau(  88) = (   0.7566954   0.6902729   1.9820341  )
        89           Cu  tau(  89) = (  -0.0032760   0.9313842   1.9771744  )
        90           Cu  tau(  90) = (   0.2495046   1.1622461   1.9788034  )
        91           Cu  tau(  91) = (   0.5198945   0.9355611   1.9773492  )
        92           Cu  tau(  92) = (   0.7623623   1.1705451   1.9826590  )
        93           Cu  tau(  93) = (   0.0082718   1.3932274   1.9974148  )
        94           Cu  tau(  94) = (   0.2553816   1.6199201   2.0056436  )
        95           Cu  tau(  95) = (   0.5016980   1.3878665   1.9912681  )
        96           Cu  tau(  96) = (   0.7518046   1.6146709   2.0045172  )
        97           Cu  tau(  97) = (   0.0003802   1.8462857   2.0115053  )
        98           Cu  tau(  98) = (   0.2508654   2.0775278   2.0128486  )
        99           Cu  tau(  99) = (   0.5037438   1.8474348   2.0102532  )
       100           Cu  tau( 100) = (   0.7513138   2.0807412   2.0125075  )
       101           C   tau( 101) = (   0.0011935   0.1000454   2.4741236  )
       102           C   tau( 102) = (   0.0013404   0.2901495   2.5156341  )
       103           C   tau( 103) = (   0.1677339   0.0040837   2.4545295  )
       104           C   tau( 104) = (   0.1682026   0.3849657   2.5377422  )
       105           C   tau( 105) = (   0.3344074   0.1002286   2.4714289  )
       106           C   tau( 106) = (   0.3346996   0.2899831   2.5140076  )
       107           C   tau( 107) = (   0.5012815   0.0040445   2.4544666  )
       108           C   tau( 108) = (   0.5015968   0.3851290   2.5349016  )
       109           C   tau( 109) = (   0.6681420   0.1002381   2.4726525  )
       110           C   tau( 110) = (   0.6684547   0.2904654   2.5131399  )
       111           C   tau( 111) = (   0.8345067   0.0035993   2.4576986  )
       112           C   tau( 112) = (   0.8349029   0.3856629   2.5369630  )
       113           C   tau( 113) = (   0.0018811   0.6733068   2.5877646  )
       114           C   tau( 114) = (   0.0016679   0.8678673   2.6011207  )
       115           C   tau( 115) = (   0.1685863   0.5750921   2.5778622  )
       116           C   tau( 116) = (   0.1663861   0.9662559   2.5993949  )
       117           C   tau( 117) = (   0.3352566   0.6695179   2.5928252  )
       118           C   tau( 118) = (   0.3355020   0.8670591   2.5834879  )
       119           C   tau( 119) = (   0.5017990   0.5752781   2.5750147  )
       120           C_h tau( 120) = (   0.5035221   0.9663080   2.6054749  )
       121           C   tau( 121) = (   0.6682909   0.6736338   2.5862785  )
       122           C   tau( 122) = (   0.6682695   0.8677820   2.6039852  )
       123           C   tau( 123) = (   0.8352335   0.5773365   2.5725417  )
       124           C   tau( 124) = (   0.8349689   0.9652527   2.6001355  )
       125           C   tau( 125) = (   0.0010665   1.2552202   2.5666315  )
       126           C   tau( 126) = (   0.0012477   1.4457697   2.5284987  )
       127           C   tau( 127) = (   0.1675581   1.1585448   2.5807218  )
       128           C   tau( 128) = (   0.1679636   1.5404101   2.5050077  )
       129           C   tau( 129) = (   0.3349431   1.2542814   2.5630127  )
       130           C   tau( 130) = (   0.3347897   1.4444110   2.5243447  )
       131           C   tau( 131) = (   0.5020061   1.1584714   2.5841203  )
       132           C   tau( 132) = (   0.5013393   1.5403612   2.5043339  )
       133           C   tau( 133) = (   0.6681619   1.2552363   2.5673588  )
       134           C   tau( 134) = (   0.6680338   1.4454475   2.5275663  )
       135           C   tau( 135) = (   0.8346856   1.1586075   2.5821647  )
       136           C   tau( 136) = (   0.8345324   1.5411140   2.5071397  )
       137           C   tau( 137) = (   0.0010460   1.8278692   2.4511787  )
       138           C   tau( 138) = (   0.0010317   2.0217261   2.4342541  )
       139           C   tau( 139) = (   0.1678685   1.7310290   2.4663119  )
       140           C   tau( 140) = (   0.1675627   2.1197405   2.4349419  )
       141           C   tau( 141) = (   0.3343157   1.8275601   2.4502918  )
       142           C   tau( 142) = (   0.3343711   2.0217622   2.4360008  )
       143           C   tau( 143) = (   0.5010915   1.7307980   2.4646800  )
       144           C   tau( 144) = (   0.5010073   2.1196324   2.4373775  )
       145           C   tau( 145) = (   0.6676447   1.8274733   2.4494839  )
       146           C   tau( 146) = (   0.6675343   2.0216639   2.4345855  )
       147           C   tau( 147) = (   0.8343141   1.7313514   2.4669788  )
       148           C   tau( 148) = (   0.8342927   2.1195700   2.4359499  )
       149           C   tau( 149) = (   0.3364713   0.8554695   2.3059262  )
       150           O   tau( 150) = (   0.4663307   0.9439922   2.2440879  )
       151           O   tau( 151) = (   0.2156522   0.7576010   2.2397108  )

     number of k points=     6  gaussian smearing, width (Ry)=  0.1000
                       cart. coord. in units 2pi/alat
        k(    1) = (   0.0000000   0.0000000   0.0000000), wk =   0.2500000
        k(    2) = (   0.0000000  -0.2165064   0.0000000), wk =   0.2500000
        k(    3) = (   0.2500000   0.0000000   0.0000000), wk =   0.5000000
        k(    4) = (   0.2500000  -0.2165064   0.0000000), wk =   0.5000000
        k(    5) = (  -0.5000000   0.0000000   0.0000000), wk =   0.2500000
        k(    6) = (  -0.5000000  -0.2165064   0.0000000), wk =   0.2500000

     Dense  grid:  2050409 G-vectors     FFT dimensions: (  80, 192, 270)

     Largest allocated arrays     est. size (Mb)     dimensions
        Kohn-Sham Wavefunctions       109.85 Mb     (    9171,  785)
        NL pseudopotentials           260.99 Mb     (    9171, 1865)
        Each V/rho on FFT grid          2.34 Mb     (  153600)
        Each G-vector array             0.56 Mb     (   73230)
        G-vector shells                 0.27 Mb     (   35784)
     Largest temporary arrays     est. size (Mb)     dimensions
        Auxiliary wavefunctions       439.41 Mb     (    9171, 3140)
        Each subspace H/S matrix       16.69 Mb     (    1046, 1046)
        Each <psi_i|beta_j> matrix     22.34 Mb     (    1865,  785)
        Arrays for rho mixing          18.75 Mb     (  153600,    8)

     Initial potential from superposition of free atoms
     Check: negative starting charge=   -0.001497

     starting charge 1282.31751, renormalised to 1308.00000

     negative rho (up, down):  1.527E-03 0.000E+00
     Starting wfc are 1300 randomized atomic wfcs

     total cpu time spent up to now is      205.8 secs

     Self-consistent Calculation

     iteration #  1     ecut=    80.00 Ry     beta=0.70
     Davidson diagonalization with overlap
     c_bands:  4 eigenvalues not converged
     c_bands:  5 eigenvalues not converged
     c_bands:  5 eigenvalues not converged
     c_bands:  5 eigenvalues not converged
     c_bands:  5 eigenvalues not converged
     ethr =  1.00E-04,  avg # of iterations = 41.7

     negative rho (up, down):  2.528E+01 0.000E+00

     total cpu time spent up to now is     4784.9 secs

     total energy              =  -10041.18990968 Ry
     Harris-Foulkes estimate   =  -18323.82475022 Ry
     estimated scf accuracy    <  212185.53512397 Ry

     iteration #  2     ecut=    80.00 Ry     beta=0.70
     Davidson diagonalization with overlap
     ethr =  1.00E-02,  avg # of iterations = 14.0

     negative rho (up, down):  3.358E+01 0.000E+00

     total cpu time spent up to now is     6885.8 secs

     total energy              =  -11911.67366005 Ry
     Harris-Foulkes estimate   =  -13854.53345924 Ry
     estimated scf accuracy    <   36497.43113776 Ry

     iteration #  3     ecut=    80.00 Ry     beta=0.70
     Davidson diagonalization with overlap
     c_bands:  4 eigenvalues not converged
     ethr =  1.00E-02,  avg # of iterations = 19.2

     negative rho (up, down):  3.176E+01 0.000E+00

     total cpu time spent up to now is     8867.0 secs

     total energy              =  -12163.30364584 Ry
     Harris-Foulkes estimate   =  -13766.98403709 Ry
     estimated scf accuracy    <    6759.14241072 Ry

     iteration #  4     ecut=    80.00 Ry     beta=0.70
     Davidson diagonalization with overlap
     ethr =  1.00E-02,  avg # of iterations =  4.2

     negative rho (up, down):  2.214E+01 0.000E+00

     total cpu time spent up to now is     9863.2 secs

     total energy              =  -12911.22054808 Ry
     Harris-Foulkes estimate   =  -13132.88111910 Ry
     estimated scf accuracy    <     978.20227068 Ry

     iteration #  5     ecut=    80.00 Ry     beta=0.70
     Davidson diagonalization with overlap
     ethr =  1.00E-02,  avg # of iterations =  2.5

     negative rho (up, down):  1.768E+01 0.000E+00

     total cpu time spent up to now is    10352.6 secs

     total energy              =  -12915.63865863 Ry
     Harris-Foulkes estimate   =  -12980.63912393 Ry
     estimated scf accuracy    <    1245.74109737 Ry

     iteration #  6     ecut=    80.00 Ry     beta=0.70
     Davidson diagonalization with overlap
     ethr =  1.00E-02,  avg # of iterations =  1.3

     negative rho (up, down):  1.321E+01 0.000E+00

     total cpu time spent up to now is    10684.2 secs

     total energy              =  -12882.86098749 Ry
     Harris-Foulkes estimate   =  -12940.66346635 Ry
     estimated scf accuracy    <     555.03566893 Ry

     iteration #  7     ecut=    80.00 Ry     beta=0.70
     Davidson diagonalization with overlap
     ethr =  1.00E-02,  avg # of iterations =  2.0

     negative rho (up, down):  7.520E+00 0.000E+00

     total cpu time spent up to now is    11041.8 secs

     total energy              =  -12858.75514906 Ry
     Harris-Foulkes estimate   =  -12907.68008217 Ry
     estimated scf accuracy    <     379.33617590 Ry

     iteration #  8     ecut=    80.00 Ry     beta=0.70
     Davidson diagonalization with overlap
     ethr =  1.00E-02,  avg # of iterations =  2.0

     negative rho (up, down):  6.577E+00 0.000E+00

     total cpu time spent up to now is    11389.9 secs

     total energy              =  -12856.08611110 Ry
     Harris-Foulkes estimate   =  -12868.12772923 Ry
     estimated scf accuracy    <     311.95640223 Ry

     iteration #  9     ecut=    80.00 Ry     beta=0.70
     Davidson diagonalization with overlap
     ethr =  1.00E-02,  avg # of iterations =  1.0

     negative rho (up, down):  5.596E+00 0.000E+00

     total cpu time spent up to now is    11715.4 secs

     total energy              =  -12849.70746964 Ry
     Harris-Foulkes estimate   =  -12859.66687221 Ry
     estimated scf accuracy    <     213.24765718 Ry

     iteration # 10     ecut=    80.00 Ry     beta=0.70
     Davidson diagonalization with overlap
     ethr =  1.00E-02,  avg # of iterations =  1.0

     negative rho (up, down):  1.333E+00 0.000E+00

     total cpu time spent up to now is    12040.7 secs

     total energy              =  -12815.16292796 Ry
     Harris-Foulkes estimate   =  -12850.79094097 Ry
     estimated scf accuracy    <     156.61946267 Ry

     iteration # 11     ecut=    80.00 Ry     beta=0.70
     Davidson diagonalization with overlap
     ethr =  1.00E-02,  avg # of iterations =  1.2

     negative rho (up, down):  5.452E-01 0.000E+00

     total cpu time spent up to now is    12369.8 secs

     total energy              =  -12802.41784715 Ry
     Harris-Foulkes estimate   =  -12823.07249994 Ry
     estimated scf accuracy    <     171.62562674 Ry

     iteration # 12     ecut=    80.00 Ry     beta=0.70
     Davidson diagonalization with overlap
     ethr =  1.00E-02,  avg # of iterations =  2.0

     negative rho (up, down):  1.195E+00 0.000E+00

     total cpu time spent up to now is    12720.2 secs

     total energy              =  -12797.13679505 Ry
     Harris-Foulkes estimate   =  -12810.11928016 Ry
     estimated scf accuracy    <      60.76801385 Ry

     iteration # 13     ecut=    80.00 Ry     beta=0.70
     Davidson diagonalization with overlap
     ethr =  4.65E-03,  avg # of iterations =  2.8

     negative rho (up, down):  4.575E+00 0.000E+00

     total cpu time spent up to now is    13085.7 secs

     total energy              =  -12791.64324075 Ry
     Harris-Foulkes estimate   =  -12799.91831085 Ry
     estimated scf accuracy    <      39.61748946 Ry

     iteration # 14     ecut=    80.00 Ry     beta=0.70
     Davidson diagonalization with overlap
     ethr =  3.03E-03,  avg # of iterations =  4.7

     negative rho (up, down):  5.031E+00 0.000E+00

     total cpu time spent up to now is    13491.5 secs

     total energy              =  -12788.38517022 Ry
     Harris-Foulkes estimate   =  -12793.35324658 Ry
     estimated scf accuracy    <      32.51342180 Ry

     iteration # 15     ecut=    80.00 Ry     beta=0.70
     Davidson diagonalization with overlap
     ethr =  2.49E-03,  avg # of iterations =  2.3

     negative rho (up, down):  3.050E+00 0.000E+00

     total cpu time spent up to now is    13845.8 secs

     total energy              =  -12787.64602860 Ry
     Harris-Foulkes estimate   =  -12790.57010752 Ry
     estimated scf accuracy    <      17.31780720 Ry

     iteration # 16     ecut=    80.00 Ry     beta=0.70
     Davidson diagonalization with overlap
     ethr =  1.32E-03,  avg # of iterations =  3.0

     negative rho (up, down):  4.617E+00 0.000E+00

     total cpu time spent up to now is    14216.4 secs

     total energy              =  -12787.57475629 Ry
     Harris-Foulkes estimate   =  -12789.59837423 Ry
     estimated scf accuracy    <      13.52791107 Ry

     iteration # 17     ecut=    80.00 Ry     beta=0.70
     Davidson diagonalization with overlap
     ethr =  1.03E-03,  avg # of iterations =  5.7

     negative rho (up, down):  4.345E+00 0.000E+00

     total cpu time spent up to now is    14656.4 secs

     total energy              =  -12787.52264929 Ry
     Harris-Foulkes estimate   =  -12788.07089564 Ry
     estimated scf accuracy    <       8.55877342 Ry

     iteration # 18     ecut=    80.00 Ry     beta=0.70
     Davidson diagonalization with overlap
     ethr =  6.54E-04,  avg # of iterations =  1.5

     negative rho (up, down):  3.132E+00 0.000E+00

     total cpu time spent up to now is    14994.1 secs

     total energy              =  -12786.52639755 Ry
     Harris-Foulkes estimate   =  -12787.58689275 Ry
     estimated scf accuracy    <       7.35816628 Ry

     iteration # 19     ecut=    80.00 Ry     beta=0.70
     Davidson diagonalization with overlap
     ethr =  5.63E-04,  avg # of iterations =  1.0

     negative rho (up, down):  8.289E-01 0.000E+00

     total cpu time spent up to now is    15320.4 secs

     total energy              =  -12784.63352542 Ry
     Harris-Foulkes estimate   =  -12786.59052519 Ry
     estimated scf accuracy    <       6.46347422 Ry

     iteration # 20     ecut=    80.00 Ry     beta=0.70
     Davidson diagonalization with overlap
     ethr =  4.94E-04,  avg # of iterations =  5.8

     negative rho (up, down):  6.372E-01 0.000E+00

     total cpu time spent up to now is    15752.9 secs

     total energy              =  -12784.12780204 Ry
     Harris-Foulkes estimate   =  -12784.81934678 Ry
     estimated scf accuracy    <       5.22205728 Ry

     iteration # 21     ecut=    80.00 Ry     beta=0.70
     Davidson diagonalization with overlap
     ethr =  3.99E-04,  avg # of iterations =  3.8

     negative rho (up, down):  1.453E-01 0.000E+00

     total cpu time spent up to now is    16143.5 secs

     total energy              =  -12783.08124103 Ry
     Harris-Foulkes estimate   =  -12784.28717621 Ry
     estimated scf accuracy    <       4.11068568 Ry

     iteration # 22     ecut=    80.00 Ry     beta=0.70
     Davidson diagonalization with overlap
     ethr =  3.14E-04,  avg # of iterations =  6.5

     negative rho (up, down):  6.865E-01 0.000E+00

     total cpu time spent up to now is    16591.5 secs

     total energy              =  -12782.17213673 Ry
     Harris-Foulkes estimate   =  -12783.16441029 Ry
     estimated scf accuracy    <       2.69990014 Ry

     iteration # 23     ecut=    80.00 Ry     beta=0.70
     Davidson diagonalization with overlap
     ethr =  2.06E-04,  avg # of iterations =  8.0

     negative rho (up, down):  7.994E-01 0.000E+00

     total cpu time spent up to now is    17112.1 secs

     total energy              =  -12782.13661246 Ry
     Harris-Foulkes estimate   =  -12782.30865327 Ry
     estimated scf accuracy    <       1.43561601 Ry

     iteration # 24     ecut=    80.00 Ry     beta=0.70
     Davidson diagonalization with overlap
     ethr =  1.10E-04,  avg # of iterations =  7.0

     negative rho (up, down):  5.719E-01 0.000E+00

     total cpu time spent up to now is    17583.4 secs

     total energy              =  -12782.09896275 Ry
     Harris-Foulkes estimate   =  -12782.18824944 Ry
     estimated scf accuracy    <       0.56500203 Ry

     iteration # 25     ecut=    80.00 Ry     beta=0.70
     Davidson diagonalization with overlap
     ethr =  4.32E-05,  avg # of iterations =  7.2

     negative rho (up, down):  2.213E-01 0.000E+00

     total cpu time spent up to now is    18075.3 secs

     total energy              =  -12782.07852121 Ry
     Harris-Foulkes estimate   =  -12782.13138792 Ry
     estimated scf accuracy    <       0.27825468 Ry

     iteration # 26     ecut=    80.00 Ry     beta=0.70
     Davidson diagonalization with overlap
     ethr =  2.13E-05,  avg # of iterations =  7.5

     negative rho (up, down):  1.212E-01 0.000E+00

     total cpu time spent up to now is    18572.9 secs

     total energy              =  -12782.08959800 Ry
     Harris-Foulkes estimate   =  -12782.10028515 Ry
     estimated scf accuracy    <       0.05810731 Ry

     iteration # 27     ecut=    80.00 Ry     beta=0.70
     Davidson diagonalization with overlap
     c_bands:  2 eigenvalues not converged
     c_bands:  1 eigenvalues not converged
     ethr =  4.44E-06,  avg # of iterations = 14.0

     negative rho (up, down):  9.819E-02 0.000E+00

     total cpu time spent up to now is    19223.4 secs

     total energy              =  -12782.09490187 Ry
     Harris-Foulkes estimate   =  -12782.09855609 Ry
     estimated scf accuracy    <       0.04022638 Ry

     iteration # 28     ecut=    80.00 Ry     beta=0.70
     Davidson diagonalization with overlap
     ethr =  3.08E-06,  avg # of iterations =  9.3

     negative rho (up, down):  5.295E-02 0.000E+00

     total cpu time spent up to now is    19755.5 secs

     total energy              =  -12782.09740195 Ry
     Harris-Foulkes estimate   =  -12782.09763832 Ry
     estimated scf accuracy    <       0.01053272 Ry

     iteration # 29     ecut=    80.00 Ry     beta=0.70
     Davidson diagonalization with overlap
     ethr =  8.05E-07,  avg # of iterations =  9.8

     negative rho (up, down):  3.875E-02 0.000E+00

     total cpu time spent up to now is    20346.5 secs

     total energy              =  -12782.09795298 Ry
     Harris-Foulkes estimate   =  -12782.09835946 Ry
     estimated scf accuracy    <       0.00285038 Ry

     iteration # 30     ecut=    80.00 Ry     beta=0.70
     Davidson diagonalization with overlap
     c_bands:  1 eigenvalues not converged
     ethr =  2.18E-07,  avg # of iterations = 10.5

     negative rho (up, down):  2.648E-02 0.000E+00

     total cpu time spent up to now is    20906.9 secs

     total energy              =  -12782.09799905 Ry
     Harris-Foulkes estimate   =  -12782.09820629 Ry
     estimated scf accuracy    <       0.00074576 Ry

     iteration # 31     ecut=    80.00 Ry     beta=0.70
     Davidson diagonalization with overlap
     ethr =  5.70E-08,  avg # of iterations = 10.0

     negative rho (up, down):  2.305E-02 0.000E+00

     total cpu time spent up to now is    21456.1 secs

     total energy              =  -12782.09805323 Ry
     Harris-Foulkes estimate   =  -12782.09806126 Ry
     estimated scf accuracy    <       0.00037854 Ry

     iteration # 32     ecut=    80.00 Ry     beta=0.70
     Davidson diagonalization with overlap
     ethr =  2.89E-08,  avg # of iterations =  5.2

     negative rho (up, down):  1.687E-02 0.000E+00

     total cpu time spent up to now is    21899.1 secs

     total energy              =  -12782.09793846 Ry
     Harris-Foulkes estimate   =  -12782.09808739 Ry
     estimated scf accuracy    <       0.00014740 Ry

     iteration # 33     ecut=    80.00 Ry     beta=0.70
     Davidson diagonalization with overlap
     ethr =  1.13E-08,  avg # of iterations =  7.7

     negative rho (up, down):  1.025E-02 0.000E+00

     total cpu time spent up to now is    22390.0 secs

     total energy              =  -12782.09780576 Ry
     Harris-Foulkes estimate   =  -12782.09794455 Ry
     estimated scf accuracy    <       0.00006475 Ry

     iteration # 34     ecut=    80.00 Ry     beta=0.70
     Davidson diagonalization with overlap
     c_bands:  1 eigenvalues not converged
     ethr =  4.95E-09,  avg # of iterations =  8.7

     negative rho (up, down):  4.099E-03 0.000E+00

     total cpu time spent up to now is    22918.0 secs

     total energy              =  -12782.09770199 Ry
     Harris-Foulkes estimate   =  -12782.09781042 Ry
     estimated scf accuracy    <       0.00004326 Ry

     iteration # 35     ecut=    80.00 Ry     beta=0.70
     Davidson diagonalization with overlap
     ethr =  3.31E-09,  avg # of iterations = 10.2

     negative rho (up, down):  2.000E-03 0.000E+00

     total cpu time spent up to now is    23486.7 secs

     total energy              =  -12782.09768290 Ry
     Harris-Foulkes estimate   =  -12782.09770521 Ry
     estimated scf accuracy    <       0.00000565 Ry

     iteration # 36     ecut=    80.00 Ry     beta=0.70
     Davidson diagonalization with overlap
     c_bands:  1 eigenvalues not converged
     ethr =  4.32E-10,  avg # of iterations =  8.8

     negative rho (up, down):  1.856E-03 0.000E+00

     total cpu time spent up to now is    24034.6 secs

     total energy              =  -12782.09768245 Ry
     Harris-Foulkes estimate   =  -12782.09768381 Ry
     estimated scf accuracy    <       0.00000355 Ry

     iteration # 37     ecut=    80.00 Ry     beta=0.70
     Davidson diagonalization with overlap
     c_bands:  1 eigenvalues not converged
     ethr =  2.71E-10,  avg # of iterations =  5.0

     negative rho (up, down):  1.650E-03 0.000E+00

     total cpu time spent up to now is    24456.3 secs

     total energy              =  -12782.09768300 Ry
     Harris-Foulkes estimate   =  -12782.09768281 Ry
     estimated scf accuracy    <       0.00000073 Ry

     iteration # 38     ecut=    80.00 Ry     beta=0.70
     Davidson diagonalization with overlap
     ethr =  5.56E-11,  avg # of iterations =  2.7

     negative rho (up, down):  1.562E-03 0.000E+00

     total cpu time spent up to now is    24837.9 secs

     total energy              =  -12782.09768317 Ry
     Harris-Foulkes estimate   =  -12782.09768308 Ry
     estimated scf accuracy    <       0.00000039 Ry

     iteration # 39     ecut=    80.00 Ry     beta=0.70
     Davidson diagonalization with overlap
     ethr =  2.96E-11,  avg # of iterations =  2.2

     negative rho (up, down):  1.589E-03 0.000E+00

     total cpu time spent up to now is    25207.5 secs

     total energy              =  -12782.09768331 Ry
     Harris-Foulkes estimate   =  -12782.09768320 Ry
     estimated scf accuracy    <       0.00000007 Ry

     iteration # 40     ecut=    80.00 Ry     beta=0.70
     Davidson diagonalization with overlap
     ethr =  5.59E-12,  avg # of iterations =  3.0

     negative rho (up, down):  1.599E-03 0.000E+00

     total cpu time spent up to now is    25725.0 secs

     total energy              =  -12782.09768337 Ry
     Harris-Foulkes estimate   =  -12782.09768333 Ry
     estimated scf accuracy    <       0.00000005 Ry

     iteration # 41     ecut=    80.00 Ry     beta=0.70
     Davidson diagonalization with overlap
     ethr =  4.03E-12,  avg # of iterations =  2.7

     negative rho (up, down):  1.632E-03 0.000E+00

     total cpu time spent up to now is    26098.6 secs

     total energy              =  -12782.09768338 Ry
     Harris-Foulkes estimate   =  -12782.09768337 Ry
     estimated scf accuracy    <       0.00000001 Ry

     iteration # 42     ecut=    80.00 Ry     beta=0.70
     Davidson diagonalization with overlap
     ethr =  7.88E-13,  avg # of iterations =  3.0

     negative rho (up, down):  1.650E-03 0.000E+00

     total cpu time spent up to now is    26471.6 secs

     End of self-consistent calculation

          k = 0.0000 0.0000 0.0000 (256287 PWs)   bands (ev):

   -20.2663 -18.3934 -16.8156 -15.7956 -15.6151 -14.9810 -14.6165 -14.3612
   -14.2475 -13.8172 -13.7730 -13.6642 -13.6510 -13.0662 -12.9245 -12.7369
   -12.7184 -12.6635 -12.6530 -11.3025 -11.1416 -11.1120 -11.0047 -10.9230
    -9.9322  -9.4271  -9.3886  -9.2387  -9.1669  -8.5450  -8.3890  -8.2308
    -8.1508  -7.6703  -7.4780  -7.4302  -7.2779  -7.1779  -7.1589  -7.1051
    -7.0820  -6.6801  -5.9935  -5.9758  -5.8718  -5.7533  -5.6353  -5.5862
    -5.5487  -5.5254  -5.5098  -5.3566  -5.3330  -5.1952  -5.1213  -4.7647
    -4.5168  -4.5065  -4.3710  -4.2896  -4.2690  -4.2125  -4.0632  -4.0201
    -3.8489  -3.8437  -3.7529  -3.6693  -3.5648  -3.4246  -3.2823  -3.2743
    -3.2658  -3.2623  -3.1984  -3.1201  -3.0710  -3.0353  -2.9289  -2.8846
    -2.8764  -2.8736  -2.8683  -2.8610  -2.8065  -2.6915  -2.6508  -2.6349
    -2.5600  -2.5161  -2.4840  -2.4525  -2.4345  -2.4171  -2.3749  -2.3709
    -2.1972  -2.1641  -2.1623  -2.1576  -2.1455  -2.0646  -2.0605  -2.0332
    -2.0311  -2.0276  -2.0267  -1.9107  -1.8979  -1.8968  -1.8877  -1.8828
    -1.8542  -1.7603  -1.7318  -1.7096  -1.6614  -1.6548  -1.6150  -1.6113
    -1.6069  -1.6044  -1.5980  -1.5888  -1.5762  -1.5616  -1.5349  -1.5262
    -1.5159  -1.5009  -1.4875  -1.4800  -1.4538  -1.4462  -1.4350  -1.4247
    -1.4158  -1.4087  -1.4035  -1.3979  -1.3949  -1.3862  -1.3423  -1.3314
    -1.3195  -1.2940  -1.2354  -1.1866  -1.1821  -1.1790  -1.1725  -1.1670
    -1.1599  -1.1409  -1.1272  -1.1218  -1.0982  -1.0941  -1.0770  -1.0709
    -1.0685  -1.0514  -1.0316  -0.9416  -0.9349  -0.9328  -0.9301  -0.9273
    -0.9236  -0.9178  -0.9161  -0.9105  -0.9046  -0.8993  -0.8975  -0.8934
    -0.8852  -0.8797  -0.8775  -0.8731  -0.8686  -0.8369  -0.8297  -0.8231
    -0.8192  -0.7961  -0.7934  -0.7900  -0.7845  -0.7610  -0.7497  -0.7442
    -0.7401  -0.7359  -0.7359  -0.7333  -0.7318  -0.7300  -0.7278  -0.7245
    -0.7213  -0.7199  -0.7187  -0.7172  -0.7151  -0.7050  -0.6608  -0.6338
    -0.6041  -0.5710  -0.5673  -0.5664  -0.5628  -0.5466  -0.5313  -0.5257
    -0.5152  -0.5135  -0.5038  -0.5005  -0.4976  -0.4931  -0.4875  -0.4768
    -0.4759  -0.4607  -0.4489  -0.4475  -0.4417  -0.4376  -0.4313  -0.4256
    -0.4228  -0.4199  -0.4176  -0.3688  -0.3649  -0.3498  -0.3290  -0.3217
    -0.3187  -0.3083  -0.3028  -0.3003  -0.2981  -0.2964  -0.2950  -0.2907
    -0.2876  -0.2845  -0.2834  -0.2808  -0.2787  -0.2741  -0.2717  -0.2674
    -0.2655  -0.2609  -0.2389  -0.2364  -0.2201  -0.2183  -0.1814  -0.1799
    -0.1727  -0.1705  -0.1690  -0.1686  -0.1493  -0.1484  -0.1481  -0.1418
    -0.1349  -0.1316  -0.1304  -0.1280  -0.1215  -0.1202  -0.1095  -0.1068
    -0.1023  -0.1003  -0.0975  -0.0905  -0.0790  -0.0752  -0.0726  -0.0695
    -0.0657  -0.0645  -0.0449  -0.0255  -0.0207  -0.0137  -0.0080  -0.0009
     0.0012   0.0257   0.0317   0.0403   0.0500   0.0563   0.0603   0.0626
     0.0641   0.0700   0.0748   0.0799   0.0878   0.1015   0.1032   0.1094
     0.1131   0.1161   0.1218   0.1300   0.1372   0.1399   0.1535   0.1554
     0.1577   0.1594   0.1624   0.1662   0.1732   0.1740   0.1755   0.1792
     0.1824   0.1866   0.2012   0.2077   0.2203   0.2220   0.2279   0.2343
     0.2500   0.2513   0.2708   0.2734   0.2837   0.2873   0.2958   0.3036
     0.3138   0.3189   0.3246   0.3305   0.3548   0.3606   0.3667   0.3794
     0.3868   0.4002   0.4066   0.4080   0.4092   0.4191   0.4212   0.4464
     0.4488   0.4693   0.4724   0.4737   0.4754   0.4850   0.4909   0.4936
     0.4993   0.5037   0.5067   0.5136   0.5310   0.5342   0.5497   0.5552
     0.5648   0.5678   0.5752   0.5780   0.5852   0.5889   0.5959   0.5984
     0.6077   0.6132   0.6184   0.6283   0.6332   0.6376   0.6447   0.6458
     0.6494   0.6530   0.6613   0.6645   0.6652   0.6669   0.6681   0.6743
     0.6766   0.6769   0.6845   0.6861   0.6886   0.6928   0.7101   0.7147
     0.7170   0.7222   0.7390   0.7491   0.7512   0.7534   0.7621   0.7665
     0.7667   0.7714   0.7760   0.7798   0.7873   0.7877   0.7902   0.7920
     0.7944   0.7952   0.7969   0.8042   0.8121   0.8181   0.8273   0.8358
     0.8377   0.8390   0.8393   0.8502   0.8503   0.8535   0.8580   0.8634
     0.8684   0.8735   0.8748   0.8775   0.8803   0.8896   0.9091   0.9158
     0.9272   0.9282   0.9318   0.9370   0.9503   0.9571   0.9601   0.9661
     0.9680   0.9745   0.9797   0.9816   0.9832   0.9989   1.0001   1.0020
     1.0042   1.0078   1.0133   1.0236   1.0280   1.0350   1.0388   1.0391
     1.0456   1.0474   1.0489   1.0504   1.0534   1.0596   1.0715   1.0928
     1.0942   1.0966   1.0997   1.1062   1.1110   1.1146   1.1208   1.1258
     1.1289   1.1324   1.1342   1.1362   1.1433   1.1452   1.1511   1.1532
     1.1584   1.1636   1.1686   1.1695   1.1805   1.1829   1.1929   1.1959
     1.1994   1.2054   1.2071   1.2104   1.2127   1.2149   1.2183   1.2192
     1.2244   1.2282   1.2301   1.2327   1.2360   1.2365   1.2433   1.2448
     1.2478   1.2600   1.2630   1.2653   1.2756   1.2778   1.2812   1.2923
     1.2974   1.3043   1.3136   1.3170   1.3200   1.3278   1.3297   1.3379
     1.3447   1.3468   1.3505   1.3533   1.3561   1.3592   1.3633   1.3660
     1.3762   1.3806   1.3813   1.3840   1.3855   1.3874   1.3907   1.3958
     1.4005   1.4035   1.4065   1.4113   1.4146   1.4153   1.4163   1.4183
     1.4215   1.4249   1.4285   1.4354   1.4390   1.4434   1.4462   1.4512
     1.4556   1.4583   1.4610   1.4654   1.4671   1.4698   1.4803   1.4847
     1.4864   1.4908   1.5053   1.5067   1.5069   1.5101   1.5217   1.5230
     1.5256   1.5306   1.5321   1.5335   1.5356   1.5366   1.5384   1.5398
     1.5402   1.5479   1.5576   1.5606   1.5618   1.5703   1.5723   1.5743
     1.5795   1.5816   1.5822   1.5840   1.6003   1.6070   1.6124   1.6176
     1.6255   1.6268   1.6568   1.6603   1.6641   1.6738   1.6822   1.6919
     1.6946   1.7013   1.7200   1.7274   1.7322   1.7330   1.7379   1.7415
     1.7565   1.7638   1.7788   1.7923   2.0345   2.0581   2.1725   2.1802
     2.2098   2.2451   2.3019   2.3060   2.3109   2.3119   2.3158   2.3227
     2.3263   2.3286   2.4574   2.4607   2.5258   2.5292   2.5692   2.5762
     2.5794   2.6531   2.7664   2.8047   2.8179   2.8301   2.8797   3.1230
     3.1971   3.3236   3.3726   3.5714   3.5937   3.8605   3.8866   3.9180
     3.9354   3.9481   3.9543   3.9599   4.0039   4.0387   4.0498   4.0731
     4.0984   4.1098   4.1158   4.1174   4.1253   4.2104   4.2524   4.2652
     4.2781   4.4749   4.6490   4.8759   4.9800   5.0457   5.2342   5.2598
     5.2744   5.3881   5.4143   5.4365   5.6450   5.6859   5.7434   5.8760
     6.0195   6.0288   6.0562   6.2882   6.2981   6.4155   6.4650   6.4959
     6.5390   6.5685   6.5905   6.6264   6.6619   6.7679   6.7985   6.8388
     6.8573   6.9641   7.0062   7.0303   7.0561   7.0815   7.1471   7.1720
     7.1787   7.2351   7.3500   7.3663   7.4687   7.5012   7.5440   7.5945
     7.6622   7.7684   7.7812   7.8494   7.9189   8.0834   8.1111   8.1836
     8.1880   8.2323   8.2649   8.2818   8.3668   8.3672   8.4197   8.4411
     8.4473   8.4573   8.5671   8.5860   8.6559   8.6657   8.6702   8.6765
     8.7325   8.7725   8.8066   8.8316   8.8748   8.8779   8.9081   8.9326
     8.9881   9.0573   9.1079   9.1216   9.1864   9.1933   9.2507   9.3837
     9.4338   9.4609   9.4876   9.5164   9.5285   9.5472   9.6059   9.6857
     9.7195   9.7764   9.8167   9.9403  10.0684  10.1510  10.1518  10.1869
    10.2131

          k = 0.0000-0.2165 0.0000 (256176 PWs)   bands (ev):

   -20.2663 -18.3934 -16.8152 -15.8530 -15.4295 -15.2217 -14.6276 -14.2398
   -13.9100 -13.8895 -13.8481 -13.8210 -13.3819 -13.3249 -13.2753 -13.2573
   -12.2054 -12.0358 -11.9832 -11.9055 -11.7897 -11.7319 -10.2825 -10.1949
   -10.1668 -10.0380  -9.1229  -9.0241  -8.9030  -8.7337  -8.5765  -8.5345
    -7.9700  -7.8577  -7.7806  -7.7235  -7.0807  -6.9543  -6.7643  -6.5963
    -6.5580  -6.5045  -6.4754  -6.4460  -6.4177  -5.9089  -5.8104  -5.7480
    -5.7278  -5.2367  -5.1718  -5.1062  -5.0250  -4.8732  -4.8004  -4.6954
    -4.6918  -4.6708  -4.6085  -4.5971  -4.4449  -4.3458  -4.3187  -4.1338
    -4.0280  -3.7218  -3.6588  -3.6310  -3.4252  -3.3720  -3.2774  -3.1698
    -3.1676  -3.1663  -3.1527  -3.0878  -3.0000  -2.9560  -2.8949  -2.8891
    -2.8708  -2.7674  -2.7371  -2.7126  -2.6221  -2.6140  -2.5941  -2.5614
    -2.5518  -2.5437  -2.4706  -2.4530  -2.4516  -2.4468  -2.4421  -2.3327
    -2.3322  -2.2989  -2.2829  -2.2345  -2.1829  -2.1626  -2.1359  -2.0710
    -2.0586  -2.0078  -2.0003  -1.9957  -1.9895  -1.8631  -1.8604  -1.8431
    -1.8414  -1.8332  -1.7962  -1.7923  -1.7880  -1.7452  -1.6676  -1.6593
    -1.6403  -1.6312  -1.6280  -1.6120  -1.6104  -1.5980  -1.5937  -1.5731
    -1.5438  -1.5415  -1.5396  -1.5334  -1.5307  -1.5179  -1.3812  -1.3805
    -1.3586  -1.3444  -1.2599  -1.2525  -1.2387  -1.2265  -1.2146  -1.2040
    -1.1920  -1.1812  -1.1709  -1.1685  -1.1640  -1.1586  -1.1550  -1.1537
    -1.1443  -1.1422  -1.1329  -1.1229  -1.1193  -1.1111  -1.0989  -1.0962
    -1.0889  -1.0866  -1.0797  -1.0617  -1.0372  -1.0112  -0.9964  -0.9732
    -0.9684  -0.9658  -0.9603  -0.9472  -0.9409  -0.9348  -0.9306  -0.9283
    -0.9233  -0.8766  -0.8692  -0.8607  -0.8574  -0.8561  -0.8551  -0.8537
    -0.8524  -0.8145  -0.8093  -0.8071  -0.8032  -0.7984  -0.7905  -0.7861
    -0.7776  -0.7651  -0.7596  -0.7351  -0.7198  -0.7146  -0.7106  -0.6975
    -0.6936  -0.6927  -0.6901  -0.6764  -0.6683  -0.6603  -0.6448  -0.6399
    -0.6356  -0.6291  -0.6236  -0.5802  -0.5544  -0.5403  -0.5210  -0.5175
    -0.5147  -0.5132  -0.4941  -0.4916  -0.4890  -0.4874  -0.4872  -0.4849
    -0.4716  -0.4461  -0.4197  -0.4156  -0.4144  -0.4126  -0.4098  -0.4053
    -0.3935  -0.3887  -0.3844  -0.3797  -0.3789  -0.3733  -0.3701  -0.3417
    -0.3401  -0.3388  -0.3366  -0.3285  -0.3283  -0.3251  -0.3135  -0.2878
    -0.2860  -0.2684  -0.2650  -0.2500  -0.2465  -0.2136  -0.2116  -0.1980
    -0.1958  -0.1947  -0.1927  -0.1914  -0.1873  -0.1752  -0.1742  -0.1672
    -0.1536  -0.1461  -0.1421  -0.1397  -0.1379  -0.1331  -0.1299  -0.1289
    -0.1281  -0.1261  -0.1100  -0.0984  -0.0960  -0.0903  -0.0893  -0.0876
    -0.0844  -0.0838  -0.0562  -0.0467  -0.0394  -0.0351  -0.0348  -0.0314
    -0.0295  -0.0284  -0.0205  -0.0170  -0.0151  -0.0079   0.0193   0.0210
     0.0248   0.0278   0.0292   0.0371   0.0382   0.0398   0.0429   0.0451
     0.0462   0.0594   0.0819   0.0876   0.0949   0.1045   0.1067   0.1107
     0.1122   0.1190   0.1210   0.1324   0.1373   0.1424   0.1462   0.1524
     0.1603   0.1638   0.1659   0.1776   0.1787   0.1890   0.1927   0.1949
     0.1972   0.2124   0.2168   0.2235   0.2241   0.2276   0.2318   0.2394
     0.2444   0.2504   0.2611   0.2631   0.2691   0.2745   0.2843   0.2992
     0.3006   0.3125   0.3172   0.3195   0.3265   0.3328   0.3341   0.3446
     0.3560   0.3670   0.3938   0.3994   0.4008   0.4065   0.4289   0.4358
     0.4468   0.4683   0.4830   0.4895   0.5038   0.5108   0.5166   0.5203
     0.5281   0.5371   0.5406   0.5409   0.5423   0.5438   0.5477   0.5556
     0.5610   0.5752   0.5825   0.5890   0.5918   0.5960   0.5987   0.6027
     0.6038   0.6085   0.6109   0.6137   0.6174   0.6254   0.6278   0.6329
     0.6347   0.6380   0.6383   0.6436   0.6469   0.6496   0.6512   0.6580
     0.6675   0.6695   0.6726   0.6751   0.6827   0.6867   0.6887   0.6915
     0.6922   0.6938   0.7053   0.7071   0.7088   0.7099   0.7182   0.7189
     0.7366   0.7405   0.7477   0.7486   0.7549   0.7638   0.7654   0.7752
     0.7803   0.7866   0.7889   0.7953   0.7968   0.7980   0.7994   0.8014
     0.8042   0.8074   0.8248   0.8289   0.8320   0.8476   0.8526   0.8586
     0.8626   0.8649   0.8684   0.8700   0.8764   0.8821   0.8956   0.9001
     0.9030   0.9047   0.9053   0.9124   0.9425   0.9474   0.9882   0.9914
     1.0066   1.0085   1.0108   1.0144   1.0181   1.0215   1.0251   1.0267
     1.0276   1.0307   1.0319   1.0345   1.0352   1.0407   1.0430   1.0472
     1.0558   1.0635   1.0655   1.0675   1.0679   1.0726   1.0739   1.0792
     1.0803   1.0810   1.0839   1.0859   1.0883   1.0905   1.0912   1.0976
     1.1003   1.1037   1.1051   1.1067   1.1133   1.1136   1.1230   1.1269
     1.1330   1.1375   1.1403   1.1415   1.1457   1.1483   1.1497   1.1527
     1.1544   1.1576   1.1585   1.1648   1.1900   1.1947   1.2012   1.2017
     1.2315   1.2352   1.2359   1.2524   1.2736   1.2757   1.2776   1.2832
     1.2845   1.2940   1.2954   1.2992   1.3013   1.3026   1.3057   1.3065
     1.3108   1.3113   1.3128   1.3154   1.3183   1.3204   1.3222   1.3294
     1.3295   1.3333   1.3361   1.3386   1.3434   1.3440   1.3494   1.3536
     1.3595   1.3625   1.3676   1.3693   1.3744   1.3798   1.3857   1.3863
     1.3945   1.3965   1.3985   1.4052   1.4088   1.4102   1.4133   1.4173
     1.4244   1.4251   1.4336   1.4387   1.4404   1.4415   1.4447   1.4534
     1.4637   1.4721   1.4742   1.4775   1.4814   1.4860   1.4874   1.4889
     1.4906   1.4930   1.4966   1.5035   1.5041   1.5107   1.5123   1.5330
     1.5348   1.5398   1.5433   1.5482   1.5510   1.5518   1.5547   1.5556
     1.5560   1.5645   1.5725   1.5772   1.5857   1.5866   1.5910   1.5938
     1.5965   1.5991   1.6061   1.6112   1.6186   1.6199   1.6219   1.6245
     1.6328   1.6394   1.6616   1.6736   1.6765   1.6779   1.6972   1.7306
     1.7631   1.7640   1.7743   1.7896   1.8665   1.8702   1.8717   1.8722
     1.8750   1.8987   1.9065   1.9243   1.9294   1.9350   1.9367   1.9411
     1.9509   1.9730   2.0684   2.2028   2.3336   2.3555   2.4594   2.4612
     2.5252   2.5308   2.6070   2.6104   2.6379   2.6421   2.6839   2.6920
     2.6963   2.7195   2.7964   2.8099   2.8212   2.8263   2.9044   2.9147
     3.0299   3.0332   3.2579   3.2724   3.2725   3.2853   3.3200   3.3485
     3.6716   3.7860   3.7975   4.0534   4.0601   4.0937   4.1911   4.1939
     4.2989   4.3378   4.3843   4.3921   4.4507   4.4616   4.4824   4.5222
     4.6021   4.6408   4.7729   4.7838   5.1730   5.2028   5.2269   5.2972
     5.3622   5.4504   5.4575   5.4697   5.4817   5.5776   5.6626   5.7567
     5.8785   5.8996   6.1035   6.1533   6.2979   6.3196   6.3359   6.3434
     6.3953   6.4722   6.5152   6.6447   6.7008   6.7319   6.7600   6.8328
     6.8515   6.9150   7.0547   7.0843   7.1160   7.1438   7.1545   7.2210
     7.2277   7.2497   7.2654   7.2919   7.3917   7.4233   7.4327   7.4687
     7.6061   7.7075   7.7592   7.7883   7.8803   7.9554   7.9818   8.0981
     8.1981   8.2074   8.2978   8.3007   8.4598   8.4756   8.4853   8.5008
     8.5416   8.5567   8.6520   8.6559   8.7034   8.7336   8.7714   8.7775
     8.8032   8.8372   8.8572   8.8905   8.9501   8.9609   9.0760   9.1280
     9.1584   9.2018   9.2152   9.2647   9.3340   9.3692   9.3750   9.3975
     9.4105   9.4148   9.4586   9.4750   9.5138   9.5171   9.5684   9.5848
     9.6027   9.6681   9.8919   9.9004   9.9152   9.9940  10.0019  10.0136
    10.1253

          k = 0.2500 0.0000 0.0000 (256240 PWs)   bands (ev):

   -20.2663 -18.3936 -16.7631 -15.6855 -15.4925 -15.2169 -14.7053 -14.5505
   -14.5238 -14.4489 -13.6837 -13.5283 -13.3336 -12.8439 -12.7722 -12.6871
   -12.5783 -11.9632 -11.8401 -11.7306 -11.6576 -10.9296 -10.7523 -10.3716
   -10.2451 -10.0705  -9.8003  -9.5409  -9.4864  -9.0772  -8.8332  -8.7362
    -8.3903  -7.6495  -7.4473  -7.3705  -7.2118  -7.1856  -7.0749  -6.7598
    -6.6338  -6.5181  -5.9547  -5.8242  -5.6943  -5.6512  -5.5588  -5.5077
    -5.2197  -5.1764  -5.1659  -5.1300  -5.0739  -4.9625  -4.5940  -4.5693
    -4.3251  -4.2842  -4.2384  -4.2212  -4.1345  -4.0955  -4.0381  -4.0039
    -3.9078  -3.8631  -3.8510  -3.8044  -3.7032  -3.6978  -3.6445  -3.5722
    -3.4437  -3.4069  -3.3187  -3.3063  -3.2922  -3.1546  -3.1320  -3.1223
    -3.0303  -2.9893  -2.9488  -2.9440  -2.9209  -2.8827  -2.7853  -2.7736
    -2.6871  -2.6688  -2.6660  -2.5863  -2.5119  -2.4003  -2.3601  -2.2895
    -2.2636  -2.2205  -2.1818  -2.1780  -2.0855  -2.0644  -1.9728  -1.9703
    -1.9588  -1.9477  -1.9220  -1.8243  -1.7940  -1.7813  -1.7435  -1.7004
    -1.6814  -1.6803  -1.6774  -1.6762  -1.6748  -1.6711  -1.6518  -1.6437
    -1.6380  -1.6092  -1.5658  -1.5508  -1.5133  -1.5088  -1.4923  -1.4698
    -1.4611  -1.4525  -1.4507  -1.4482  -1.4407  -1.4371  -1.4275  -1.4076
    -1.3911  -1.3855  -1.3816  -1.3797  -1.3666  -1.2877  -1.2544  -1.2114
    -1.2016  -1.1962  -1.1881  -1.1614  -1.1360  -1.1265  -1.1224  -1.1192
    -1.1153  -1.1052  -1.0899  -1.0784  -1.0746  -1.0652  -1.0633  -1.0565
    -1.0536  -1.0411  -1.0225  -1.0188  -1.0128  -1.0105  -0.9924  -0.9885
    -0.9840  -0.9766  -0.9715  -0.9526  -0.9254  -0.9172  -0.9067  -0.9026
    -0.8972  -0.8942  -0.8902  -0.8872  -0.8842  -0.8801  -0.8748  -0.8737
    -0.8702  -0.8663  -0.8596  -0.8567  -0.8539  -0.8497  -0.8468  -0.8419
    -0.8372  -0.8214  -0.8120  -0.7812  -0.7693  -0.7574  -0.7325  -0.7296
    -0.6980  -0.6941  -0.6895  -0.6832  -0.6752  -0.6691  -0.6613  -0.6527
    -0.6460  -0.6322  -0.6255  -0.6242  -0.6157  -0.6107  -0.6003  -0.5958
    -0.5767  -0.5021  -0.4890  -0.4715  -0.4650  -0.4562  -0.4497  -0.4473
    -0.4411  -0.4350  -0.4327  -0.4306  -0.4295  -0.4114  -0.4055  -0.4033
    -0.3978  -0.3907  -0.3807  -0.3725  -0.3686  -0.3658  -0.3629  -0.3609
    -0.3539  -0.3526  -0.3487  -0.3468  -0.3325  -0.2909  -0.2904  -0.2775
    -0.2747  -0.2682  -0.2654  -0.2608  -0.2564  -0.2546  -0.2462  -0.2363
    -0.2328  -0.2276  -0.2249  -0.2195  -0.1904  -0.1857  -0.1829  -0.1753
    -0.1749  -0.1694  -0.1669  -0.1640  -0.1611  -0.1467  -0.1443  -0.1372
    -0.1349  -0.1320  -0.1190  -0.1178  -0.0942  -0.0850  -0.0835  -0.0821
    -0.0797  -0.0749  -0.0694  -0.0602  -0.0595  -0.0520  -0.0501  -0.0485
    -0.0235  -0.0193  -0.0030  -0.0007   0.0020   0.0117   0.0142   0.0288
     0.0404   0.0476   0.0508   0.0663   0.0769   0.0838   0.0873   0.0901
     0.0946   0.0978   0.1038   0.1055   0.1069   0.1117   0.1233   0.1257
     0.1284   0.1307   0.1344   0.1391   0.1444   0.1473   0.1503   0.1530
     0.1579   0.1655   0.1690   0.1746   0.1850   0.2011   0.2019   0.2087
     0.2212   0.2259   0.2288   0.2336   0.2402   0.2453   0.2470   0.2509
     0.2538   0.2608   0.2722   0.2812   0.2867   0.3010   0.3336   0.3407
     0.3574   0.3620   0.3659   0.3706   0.3785   0.3873   0.3945   0.3973
     0.3983   0.4009   0.4047   0.4066   0.4094   0.4130   0.4150   0.4184
     0.4258   0.4325   0.4353   0.4425   0.4444   0.4477   0.4552   0.4631
     0.4770   0.4793   0.4879   0.4902   0.4959   0.5046   0.5184   0.5314
     0.5394   0.5461   0.5532   0.5582   0.5643   0.5663   0.5718   0.5757
     0.5828   0.5851   0.5877   0.5922   0.6007   0.6080   0.6127   0.6135
     0.6144   0.6164   0.6186   0.6204   0.6252   0.6381   0.6494   0.6543
     0.6608   0.6644   0.6678   0.6726   0.6768   0.6793   0.6841   0.6873
     0.6884   0.6954   0.7048   0.7079   0.7102   0.7176   0.7229   0.7287
     0.7362   0.7418   0.7434   0.7453   0.7469   0.7533   0.7595   0.7641
     0.7650   0.7685   0.7740   0.7788   0.7828   0.8106   0.8137   0.8169
     0.8232   0.8385   0.8479   0.8527   0.8569   0.8587   0.8622   0.8704
     0.8720   0.8775   0.8798   0.8842   0.8887   0.8960   0.8976   0.9005
     0.9024   0.9343   0.9399   0.9421   0.9503   0.9568   0.9596   0.9637
     0.9662   0.9716   0.9883   0.9884   0.9901   0.9930   0.9966   0.9988
     1.0008   1.0056   1.0073   1.0119   1.0142   1.0180   1.0215   1.0237
     1.0324   1.0480   1.0496   1.0647   1.0691   1.0781   1.0803   1.0940
     1.0963   1.1013   1.1066   1.1102   1.1120   1.1203   1.1217   1.1240
     1.1253   1.1263   1.1287   1.1335   1.1355   1.1414   1.1460   1.1513
     1.1541   1.1573   1.1609   1.1647   1.1664   1.1699   1.1740   1.1797
     1.1815   1.1841   1.1915   1.1941   1.1968   1.1987   1.2032   1.2123
     1.2169   1.2182   1.2231   1.2253   1.2288   1.2311   1.2322   1.2351
     1.2375   1.2403   1.2464   1.2524   1.2586   1.2666   1.2677   1.2777
     1.2815   1.2961   1.2975   1.2989   1.3024   1.3057   1.3086   1.3237
     1.3305   1.3347   1.3437   1.3509   1.3578   1.3601   1.3617   1.3627
     1.3670   1.3685   1.3704   1.3796   1.3816   1.3859   1.3930   1.3949
     1.3957   1.3997   1.4057   1.4088   1.4104   1.4140   1.4156   1.4187
     1.4229   1.4249   1.4283   1.4305   1.4334   1.4347   1.4429   1.4488
     1.4513   1.4558   1.4569   1.4581   1.4672   1.4767   1.4798   1.4862
     1.4891   1.4981   1.5082   1.5145   1.5197   1.5215   1.5232   1.5257
     1.5271   1.5314   1.5350   1.5362   1.5395   1.5407   1.5425   1.5468
     1.5504   1.5540   1.5578   1.5602   1.5634   1.5655   1.5726   1.5747
     1.5826   1.5843   1.5882   1.5895   1.5938   1.5958   1.5995   1.6035
     1.6078   1.6092   1.6202   1.6279   1.6309   1.6442   1.6517   1.6671
     1.6759   1.6851   1.6940   1.7266   1.7278   1.7340   1.7420   1.7628
     1.7774   1.8300   1.8449   1.8725   1.8823   1.9149   1.9394   1.9411
     2.0645   2.1382   2.1396   2.1433   2.1517   2.1810   2.1984   2.2568
     2.2762   2.3050   2.4179   2.6529   2.6661   2.6695   2.7007   3.0456
     3.0839   3.0849   3.2811   3.2980   3.3061   3.3124   3.3236   3.3245
     3.3858   3.5118   3.5359   3.6331   3.6948   3.7325   3.7530   3.7814
     3.7980   3.8017   3.8785   3.8887   3.9402   3.9664   4.0330   4.0660
     4.1415   4.2975   4.3817   4.4072   4.4129   4.5206   4.6813   4.7379
     4.8616   4.9202   4.9354   5.1069   5.1964   5.3120   5.3181   5.3484
     5.3696   5.4959   5.5022   5.5408   5.5588   5.5851   5.6016   5.6283
     5.6762   5.7060   5.7505   5.7718   5.7838   5.9457   6.0274   6.0978
     6.1126   6.1205   6.1414   6.1570   6.3842   6.5433   6.7494   6.7811
     6.8059   6.8414   6.8571   6.8819   6.9686   7.0142   7.0618   7.1001
     7.1207   7.1491   7.1681   7.2006   7.2143   7.2363   7.2610   7.3514
     7.3826   7.4220   7.6004   7.6313   7.6682   7.7157   7.7508   7.7760
     7.8399   7.9897   8.0865   8.1087   8.1662   8.2009   8.2368   8.2590
     8.2750   8.3319   8.3686   8.3743   8.3863   8.4800   8.5325   8.5359
     8.6129   8.7151   8.7307   8.8173   9.0431   9.0468   9.0558   9.0737
     9.0941   9.1821   9.2191   9.2274   9.2385   9.3028   9.3242   9.3555
     9.3832   9.4032   9.5254   9.5365   9.5620   9.5902   9.6156   9.6653
     9.7032   9.7233   9.8013   9.8179   9.8882   9.8987   9.9061   9.9406
     9.9974

          k = 0.2500-0.2165 0.0000 (256316 PWs)   bands (ev):

   -20.2663 -18.3936 -16.7628 -15.7290 -15.4070 -15.1024 -15.0170 -14.7401
   -14.2606 -14.1265 -13.8425 -13.7049 -13.2922 -12.8456 -12.8139 -12.7480
   -12.3173 -12.2252 -11.8030 -11.6809 -11.1089 -11.0235 -10.9211 -10.7744
   -10.5367 -10.1765  -9.4218  -9.3542  -9.0482  -8.9942  -8.7681  -8.6973
    -8.3235  -8.2233  -8.0819  -8.0249  -6.9083  -6.7543  -6.6043  -6.4535
    -6.2854  -6.2142  -6.1001  -6.0035  -5.9455  -5.7895  -5.7505  -5.5701
    -5.5549  -5.1918  -5.1423  -5.0109  -4.8611  -4.7155  -4.6037  -4.5366
    -4.5279  -4.5036  -4.4302  -4.2477  -4.2100  -4.1999  -4.1417  -4.0741
    -3.9262  -3.8577  -3.8053  -3.7422  -3.6695  -3.5187  -3.4969  -3.3985
    -3.3259  -3.3180  -3.2821  -3.2594  -3.2447  -3.2427  -3.1739  -3.0703
    -3.0205  -2.9763  -2.8618  -2.8492  -2.7892  -2.7784  -2.7736  -2.7691
    -2.7574  -2.6809  -2.6603  -2.6324  -2.5624  -2.5531  -2.4331  -2.3738
    -2.1865  -2.1814  -2.1640  -2.1147  -2.0827  -2.0475  -2.0453  -2.0275
    -2.0197  -1.9702  -1.8872  -1.8830  -1.8786  -1.8560  -1.8211  -1.7399
    -1.7263  -1.6915  -1.6892  -1.6789  -1.6599  -1.6318  -1.6059  -1.5915
    -1.5872  -1.5863  -1.5783  -1.5730  -1.5570  -1.5545  -1.5509  -1.5496
    -1.5459  -1.5410  -1.5384  -1.5157  -1.4717  -1.4635  -1.4503  -1.3843
    -1.3451  -1.3372  -1.2919  -1.2650  -1.2315  -1.2136  -1.1887  -1.1689
    -1.1663  -1.1592  -1.1474  -1.1457  -1.1408  -1.1369  -1.1267  -1.1208
    -1.1194  -1.1183  -1.1097  -1.1070  -1.0995  -1.0900  -1.0846  -1.0820
    -1.0732  -1.0536  -1.0514  -1.0500  -1.0430  -1.0176  -1.0146  -1.0102
    -0.9962  -0.9918  -0.9899  -0.9862  -0.9580  -0.9405  -0.9358  -0.9185
    -0.9146  -0.9041  -0.8917  -0.8813  -0.8785  -0.8701  -0.8650  -0.8550
    -0.8512  -0.8438  -0.8400  -0.8357  -0.8324  -0.8297  -0.8243  -0.8128
    -0.8017  -0.7971  -0.7959  -0.7803  -0.7650  -0.7429  -0.7420  -0.7261
    -0.6900  -0.6792  -0.6640  -0.6484  -0.6416  -0.6367  -0.6351  -0.6317
    -0.6063  -0.5971  -0.5909  -0.5893  -0.5866  -0.5851  -0.5802  -0.5676
    -0.5647  -0.5609  -0.5345  -0.5198  -0.5097  -0.4942  -0.4919  -0.4779
    -0.4678  -0.4557  -0.4494  -0.4465  -0.4299  -0.4250  -0.4140  -0.4068
    -0.3907  -0.3839  -0.3763  -0.3753  -0.3733  -0.3657  -0.3612  -0.3457
    -0.3336  -0.3106  -0.3079  -0.3034  -0.2930  -0.2901  -0.2817  -0.2793
    -0.2771  -0.2733  -0.2658  -0.2609  -0.2530  -0.2496  -0.2486  -0.2456
    -0.2372  -0.2295  -0.2245  -0.2208  -0.2096  -0.2060  -0.2011  -0.1964
    -0.1949  -0.1859  -0.1771  -0.1689  -0.1660  -0.1619  -0.1517  -0.1488
    -0.1312  -0.1308  -0.1250  -0.1231  -0.1184  -0.1117  -0.0988  -0.0843
    -0.0746  -0.0672  -0.0636  -0.0604  -0.0517  -0.0213  -0.0159   0.0052
     0.0068   0.0111   0.0129   0.0156   0.0225   0.0303   0.0367   0.0402
     0.0447   0.0487   0.0529   0.0603   0.0700   0.0743   0.0847   0.0873
     0.0913   0.0978   0.1011   0.1049   0.1086   0.1100   0.1109   0.1126
     0.1176   0.1226   0.1253   0.1284   0.1315   0.1354   0.1408   0.1430
     0.1496   0.1542   0.1725   0.1800   0.1856   0.1866   0.1939   0.1977
     0.2137   0.2176   0.2342   0.2411   0.2452   0.2520   0.2554   0.2595
     0.2722   0.2745   0.2759   0.2791   0.2839   0.2875   0.2921   0.2950
     0.3065   0.3276   0.3507   0.3564   0.3629   0.3717   0.3855   0.3910
     0.3929   0.3990   0.4040   0.4124   0.4138   0.4178   0.4264   0.4307
     0.4325   0.4369   0.4383   0.4444   0.4496   0.4529   0.4539   0.4579
     0.4828   0.4840   0.4923   0.4943   0.5035   0.5097   0.5117   0.5193
     0.5270   0.5284   0.5413   0.5480   0.5552   0.5597   0.5653   0.5704
     0.5723   0.5826   0.5892   0.5945   0.5982   0.6043   0.6088   0.6120
     0.6168   0.6200   0.6226   0.6319   0.6400   0.6456   0.6498   0.6566
     0.6915   0.6931   0.6951   0.6988   0.7064   0.7096   0.7179   0.7220
     0.7255   0.7268   0.7290   0.7297   0.7356   0.7415   0.7476   0.7520
     0.7614   0.7644   0.7685   0.7708   0.7756   0.7786   0.7819   0.7841
     0.7882   0.7902   0.7940   0.7984   0.8035   0.8042   0.8062   0.8124
     0.8161   0.8198   0.8216   0.8233   0.8288   0.8343   0.8383   0.8428
     0.8522   0.8602   0.8659   0.8681   0.8684   0.8766   0.8865   0.9087
     0.9198   0.9217   0.9301   0.9349   0.9385   0.9431   0.9464   0.9512
     0.9541   0.9555   0.9564   0.9623   0.9661   0.9678   0.9706   0.9731
     0.9761   0.9809   0.9908   0.9974   1.0015   1.0135   1.0150   1.0196
     1.0239   1.0299   1.0326   1.0348   1.0390   1.0459   1.0493   1.0610
     1.0661   1.0682   1.0774   1.0782   1.0822   1.0873   1.1014   1.1071
     1.1192   1.1246   1.1283   1.1385   1.1572   1.1620   1.1697   1.1785
     1.1890   1.1902   1.1948   1.1960   1.1987   1.1994   1.2027   1.2043
     1.2058   1.2086   1.2099   1.2114   1.2142   1.2154   1.2204   1.2231
     1.2291   1.2347   1.2396   1.2488   1.2543   1.2555   1.2588   1.2683
     1.2710   1.2722   1.2780   1.2814   1.2843   1.2876   1.2896   1.2935
     1.2956   1.3004   1.3051   1.3069   1.3108   1.3127   1.3149   1.3207
     1.3260   1.3284   1.3324   1.3352   1.3364   1.3372   1.3390   1.3465
     1.3491   1.3544   1.3570   1.3675   1.3699   1.3745   1.3752   1.3831
     1.3860   1.3919   1.3952   1.4060   1.4139   1.4174   1.4197   1.4212
     1.4314   1.4350   1.4385   1.4425   1.4437   1.4467   1.4510   1.4548
     1.4599   1.4638   1.4694   1.4710   1.4765   1.4799   1.4814   1.4863
     1.4896   1.4919   1.4953   1.4977   1.5063   1.5135   1.5181   1.5199
     1.5210   1.5227   1.5243   1.5262   1.5283   1.5321   1.5376   1.5399
     1.5438   1.5481   1.5519   1.5566   1.5580   1.5596   1.5633   1.5661
     1.5737   1.5776   1.5810   1.5853   1.5886   1.5994   1.6086   1.6115
     1.6144   1.6219   1.6263   1.6375   1.6468   1.6531   1.6543   1.6673
     1.6766   1.6864   1.6970   1.7259   1.7480   1.7621   1.7876   1.8220
     1.8357   1.8399   1.8465   1.8516   1.8559   1.8600   1.8755   1.8815
     1.8862   1.9682   2.0537   2.1267   2.2319   2.2338   2.2636   2.2675
     2.3556   2.4277   2.6874   2.6906   2.8361   2.8397   2.8756   2.8846
     2.8913   2.8958   2.9325   2.9472   3.0700   3.0864   3.0966   3.1836
     3.4540   3.5625   3.5781   3.6237   3.6444   3.7199   3.8964   3.9405
     3.9444   3.9657   4.0116   4.0954   4.1191   4.1854   4.2145   4.2679
     4.2719   4.3974   4.4812   4.4856   4.5959   4.6048   4.6779   4.7587
     4.7714   4.8072   4.8848   4.9032   4.9250   5.0172   5.1023   5.1342
     5.1811   5.2967   5.3402   5.4091   5.4165   5.4599   5.5305   5.5940
     5.6229   5.6943   5.8062   5.8560   5.8828   5.9009   5.9211   6.0552
     6.2040   6.2578   6.4194   6.5370   6.5819   6.6507   6.6890   6.7251
     6.7990   6.8284   6.8713   6.9033   6.9411   7.0329   7.0850   7.1004
     7.2027   7.2473   7.2645   7.2930   7.3497   7.3633   7.3799   7.4386
     7.4853   7.5112   7.5210   7.5471   7.6193   7.6300   7.6832   7.8117
     7.8515   7.8640   7.9110   7.9252   8.0395   8.2011   8.2214   8.3010
     8.3581   8.4755   8.5219   8.5632   8.6334   8.6427   8.6550   8.6702
     8.6938   8.7177   8.7744   8.8006   8.8636   8.8802   8.9313   8.9447
     8.9875   9.0583   9.1639   9.1802   9.2252   9.2309   9.2453   9.2835
     9.2972   9.3399   9.3507   9.3902   9.4230   9.4734   9.4797   9.5005
     9.5338   9.5681   9.6363   9.6550   9.6871   9.7130   9.9932  10.0040
    10.0140

          k =-0.5000 0.0000 0.0000 (256496 PWs)   bands (ev):

   -20.2662 -18.3938 -16.7003 -15.5526 -15.3035 -15.1885 -15.1598 -15.0834
   -14.3808 -14.1925 -14.0932 -14.0507 -12.8089 -12.5182 -12.3901 -12.3159
   -12.0317 -11.9993 -11.4734 -11.4590 -11.3338 -11.3234 -10.8214 -10.7800
   -10.6919 -10.4898  -9.9099  -9.8768  -9.6546  -9.3251  -8.7837  -8.7647
    -8.5874  -8.5581  -7.5065  -7.3460  -7.2812  -7.1099  -7.0589  -7.0306
    -6.6949  -5.8672  -5.8267  -5.4257  -5.2220  -5.1636  -5.1354  -5.1032
    -4.8653  -4.7742  -4.6705  -4.6628  -4.6491  -4.6484  -4.5135  -4.4852
    -4.4078  -4.3761  -4.3303  -4.2955  -4.2598  -4.2249  -4.2131  -4.1160
    -4.0971  -4.0522  -4.0425  -4.0305  -3.7590  -3.6479  -3.6429  -3.6306
    -3.6134  -3.4680  -3.3973  -3.3247  -3.2864  -3.2838  -3.2807  -3.2773
    -3.2691  -3.1253  -3.1106  -3.0885  -3.0466  -3.0372  -3.0216  -2.8678
    -2.5708  -2.5512  -2.5367  -2.5309  -2.5191  -2.5165  -2.5088  -2.5038
    -2.4861  -2.4345  -2.2916  -2.2519  -2.2425  -2.1827  -2.1517  -1.9559
    -1.9200  -1.9002  -1.7595  -1.7585  -1.7543  -1.7535  -1.7513  -1.7496
    -1.6698  -1.6689  -1.6665  -1.6351  -1.5307  -1.5295  -1.5249  -1.5241
    -1.5224  -1.5207  -1.4835  -1.4805  -1.4768  -1.4737  -1.4123  -1.3988
    -1.3811  -1.3691  -1.3529  -1.3148  -1.3013  -1.2999  -1.2936  -1.2919
    -1.2897  -1.2575  -1.2499  -1.2376  -1.2355  -1.2319  -1.2285  -1.2254
    -1.2188  -1.2121  -1.2079  -1.2027  -1.1923  -1.1862  -1.1806  -1.1782
    -1.1738  -1.1581  -1.1492  -1.1452  -1.1418  -1.1409  -1.1156  -1.0918
    -1.0898  -1.0690  -1.0650  -1.0612  -1.0563  -1.0538  -1.0506  -1.0426
    -1.0323  -1.0164  -1.0118  -1.0020  -0.9916  -0.9885  -0.9871  -0.9808
    -0.9784  -0.9580  -0.9566  -0.9442  -0.9400  -0.8990  -0.8820  -0.8673
    -0.8631  -0.8597  -0.8554  -0.8534  -0.8441  -0.8417  -0.8354  -0.8302
    -0.8085  -0.8064  -0.8054  -0.7991  -0.7969  -0.7942  -0.7928  -0.7909
    -0.7729  -0.7667  -0.7558  -0.7210  -0.7123  -0.7076  -0.6985  -0.6964
    -0.6724  -0.6706  -0.5954  -0.5908  -0.5907  -0.5889  -0.5514  -0.5486
    -0.5471  -0.5464  -0.5440  -0.5399  -0.5084  -0.5023  -0.4968  -0.4938
    -0.4851  -0.4844  -0.4823  -0.4811  -0.4783  -0.4689  -0.4603  -0.4571
    -0.4561  -0.4518  -0.4235  -0.3482  -0.3382  -0.3368  -0.3156  -0.3143
    -0.3098  -0.3040  -0.2974  -0.2964  -0.2949  -0.2903  -0.2899  -0.2865
    -0.2701  -0.2596  -0.2557  -0.2517  -0.2507  -0.2422  -0.2195  -0.2150
    -0.2101  -0.2072  -0.2058  -0.2001  -0.1874  -0.1829  -0.1812  -0.1798
    -0.1784  -0.1749  -0.1707  -0.1667  -0.1640  -0.1410  -0.1376  -0.1332
    -0.1277  -0.1272  -0.0920  -0.0911  -0.0904  -0.0894  -0.0427  -0.0346
    -0.0341  -0.0323  -0.0280  -0.0232  -0.0189  -0.0156  -0.0064   0.0199
     0.0246   0.0258   0.0347   0.0382   0.0587   0.0703   0.0714   0.0734
     0.0828   0.0862   0.0879   0.0897   0.0956   0.0981   0.0993   0.1005
     0.1035   0.1049   0.1478   0.1658   0.1727   0.1751   0.1804   0.1815
     0.1844   0.1896   0.1905   0.1916   0.1947   0.1962   0.2001   0.2007
     0.2013   0.2031   0.2045   0.2059   0.2086   0.2139   0.2177   0.2214
     0.2297   0.2312   0.2349   0.2364   0.2393   0.2403   0.2424   0.2435
     0.2480   0.2591   0.2640   0.2686   0.2726   0.2742   0.2772   0.3003
     0.3034   0.3040   0.3095   0.3603   0.3639   0.3782   0.3847   0.3975
     0.4065   0.4104   0.4132   0.4156   0.4205   0.4275   0.4364   0.4416
     0.4465   0.4474   0.4530   0.4572   0.4655   0.4726   0.4800   0.4824
     0.4837   0.4944   0.4947   0.4972   0.4994   0.5000   0.5042   0.5093
     0.5106   0.5140   0.5154   0.5200   0.5222   0.5289   0.5889   0.5971
     0.6019   0.6044   0.6175   0.6201   0.6218   0.6263   0.6345   0.6389
     0.6439   0.6455   0.6460   0.6486   0.6505   0.6512   0.6519   0.6554
     0.6584   0.6628   0.6637   0.6677   0.6705   0.6717   0.6775   0.6795
     0.6812   0.6845   0.7056   0.7064   0.7092   0.7135   0.7235   0.7338
     0.7368   0.7404   0.7444   0.7483   0.7509   0.7542   0.7571   0.7591
     0.7616   0.7641   0.7668   0.7701   0.7705   0.7730   0.7782   0.7810
     0.7904   0.8007   0.8065   0.8154   0.8262   0.8279   0.8347   0.8390
     0.8429   0.8446   0.8475   0.8487   0.8675   0.8774   0.8843   0.8890
     0.8921   0.9132   0.9207   0.9227   0.9288   0.9363   0.9380   0.9389
     0.9404   0.9444   0.9465   0.9479   0.9503   0.9528   0.9588   0.9666
     0.9666   0.9708   0.9781   0.9802   0.9879   0.9948   0.9961   0.9989
     1.0000   1.0025   1.0133   1.0174   1.0193   1.0240   1.0262   1.0281
     1.0367   1.0413   1.0425   1.0512   1.0604   1.0653   1.1172   1.1201
     1.1212   1.1233   1.1260   1.1324   1.1435   1.1470   1.1638   1.1679
     1.1733   1.1740   1.1781   1.1838   1.1872   1.1893   1.1977   1.2011
     1.2148   1.2167   1.2188   1.2193   1.2225   1.2250   1.2282   1.2297
     1.2324   1.2358   1.2396   1.2420   1.2463   1.2476   1.2490   1.2529
     1.2570   1.2605   1.2647   1.2669   1.2751   1.2778   1.2787   1.2810
     1.2872   1.2944   1.3047   1.3132   1.3161   1.3198   1.3232   1.3285
     1.3311   1.3340   1.3385   1.3409   1.3429   1.3439   1.3467   1.3471
     1.3474   1.3545   1.3559   1.3624   1.3674   1.3744   1.3967   1.4016
     1.4024   1.4053   1.4065   1.4073   1.4092   1.4124   1.4174   1.4181
     1.4198   1.4216   1.4257   1.4284   1.4337   1.4362   1.4375   1.4403
     1.4411   1.4433   1.4476   1.4481   1.4533   1.4548   1.4573   1.4587
     1.4592   1.4633   1.4681   1.4710   1.4748   1.4812   1.4921   1.5006
     1.5056   1.5087   1.5096   1.5133   1.5165   1.5180   1.5200   1.5216
     1.5277   1.5354   1.5405   1.5420   1.5447   1.5486   1.5504   1.5515
     1.5545   1.5567   1.5649   1.5695   1.5775   1.5827   1.5911   1.5923
     1.5947   1.5970   1.6017   1.6043   1.6113   1.6142   1.6150   1.6160
     1.6183   1.6307   1.6329   1.6472   1.6538   1.6743   1.6774   1.6925
     1.6984   1.7093   1.7115   1.7129   1.7296   1.7736   2.0964   2.1010
     2.1385   2.1399   2.3001   2.3207   2.3438   2.3542   2.3964   2.3977
     2.3987   2.4026   2.6238   2.6369   2.7125   2.7539   2.9296   2.9329
     2.9413   2.9568   3.2902   3.2946   3.3032   3.3049   3.5122   3.5708
     3.5774   3.7739   3.7859   3.8289   3.8742   3.9890   4.0043   4.0332
     4.0504   4.1335   4.1742   4.1758   4.1913   4.2278   4.2750   4.5837
     4.6476   4.6653   4.7613   4.8034   4.8204   4.9125   4.9237   4.9408
     4.9456   5.0036   5.1134   5.1173   5.1233   5.1261   5.1344   5.1465
     5.1512   5.1652   5.1759   5.1974   5.2466   5.3164   5.5202   5.5327
     5.5459   5.5508   5.5931   5.6182   5.6593   5.6712   5.7875   5.9954
     6.0156   6.0260   6.0526   6.0688   6.0962   6.1123   6.1219   6.1721
     6.2044   6.2830   6.3127   6.4127   6.4499   6.5995   6.6841   6.7785
     6.8782   7.0911   7.1344   7.1443   7.1601   7.1879   7.2661   7.3170
     7.6130   7.6486   7.6609   7.6762   7.6778   7.6819   7.7303   7.7826
     7.8910   7.9104   7.9507   7.9531   7.9976   8.0143   8.0379   8.0558
     8.0866   8.1009   8.1077   8.1653   8.2316   8.2840   8.5074   8.6762
     8.7345   8.7402   8.7568   8.8015   8.8808   8.8837   8.8944   8.9049
     9.0458   9.0466   9.0984   9.1002   9.1796   9.1916   9.3007   9.3657
     9.4049   9.4922   9.4939   9.5121   9.5383   9.5443   9.5464   9.5472
     9.5588   9.5821   9.6030   9.6078   9.6920   9.7326   9.8429   9.9269
    10.1018

          k =-0.5000-0.2165 0.0000 (256328 PWs)   bands (ev):

   -20.2662 -18.3938 -16.7001 -15.5218 -15.3699 -15.3458 -14.9288 -14.7868
   -14.7101 -14.6704 -13.6443 -13.4318 -13.3069 -13.2647 -12.2506 -12.0221
   -11.5871 -11.5433 -11.5262 -11.3957 -11.3189 -11.2508 -11.1098 -11.0974
   -10.9884 -10.9693  -9.6305  -9.6123  -9.3675  -9.3223  -8.8936  -8.5416
    -8.4481  -8.3974  -7.9195  -7.8878  -7.6855  -7.6731  -6.7191  -6.2243
    -5.9176  -5.8176  -5.6403  -5.5128  -5.2962  -5.1979  -5.1091  -5.0458
    -5.0408  -5.0265  -4.9926  -4.9858  -4.9363  -4.9317  -4.7459  -4.5483
    -4.5297  -4.1684  -4.0732  -4.0617  -4.0536  -4.0517  -4.0442  -4.0087
    -3.9986  -3.9520  -3.9389  -3.9248  -3.8444  -3.7848  -3.7278  -3.7222
    -3.5286  -3.5034  -3.4982  -3.3679  -3.3574  -3.3479  -3.3302  -3.3072
    -3.3042  -3.1651  -3.1262  -3.1139  -3.1053  -3.1042  -2.8548  -2.6667
    -2.6400  -2.5278  -2.4608  -2.4569  -2.4521  -2.4476  -2.4460  -2.4383
    -2.4171  -2.3506  -2.3354  -2.2758  -2.1078  -2.0726  -1.9558  -1.9509
    -1.9491  -1.9465  -1.9440  -1.9336  -1.9244  -1.8754  -1.8064  -1.7463
    -1.7283  -1.6819  -1.6798  -1.6783  -1.6742  -1.6650  -1.5090  -1.4751
    -1.4720  -1.4640  -1.4549  -1.3854  -1.3793  -1.3763  -1.3734  -1.3717
    -1.3704  -1.3655  -1.3301  -1.3252  -1.3201  -1.3074  -1.3070  -1.2809
    -1.2749  -1.2680  -1.2622  -1.2562  -1.2538  -1.2507  -1.2501  -1.2427
    -1.2399  -1.2384  -1.2364  -1.2239  -1.1923  -1.1903  -1.1757  -1.1646
    -1.1581  -1.1454  -1.1340  -1.1027  -1.0879  -1.0845  -1.0799  -1.0694
    -1.0635  -1.0619  -1.0533  -1.0412  -1.0314  -1.0294  -1.0237  -1.0168
    -1.0160  -1.0135  -1.0059  -1.0017  -0.9981  -0.9961  -0.9917  -0.9830
    -0.9778  -0.9570  -0.9547  -0.9472  -0.9470  -0.9405  -0.9389  -0.9333
    -0.9251  -0.9220  -0.9123  -0.9103  -0.9091  -0.9068  -0.9018  -0.8929
    -0.8061  -0.7725  -0.7623  -0.7517  -0.7491  -0.7455  -0.7443  -0.7389
    -0.7378  -0.7335  -0.7315  -0.6855  -0.6644  -0.6636  -0.6560  -0.6528
    -0.6489  -0.6408  -0.6386  -0.6349  -0.6347  -0.6322  -0.6249  -0.6109
    -0.5853  -0.5798  -0.5792  -0.5776  -0.5631  -0.5570  -0.5565  -0.5533
    -0.5507  -0.5349  -0.5167  -0.5129  -0.4406  -0.4358  -0.4319  -0.4207
    -0.4191  -0.4180  -0.4171  -0.4023  -0.3803  -0.3758  -0.3742  -0.3734
    -0.3319  -0.3310  -0.3291  -0.3241  -0.3124  -0.3083  -0.3064  -0.3030
    -0.2816  -0.2799  -0.2717  -0.2697  -0.2609  -0.2546  -0.2421  -0.2397
    -0.2053  -0.1927  -0.1809  -0.1760  -0.1721  -0.1684  -0.1559  -0.1516
    -0.1408  -0.1405  -0.1362  -0.1350  -0.1247  -0.1219  -0.1189  -0.1132
    -0.0932  -0.0638  -0.0595  -0.0562  -0.0495  -0.0486  -0.0469  -0.0454
    -0.0352  -0.0340  -0.0293  -0.0272  -0.0257  -0.0124  -0.0099  -0.0078
    -0.0042   0.0109   0.0135   0.0179   0.0198   0.0239   0.0257   0.0265
     0.0291   0.0788   0.0859   0.0879   0.0918   0.0943   0.1092   0.1430
     0.1499   0.1525   0.1604   0.1661   0.1672   0.1680   0.1684   0.1755
     0.1766   0.1829   0.1841   0.1895   0.1970   0.2035   0.2065   0.2107
     0.2147   0.2156   0.2168   0.2189   0.2249   0.2266   0.2283   0.2297
     0.2312   0.2325   0.2341   0.2353   0.2433   0.2566   0.2618   0.2664
     0.2697   0.2746   0.2851   0.2880   0.2911   0.3023   0.3127   0.3174
     0.3178   0.3203   0.3295   0.3302   0.3497   0.3532   0.3595   0.3619
     0.3640   0.3669   0.4042   0.4216   0.4302   0.4332   0.4389   0.4421
     0.4534   0.4556   0.4685   0.4712   0.4797   0.4831   0.4897   0.4936
     0.5081   0.5094   0.5123   0.5140   0.5177   0.5206   0.5509   0.5628
     0.5663   0.5714   0.5725   0.5744   0.5759   0.5770   0.5777   0.5805
     0.5816   0.5833   0.5894   0.5947   0.6036   0.6076   0.6120   0.6164
     0.6180   0.6245   0.6270   0.6311   0.6494   0.6518   0.6554   0.6600
     0.6649   0.6704   0.6721   0.6788   0.6830   0.6886   0.6898   0.6905
     0.6921   0.6943   0.7020   0.7074   0.7124   0.7178   0.7232   0.7256
     0.7308   0.7350   0.7364   0.7379   0.7418   0.7459   0.7478   0.7538
     0.7648   0.7781   0.7829   0.7855   0.7895   0.7912   0.7972   0.8004
     0.8050   0.8072   0.8133   0.8212   0.8289   0.8348   0.8368   0.8392
     0.8411   0.8436   0.8476   0.8498   0.8528   0.8566   0.8623   0.8655
     0.8698   0.8885   0.8900   0.8941   0.8993   0.9178   0.9184   0.9261
     0.9269   0.9325   0.9516   0.9520   0.9598   0.9685   0.9713   0.9758
     0.9777   0.9792   0.9817   0.9978   1.0071   1.0145   1.0308   1.0376
     1.0378   1.0410   1.0453   1.0479   1.0592   1.0781   1.0848   1.0872
     1.0992   1.1002   1.1023   1.1093   1.1157   1.1207   1.1209   1.1280
     1.1353   1.1407   1.1414   1.1446   1.1454   1.1465   1.1473   1.1489
     1.1518   1.1528   1.1556   1.1573   1.1602   1.1638   1.1664   1.1723
     1.1727   1.1787   1.1833   1.1865   1.1924   1.1941   1.1992   1.2022
     1.2054   1.2142   1.2155   1.2198   1.2212   1.2269   1.2281   1.2306
     1.2396   1.2428   1.2458   1.2473   1.2505   1.2560   1.2573   1.2672
     1.2918   1.3017   1.3027   1.3042   1.3074   1.3122   1.3143   1.3177
     1.3197   1.3209   1.3231   1.3266   1.3302   1.3311   1.3339   1.3343
     1.3369   1.3437   1.3582   1.3764   1.3823   1.3836   1.3847   1.3863
     1.3874   1.3895   1.3906   1.3928   1.3945   1.3989   1.4034   1.4060
     1.4351   1.4373   1.4410   1.4486   1.4552   1.4556   1.4593   1.4596
     1.4608   1.4626   1.4637   1.4647   1.4672   1.4689   1.4710   1.4735
     1.4748   1.4780   1.4815   1.4844   1.4850   1.4917   1.4935   1.4955
     1.4956   1.4983   1.4999   1.5029   1.5079   1.5089   1.5133   1.5158
     1.5222   1.5233   1.5385   1.5420   1.5475   1.5491   1.5517   1.5522
     1.5539   1.5635   1.5653   1.5733   1.5833   1.5899   1.5982   1.6012
     1.6051   1.6068   1.6100   1.6156   1.6364   1.6412   1.6436   1.6575
     1.6739   1.6764   1.6795   1.6810   1.6852   1.6892   1.6978   1.7036
     1.7101   1.7198   1.7244   1.7260   1.7272   1.7305   1.7965   1.8114
     1.9342   1.9405   1.9463   1.9634   2.3450   2.3482   2.4337   2.4882
     2.6561   2.6571   2.6808   2.6877   2.8572   2.8668   2.8851   2.8964
     3.1083   3.1180   3.1450   3.1984   3.5605   3.5621   3.5639   3.5686
     3.7013   3.7139   3.7200   3.7827   3.7967   4.0380   4.0411   4.0460
     4.0504   4.2395   4.2432   4.3160   4.3296   4.3340   4.3358   4.3480
     4.4525   4.5784   4.5936   4.6095   4.6762   4.7609   4.7820   4.7853
     4.8129   4.8292   5.0822   5.1328   5.1333   5.2116   5.2194   5.2315
     5.2489   5.2903   5.2966   5.3135   5.3194   5.3461   5.3675   5.4205
     5.4527   5.5035   5.5187   5.5524   5.6912   5.6996   5.7033   5.7990
     5.8203   5.8349   5.8497   5.8550   5.8848   5.9853   5.9931   6.0274
     6.5320   6.6992   6.7881   6.8041   7.0228   7.0348   7.1046   7.1090
     7.1453   7.1697   7.1781   7.1869   7.2051   7.2231   7.2278   7.2694
     7.3329   7.3429   7.4481   7.4701   7.4837   7.4879   7.5545   7.5688
     7.7158   7.8301   7.9093   7.9881   7.9944   8.1190   8.1838   8.2012
     8.2482   8.2913   8.3075   8.3264   8.3892   8.4147   8.4344   8.4384
     8.5710   8.6759   8.9218   8.9352   8.9386   8.9471   9.0000   9.0038
     9.0157   9.0402   9.0571   9.0882   9.1202   9.1416   9.1612   9.1628
     9.1862   9.1975   9.3601   9.3670   9.3888   9.3985   9.4749   9.4848
     9.5077   9.5205   9.5514   9.6296   9.7888   9.8044   9.9172  10.0252
    10.0328

     the Fermi energy is     3.4220 ev

!    total energy              =  -12782.09768336 Ry
     Harris-Foulkes estimate   =  -12782.09768338 Ry
     estimated scf accuracy    <          1.8E-09 Ry

     The total energy is the sum of the following terms:

     one-electron contribution = -100636.15324540 Ry
     hartree contribution      =   51693.12221964 Ry
     xc contribution           =   -4463.87892231 Ry
     ewald contribution        =   40631.01836689 Ry
     Dispersion Correction     =      -2.81437964 Ry
     smearing contrib. (-TS)   =      -3.39172256 Ry

     convergence has been achieved in  42 iterations

     Writing output data file gc.save
 
     init_run     :    191.65s CPU    204.88s WALL (       1 calls)
     electrons    :  24679.81s CPU  26265.98s WALL (       1 calls)

     Called by init_run:
     wfcinit      :    188.81s CPU    201.20s WALL (       1 calls)
     potinit      :      0.86s CPU      0.98s WALL (       1 calls)

     Called by electrons:
     c_bands      :  22667.51s CPU  24086.60s WALL (      42 calls)
     sum_band     :   1649.77s CPU   1760.21s WALL (      42 calls)
     v_of_rho     :      5.06s CPU      6.41s WALL (      43 calls)
     newd         :     14.70s CPU     29.43s WALL (      43 calls)
     mix_rho      :    342.75s CPU    383.49s WALL (      42 calls)

     Called by c_bands:
     init_us_2    :     78.29s CPU     79.69s WALL (     510 calls)
     cegterg      :  22345.46s CPU  23747.95s WALL (     259 calls)

     Called by sum_band:
     sum_band:bec :      4.74s CPU      5.32s WALL (     252 calls)
     addusdens    :     22.38s CPU     36.05s WALL (      42 calls)

     Called by *egterg:
     h_psi        :   7894.78s CPU   8484.54s WALL (    1894 calls)
     s_psi        :   1987.37s CPU   2000.80s WALL (    1894 calls)
     g_psi        :     21.46s CPU     21.56s WALL (    1629 calls)
     cdiaghg      :   6586.51s CPU   6926.11s WALL (    1881 calls)

     Called by h_psi:
     add_vuspsi   :   1992.15s CPU   2007.74s WALL (    1894 calls)

     General routines
     calbec       :   2669.86s CPU   2690.77s WALL (    2146 calls)
     fft          :      5.16s CPU      5.92s WALL (     558 calls)
     ffts         :    147.38s CPU    175.88s WALL (   21957 calls)
     fftw         :   3801.42s CPU   4318.09s WALL ( 1297056 calls)
     davcio       :      0.66s CPU     14.83s WALL (       6 calls)
 
     Parallel routines
     fft_scatter  :   1887.77s CPU   2175.48s WALL ( 1319571 calls)
 
     PWSCF        :     6h54m CPU        7h21m WALL

 
   This run was terminated on:   9:54:16   2Feb2018            

=------------------------------------------------------------------------------=
   JOB DONE.
=------------------------------------------------------------------------------=
