mpirun: INFO: switching to OpenMPI runtime version 1.10.2

     Program PWSCF v.5.4.0 starts on  8Sep2017 at 15: 2: 5 

     This program is part of the open-source Quantum ESPRESSO suite
     for quantum simulation of materials; please cite
         "P. Giannozzi et al., J. Phys.:Condens. Matter 21 395502 (2009);
          URL http://www.quantum-espresso.org", 
     in publications or presentations arising from this work. More details at
     http://www.quantum-espresso.org/quote

     Parallel version (MPI & OpenMP), running on      28 processor cores
     Number of MPI processes:                28
     Threads/MPI process:                     1
     R & G space division:  proc/nbgrp/npool/nimage =      28
     Waiting for input...
     Reading input from standard input
Warning: card &IONS ignored
Warning: card / ignored

     Current dimensions of program PWSCF are:
     Max number of different atomic species (ntypx) = 10
     Max number of k-points (npk) =  40000
     Max angular momentum in pseudopotentials (lmaxx) =  3
     WARNING: atomic wfc #  2 for atom type 4 has zero norm
     WARNING: atomic wfc #  4 for atom type 4 has zero norm
     WARNING: atomic wfc #  5 for atom type 4 has zero norm

     -------------------------------------
     Parameters for Dispersion Correction:
     -------------------------------------
       atom      VdW radius       C_6     

        Cu         2.952        374.666
        C_h        2.744         60.710
        C          2.744         60.710
        O          2.536         24.284
        H          1.892          4.857

     Subspace diagonalization in iterative solution of the eigenvalue problem:
     one sub-group per band group will be used
     scalapack distributed-memory algorithm (size of sub-group:  3*  3 procs)

 
     Parallelization info
     --------------------
     sticks:   dense  smooth     PW     G-vecs:    dense   smooth      PW
     Min         408     408    108                73226    73226    9928
     Max         410     410    109                73231    73231    9931
     Sum       11433   11433   3039              2050409  2050409  278033
 


     bravais-lattice index     =            0
     lattice parameter (alat)  =      13.9425  a.u.
     unit-cell volume          =   21209.0878 (a.u.)^3
     number of atoms/cell      =          136
     number of atomic types    =            5
     number of electrons       =      1226.00
     number of Kohn-Sham states=          736
     kinetic-energy cutoff     =      80.0000  Ry
     charge density cutoff     =     320.0000  Ry
     convergence threshold     =      1.0E-08
     mixing beta               =       0.7000
     number of iterations used =            8  local-TF  mixing
     Exchange-correlation      =  SLA  PW   PBE  PBE ( 1  4  3  4 0 0)

     celldm(1)=  13.942539  celldm(2)=   0.000000  celldm(3)=   0.000000
     celldm(4)=   0.000000  celldm(5)=   0.000000  celldm(6)=   0.000000

     crystal axes: (cart. coord. in units of alat)
               a(1) = (   1.000000   0.000000   0.000000 )  
               a(2) = (   0.000000   2.309401   0.000000 )  
               a(3) = (   0.000000   0.000000   3.388418 )  

     reciprocal axes: (cart. coord. in units 2 pi/alat)
               b(1) = (  1.000000  0.000000  0.000000 )  
               b(2) = (  0.000000  0.433013  0.000000 )  
               b(3) = (  0.000000  0.000000  0.295123 )  


     PseudoPot. # 1 for Cu read from file:
     /home/549/hxw549/Short/pseudopotentials/Cu.pbe-n-van_ak.UPF
     MD5 check sum: 601f7c30f7467666bec936e0661ce3e1
     Pseudo is Ultrasoft + core correction, Zval = 11.0
     Generated by new atomic code, or converted to UPF format
     Using radial grid of  867 points,  6 beta functions with: 
                l(1) =   0
                l(2) =   0
                l(3) =   1
                l(4) =   1
                l(5) =   2
                l(6) =   2
     Q(r) pseudized with  8 coefficients,  rinner =    1.400   1.400   1.400
                                                       1.400   1.400

     PseudoPot. # 2 for C  read from file:
     /home/549/hxw549/Short/pseudopotentials/C.star1s-pbe-mt_gipaw.UPF
     MD5 check sum: ef0cb3dee31bd9e4ba2a832a2c716264
     Pseudo is Norm-conserving, Zval =  5.0
     Generated by new atomic code, or converted to UPF format
     Using radial grid of 1073 points,  1 beta functions with: 
                l(1) =   0

     PseudoPot. # 3 for C  read from file:
     /home/549/hxw549/Short/pseudopotentials/C.pbe-mt_gipaw.UPF
     MD5 check sum: 5ac2f21f2c440b14befe521540822c15
     Pseudo is Norm-conserving, Zval =  4.0
     Generated by new atomic code, or converted to UPF format
     Using radial grid of 1073 points,  1 beta functions with: 
                l(1) =   0

     PseudoPot. # 4 for O  read from file:
     /home/549/hxw549/Short/pseudopotentials/O.pbe-van_gipaw.UPF
     MD5 check sum: 5ce2a047509d4f331db576c963e74b29
     Pseudo is Ultrasoft, Zval =  6.0
     Generated by new atomic code, or converted to UPF format
     Using radial grid of 1095 points,  4 beta functions with: 
                l(1) =   0
                l(2) =   0
                l(3) =   1
                l(4) =   1
     Q(r) pseudized with 0 coefficients 


     PseudoPot. # 5 for H  read from file:
     /home/549/hxw549/Short/pseudopotentials/H.pbe-van_ak.UPF
     MD5 check sum: 077eb6d537518a38cb46c6de387227b7
     Pseudo is Ultrasoft, Zval =  1.0
     Generated by new atomic code, or converted to UPF format
     Using radial grid of  615 points,  1 beta functions with: 
                l(1) =   0
     Q(r) pseudized with  8 coefficients,  rinner =    0.800

     atomic species   valence    mass     pseudopotential
        Cu            11.00    63.54600     Cu( 1.00)
        C_h            5.00    12.01070     C ( 1.00)
        C              4.00    12.01070     C ( 1.00)
        O              6.00    15.99940     O ( 1.00)
        H              1.00     1.00783     H ( 1.00)

      2 Sym. Ops. (no inversion) found



   Cartesian axes

     site n.     atom                  positions (alat units)
         1           Cu  tau(   1) = (   0.0000000  -0.0001124   1.0011868  )
         2           Cu  tau(   2) = (   0.2499898   0.2314890   1.0028858  )
         3           Cu  tau(   3) = (   0.5000000  -0.0001538   1.0011207  )
         4           Cu  tau(   4) = (   0.7500102   0.2314890   1.0028858  )
         5           Cu  tau(   5) = (   0.0000000   0.4622551   1.0053524  )
         6           Cu  tau(   6) = (   0.2500088   0.6924579   1.0058364  )
         7           Cu  tau(   7) = (   0.5000000   0.4622629   1.0051606  )
         8           Cu  tau(   8) = (   0.7499912   0.6924579   1.0058364  )
         9           Cu  tau(   9) = (   0.0000000   0.9231945   1.0037099  )
        10           Cu  tau(  10) = (   0.2501144   1.1547114   1.0017292  )
        11           Cu  tau(  11) = (   0.5000000   0.9229888   1.0040738  )
        12           Cu  tau(  12) = (   0.7498856   1.1547114   1.0017292  )
        13           Cu  tau(  13) = (   0.0000000   1.3863962   1.0012899  )
        14           Cu  tau(  14) = (   0.2500136   1.6173447   1.0021190  )
        15           Cu  tau(  15) = (   0.5000000   1.3867257   1.0015878  )
        16           Cu  tau(  16) = (   0.7499864   1.6173447   1.0021190  )
        17           Cu  tau(  17) = (   0.0000000   1.8473422   1.0020731  )
        18           Cu  tau(  18) = (   0.2500067   2.0777255   1.0012575  )
        19           Cu  tau(  19) = (   0.5000000   1.8472488   1.0019769  )
        20           Cu  tau(  20) = (   0.7499933   2.0777255   1.0012575  )
        21           Cu  tau(  21) = (   0.0000000   0.2290971   1.2510133  )
        22           Cu  tau(  22) = (   0.2500654  -0.0010279   1.2492517  )
        23           Cu  tau(  23) = (   0.5000000   0.2291363   1.2509787  )
        24           Cu  tau(  24) = (   0.7499346  -0.0010279   1.2492517  )
        25           Cu  tau(  25) = (   0.0000000   0.6932770   1.2534390  )
        26           Cu  tau(  26) = (   0.2500647   0.4607032   1.2532007  )
        27           Cu  tau(  27) = (   0.5000000   0.6927500   1.2537658  )
        28           Cu  tau(  28) = (   0.7499353   0.4607032   1.2532007  )
        29           Cu  tau(  29) = (   0.0000000   1.1559961   1.2495084  )
        30           Cu  tau(  30) = (   0.2500511   0.9251246   1.2516105  )
        31           Cu  tau(  31) = (   0.5000000   1.1560617   1.2496092  )
        32           Cu  tau(  32) = (   0.7499489   0.9251246   1.2516105  )
        33           Cu  tau(  33) = (   0.0000000   1.6169015   1.2499722  )
        34           Cu  tau(  34) = (   0.2500720   1.3863550   1.2492996  )
        35           Cu  tau(  35) = (   0.5000000   1.6173459   1.2506856  )
        36           Cu  tau(  36) = (   0.7499280   1.3863550   1.2492996  )
        37           Cu  tau(  37) = (   0.0000000   2.0785906   1.2492456  )
        38           Cu  tau(  38) = (   0.2500782   1.8481473   1.2503424  )
        39           Cu  tau(  39) = (   0.5000000   2.0786197   1.2492262  )
        40           Cu  tau(  40) = (   0.7499218   1.8481473   1.2503424  )
        41           Cu  tau(  41) = (   0.0000000  -0.0018773   1.5009156  )
        42           Cu  tau(  42) = (   0.2502427   0.2272264   1.5012140  )
        43           Cu  tau(  43) = (   0.5000000  -0.0019371   1.5013637  )
        44           Cu  tau(  44) = (   0.7497573   0.2272264   1.5012140  )
        45           Cu  tau(  45) = (   0.0000000   0.4594394   1.5003477  )
        46           Cu  tau(  46) = (   0.2502570   0.6942932   1.5009157  )
        47           Cu  tau(  47) = (   0.5000000   0.4586584   1.5016837  )
        48           Cu  tau(  48) = (   0.7497430   0.6942932   1.5009157  )
        49           Cu  tau(  49) = (   0.0000000   0.9268538   1.5010944  )
        50           Cu  tau(  50) = (   0.2498040   1.1568891   1.5005333  )
        51           Cu  tau(  51) = (   0.5000000   0.9268357   1.5007380  )
        52           Cu  tau(  52) = (   0.7501960   1.1568891   1.5005333  )
        53           Cu  tau(  53) = (   0.0000000   1.3863456   1.5003872  )
        54           Cu  tau(  54) = (   0.2501219   1.6169806   1.4997659  )
        55           Cu  tau(  55) = (   0.5000000   1.3861347   1.5004185  )
        56           Cu  tau(  56) = (   0.7498781   1.6169806   1.4997659  )
        57           Cu  tau(  57) = (   0.0000000   1.8484356   1.4996601  )
        58           Cu  tau(  58) = (   0.2501193   2.0791885   1.5009757  )
        59           Cu  tau(  59) = (   0.5000000   1.8497941   1.5008599  )
        60           Cu  tau(  60) = (   0.7498807   2.0791885   1.5009757  )
        61           Cu  tau(  61) = (   0.0000000   0.2272141   1.7507006  )
        62           Cu  tau(  62) = (   0.2502201  -0.0034017   1.7557585  )
        63           Cu  tau(  63) = (   0.5000000   0.2232551   1.7551867  )
        64           Cu  tau(  64) = (   0.7497799  -0.0034017   1.7557585  )
        65           Cu  tau(  65) = (   0.0000000   0.6930571   1.7454147  )
        66           Cu  tau(  66) = (   0.2511988   0.4604074   1.7460219  )
        67           Cu  tau(  67) = (   0.5000000   0.6943777   1.7466636  )
        68           Cu  tau(  68) = (   0.7488012   0.4604074   1.7460219  )
        69           Cu  tau(  69) = (   0.0000000   1.1589833   1.7543557  )
        70           Cu  tau(  70) = (   0.2498986   0.9284865   1.7514360  )
        71           Cu  tau(  71) = (   0.5000000   1.1581142   1.7531021  )
        72           Cu  tau(  72) = (   0.7501014   0.9284865   1.7514360  )
        73           Cu  tau(  73) = (   0.0000000   1.6180631   1.7507280  )
        74           Cu  tau(  74) = (   0.2497278   1.3878292   1.7524236  )
        75           Cu  tau(  75) = (   0.5000000   1.6185358   1.7501560  )
        76           Cu  tau(  76) = (   0.7502722   1.3878292   1.7524236  )
        77           Cu  tau(  77) = (   0.0000000   2.0767807   1.7530692  )
        78           Cu  tau(  78) = (   0.2506793   1.8476229   1.7502174  )
        79           Cu  tau(  79) = (   0.5000000   2.0808455   1.7577646  )
        80           Cu  tau(  80) = (   0.7493207   1.8476229   1.7502174  )
        81           Cu  tau(  81) = (   0.0000000  -0.0012284   2.0022710  )
        82           Cu  tau(  82) = (   0.2496273   0.2339959   1.9924918  )
        83           Cu  tau(  83) = (   0.5000000  -0.0044412   2.0226497  )
        84           Cu  tau(  84) = (   0.7503727   0.2339959   1.9924918  )
        85           Cu  tau(  85) = (   0.0000000   0.4635570   1.9910147  )
        86           Cu  tau(  86) = (   0.2506563   0.6918608   1.9912023  )
        87           Cu  tau(  87) = (   0.5000000   0.4630711   1.9929706  )
        88           Cu  tau(  88) = (   0.7493437   0.6918608   1.9912023  )
        89           Cu  tau(  89) = (   0.0000000   0.9209914   1.9923815  )
        90           Cu  tau(  90) = (   0.2486433   1.1594323   2.0034163  )
        91           Cu  tau(  91) = (   0.5000000   0.9237114   1.9939278  )
        92           Cu  tau(  92) = (   0.7513567   1.1594323   2.0034163  )
        93           Cu  tau(  93) = (   0.0000000   1.3927493   2.0020949  )
        94           Cu  tau(  94) = (   0.2515934   1.6194884   2.0009081  )
        95           Cu  tau(  95) = (   0.5000000   1.3906810   1.9975250  )
        96           Cu  tau(  96) = (   0.7484066   1.6194884   2.0009081  )
        97           Cu  tau(  97) = (   0.0000000   1.8437997   2.0030740  )
        98           Cu  tau(  98) = (   0.2472165   2.0727862   2.0006750  )
        99           Cu  tau(  99) = (   0.5000000   1.8474924   2.0031450  )
       100           Cu  tau( 100) = (   0.7527835   2.0727862   2.0006750  )
       101           C   tau( 101) = (   0.0000000   0.0909116   2.3757143  )
       102           C   tau( 102) = (   0.0000000   0.2860842   2.3844548  )
       103           C   tau( 103) = (   0.1667206  -0.0023221   2.3640252  )
       104           C   tau( 104) = (   0.1664100   0.3825093   2.3845947  )
       105           C   tau( 105) = (   0.3323314   0.0914664   2.3568410  )
       106           C   tau( 106) = (   0.3327992   0.2862247   2.3713917  )
       107           C   tau( 107) = (   0.5000000  -0.0021686   2.3289559  )
       108           C   tau( 108) = (   0.5000000   0.3827790   2.3739144  )
       109           C   tau( 109) = (   0.6676686   0.0914664   2.3568410  )
       110           C   tau( 110) = (   0.6672008   0.2862247   2.3713917  )
       111           C   tau( 111) = (   0.8332794  -0.0023221   2.3640252  )
       112           C   tau( 112) = (   0.8335900   0.3825093   2.3845947  )
       113           C   tau( 113) = (   0.0000000   0.6729687   2.3904796  )
       114           C   tau( 114) = (   0.0000000   0.8667256   2.3839038  )
       115           C   tau( 115) = (   0.1664436   0.5763749   2.3885814  )
       116           C   tau( 116) = (   0.1666136   0.9632494   2.3785655  )
       117           C   tau( 117) = (   0.3331423   0.6729953   2.3846639  )
       118           C   tau( 118) = (   0.3331577   0.8667554   2.3808818  )
       119           C   tau( 119) = (   0.5000000   0.5763623   2.3826941  )
       120           C_h tau( 120) = (   0.5000000   0.9631968   2.3749681  )
       121           C   tau( 121) = (   0.6668577   0.6729953   2.3846639  )
       122           C   tau( 122) = (   0.6668423   0.8667554   2.3808818  )
       123           C   tau( 123) = (   0.8335564   0.5763749   2.3885814  )
       124           C   tau( 124) = (   0.8333864   0.9632494   2.3785655  )
       125           C   tau( 125) = (   0.0000000   1.2526117   2.3627777  )
       126           C   tau( 126) = (   0.1665410   1.1586079   2.3669448  )
       127           C   tau( 127) = (   0.3335017   1.2516977   2.3567510  )
       128           C   tau( 128) = (   0.5000000   1.1584676   2.3662578  )
       129           C   tau( 129) = (   0.6664983   1.2516977   2.3567510  )
       130           C   tau( 130) = (   0.8334590   1.1586079   2.3669448  )
       131           H   tau( 131) = (   0.1664277  -0.1503820   2.3577150  )
       132           H   tau( 132) = (   0.5000000  -0.1496242   2.3442672  )
       133           H   tau( 133) = (   0.8335723  -0.1503820   2.3577150  )
       134           H   tau( 134) = (   0.0000000   1.4008679   2.3643044  )
       135           H   tau( 135) = (   0.3334167   1.3998201   2.3514427  )
       136           H   tau( 136) = (   0.6665833   1.3998201   2.3514427  )

     number of k points=     6  gaussian smearing, width (Ry)=  0.1000
                       cart. coord. in units 2pi/alat
        k(    1) = (   0.0000000   0.0000000   0.0000000), wk =   0.2500000
        k(    2) = (   0.0000000  -0.2165064   0.0000000), wk =   0.2500000
        k(    3) = (   0.2500000   0.0000000   0.0000000), wk =   0.5000000
        k(    4) = (   0.2500000  -0.2165064   0.0000000), wk =   0.5000000
        k(    5) = (  -0.5000000   0.0000000   0.0000000), wk =   0.2500000
        k(    6) = (  -0.5000000  -0.2165064   0.0000000), wk =   0.2500000

     Dense  grid:  2050409 G-vectors     FFT dimensions: (  80, 192, 270)

     Largest allocated arrays     est. size (Mb)     dimensions
        Kohn-Sham Wavefunctions       102.99 Mb     (    9171,  736)
        NL pseudopotentials           256.93 Mb     (    9171, 1836)
        Each V/rho on FFT grid          2.34 Mb     (  153600)
        Each G-vector array             0.56 Mb     (   73230)
        G-vector shells                 0.27 Mb     (   35784)
     Largest temporary arrays     est. size (Mb)     dimensions
        Auxiliary wavefunctions       411.98 Mb     (    9171, 2944)
        Each subspace H/S matrix       14.68 Mb     (     981,  981)
        Each <psi_i|beta_j> matrix     20.62 Mb     (    1836,  736)
        Arrays for rho mixing          18.75 Mb     (  153600,    8)

     Initial potential from superposition of free atoms
     Check: negative starting charge=   -0.002209

     starting charge 1209.81748, renormalised to 1226.00000

     negative rho (up, down):  2.239E-03 0.000E+00
     Starting wfc are 1146 randomized atomic wfcs

     total cpu time spent up to now is      178.7 secs

     Self-consistent Calculation

     iteration #  1     ecut=    80.00 Ry     beta=0.70
     Davidson diagonalization with overlap
     ethr =  1.00E-04,  avg # of iterations = 20.0

     negative rho (up, down):  2.845E+01 0.000E+00

     total cpu time spent up to now is     3218.2 secs

     total energy              =   -8248.45489113 Ry
     Harris-Foulkes estimate   =  -15003.61740979 Ry
     estimated scf accuracy    <  148115.31910614 Ry

     iteration #  2     ecut=    80.00 Ry     beta=0.70
     Davidson diagonalization with overlap
     c_bands:  3 eigenvalues not converged
     ethr =  1.00E-02,  avg # of iterations = 14.2

     negative rho (up, down):  2.073E+01 0.000E+00

     total cpu time spent up to now is     4846.5 secs

     total energy              =  -12581.31900087 Ry
     Harris-Foulkes estimate   =  -13151.30225646 Ry
     estimated scf accuracy    <    1737.47047524 Ry

     iteration #  3     ecut=    80.00 Ry     beta=0.70
     Davidson diagonalization with overlap
     ethr =  1.00E-02,  avg # of iterations =  4.5

     negative rho (up, down):  1.690E+01 0.000E+00

     total cpu time spent up to now is     5457.0 secs

     total energy              =  -12646.48676820 Ry
     Harris-Foulkes estimate   =  -12719.37510056 Ry
     estimated scf accuracy    <     979.03733347 Ry

     iteration #  4     ecut=    80.00 Ry     beta=0.70
     Davidson diagonalization with overlap
     ethr =  1.00E-02,  avg # of iterations =  3.8

     negative rho (up, down):  1.557E+01 0.000E+00

     total cpu time spent up to now is     5906.8 secs

     total energy              =  -12636.69852590 Ry
     Harris-Foulkes estimate   =  -12676.50097791 Ry
     estimated scf accuracy    <     969.23349634 Ry

     iteration #  5     ecut=    80.00 Ry     beta=0.70
     Davidson diagonalization with overlap
     ethr =  1.00E-02,  avg # of iterations =  2.8

     negative rho (up, down):  1.038E+01 0.000E+00

     total cpu time spent up to now is     6255.4 secs

     total energy              =  -12618.88460425 Ry
     Harris-Foulkes estimate   =  -12663.96626882 Ry
     estimated scf accuracy    <     315.16759879 Ry

     iteration #  6     ecut=    80.00 Ry     beta=0.70
     Davidson diagonalization with overlap
     ethr =  1.00E-02,  avg # of iterations =  3.8

     negative rho (up, down):  8.213E+00 0.000E+00

     total cpu time spent up to now is     6631.3 secs

     total energy              =  -12596.54823514 Ry
     Harris-Foulkes estimate   =  -12642.96380080 Ry
     estimated scf accuracy    <     780.59636164 Ry

     iteration #  7     ecut=    80.00 Ry     beta=0.70
     Davidson diagonalization with overlap
     ethr =  1.00E-02,  avg # of iterations =  2.5

     negative rho (up, down):  6.339E+00 0.000E+00

     total cpu time spent up to now is     6966.0 secs

     total energy              =  -12598.59612028 Ry
     Harris-Foulkes estimate   =  -12624.64684107 Ry
     estimated scf accuracy    <     323.84458287 Ry

     iteration #  8     ecut=    80.00 Ry     beta=0.70
     Davidson diagonalization with overlap
     ethr =  1.00E-02,  avg # of iterations =  1.0

     negative rho (up, down):  3.120E+00 0.000E+00

     total cpu time spent up to now is     7266.5 secs

     total energy              =  -12568.81294491 Ry
     Harris-Foulkes estimate   =  -12601.59019077 Ry
     estimated scf accuracy    <     233.15370067 Ry

     iteration #  9     ecut=    80.00 Ry     beta=0.70
     Davidson diagonalization with overlap
     ethr =  1.00E-02,  avg # of iterations =  1.8

     negative rho (up, down):  1.554E+00 0.000E+00

     total cpu time spent up to now is     7583.4 secs

     total energy              =  -12551.36938680 Ry
     Harris-Foulkes estimate   =  -12572.70079983 Ry
     estimated scf accuracy    <     185.89703110 Ry

     iteration # 10     ecut=    80.00 Ry     beta=0.70
     Davidson diagonalization with overlap
     ethr =  1.00E-02,  avg # of iterations =  2.0

     negative rho (up, down):  4.408E+00 0.000E+00

     total cpu time spent up to now is     7904.2 secs

     total energy              =  -12524.11025936 Ry
     Harris-Foulkes estimate   =  -12557.56433869 Ry
     estimated scf accuracy    <     115.45420704 Ry

     iteration # 11     ecut=    80.00 Ry     beta=0.70
     Davidson diagonalization with overlap
     ethr =  9.42E-03,  avg # of iterations =  2.2

     negative rho (up, down):  6.674E+00 0.000E+00

     total cpu time spent up to now is     8228.5 secs

     total energy              =  -12519.40872531 Ry
     Harris-Foulkes estimate   =  -12529.07336799 Ry
     estimated scf accuracy    <     101.12527897 Ry

     iteration # 12     ecut=    80.00 Ry     beta=0.70
     Davidson diagonalization with overlap
     ethr =  8.25E-03,  avg # of iterations =  1.5

     negative rho (up, down):  8.029E+00 0.000E+00

     total cpu time spent up to now is     8537.8 secs

     total energy              =  -12517.11173959 Ry
     Harris-Foulkes estimate   =  -12523.92663674 Ry
     estimated scf accuracy    <      88.44655931 Ry

     iteration # 13     ecut=    80.00 Ry     beta=0.70
     Davidson diagonalization with overlap
     ethr =  7.21E-03,  avg # of iterations =  1.2

     negative rho (up, down):  4.937E+00 0.000E+00

     total cpu time spent up to now is     8845.4 secs

     total energy              =  -12516.41432105 Ry
     Harris-Foulkes estimate   =  -12520.62898062 Ry
     estimated scf accuracy    <      36.32627239 Ry

     iteration # 14     ecut=    80.00 Ry     beta=0.70
     Davidson diagonalization with overlap
     ethr =  2.96E-03,  avg # of iterations =  2.3

     negative rho (up, down):  4.829E+00 0.000E+00

     total cpu time spent up to now is     9173.1 secs

     total energy              =  -12511.87499595 Ry
     Harris-Foulkes estimate   =  -12520.86573694 Ry
     estimated scf accuracy    <     132.87011886 Ry

     iteration # 15     ecut=    80.00 Ry     beta=0.70
     Davidson diagonalization with overlap
     ethr =  2.96E-03,  avg # of iterations =  1.8

     negative rho (up, down):  4.665E+00 0.000E+00

     total cpu time spent up to now is     9489.2 secs

     total energy              =  -12514.75325744 Ry
     Harris-Foulkes estimate   =  -12516.32213862 Ry
     estimated scf accuracy    <      15.83533449 Ry

     iteration # 16     ecut=    80.00 Ry     beta=0.70
     Davidson diagonalization with overlap
     ethr =  1.29E-03,  avg # of iterations =  4.8

     negative rho (up, down):  3.574E+00 0.000E+00

     total cpu time spent up to now is     9860.8 secs

     total energy              =  -12514.10696850 Ry
     Harris-Foulkes estimate   =  -12515.35091236 Ry
     estimated scf accuracy    <      10.42961786 Ry

     iteration # 17     ecut=    80.00 Ry     beta=0.70
     Davidson diagonalization with overlap
     ethr =  8.51E-04,  avg # of iterations =  5.7

     negative rho (up, down):  1.719E+00 0.000E+00

     total cpu time spent up to now is    10253.1 secs

     total energy              =  -12512.14655427 Ry
     Harris-Foulkes estimate   =  -12514.34916412 Ry
     estimated scf accuracy    <       8.56635720 Ry

     iteration # 18     ecut=    80.00 Ry     beta=0.70
     Davidson diagonalization with overlap
     ethr =  6.99E-04,  avg # of iterations =  8.5

     negative rho (up, down):  1.666E+00 0.000E+00

     total cpu time spent up to now is    10700.5 secs

     total energy              =  -12512.50112539 Ry
     Harris-Foulkes estimate   =  -12512.63676493 Ry
     estimated scf accuracy    <      20.05221187 Ry

     iteration # 19     ecut=    80.00 Ry     beta=0.70
     Davidson diagonalization with overlap
     ethr =  6.99E-04,  avg # of iterations =  2.3

     negative rho (up, down):  1.011E+00 0.000E+00

     total cpu time spent up to now is    11024.2 secs

     total energy              =  -12511.22689712 Ry
     Harris-Foulkes estimate   =  -12512.81064450 Ry
     estimated scf accuracy    <       8.03530029 Ry

     iteration # 20     ecut=    80.00 Ry     beta=0.70
     Davidson diagonalization with overlap
     ethr =  6.55E-04,  avg # of iterations =  4.0

     negative rho (up, down):  1.357E+00 0.000E+00

     total cpu time spent up to now is    11382.2 secs

     total energy              =  -12511.73308795 Ry
     Harris-Foulkes estimate   =  -12511.85113156 Ry
     estimated scf accuracy    <      45.64480978 Ry

     iteration # 21     ecut=    80.00 Ry     beta=0.70
     Davidson diagonalization with overlap
     ethr =  6.55E-04,  avg # of iterations =  2.3

     negative rho (up, down):  2.283E+00 0.000E+00

     total cpu time spent up to now is    11707.5 secs

     total energy              =  -12511.98402077 Ry
     Harris-Foulkes estimate   =  -12511.76492256 Ry
     estimated scf accuracy    <      33.72702776 Ry

     iteration # 22     ecut=    80.00 Ry     beta=0.70
     Davidson diagonalization with overlap
     ethr =  6.55E-04,  avg # of iterations =  4.2

     negative rho (up, down):  2.114E+00 0.000E+00

     total cpu time spent up to now is    12075.6 secs

     total energy              =  -12511.72568765 Ry
     Harris-Foulkes estimate   =  -12512.34904529 Ry
     estimated scf accuracy    <      14.29226975 Ry

     iteration # 23     ecut=    80.00 Ry     beta=0.70
     Davidson diagonalization with overlap
     ethr =  6.55E-04,  avg # of iterations =  2.0

     negative rho (up, down):  1.009E+00 0.000E+00

     total cpu time spent up to now is    12396.7 secs

     total energy              =  -12510.56125941 Ry
     Harris-Foulkes estimate   =  -12512.21492426 Ry
     estimated scf accuracy    <      33.63619274 Ry

     iteration # 24     ecut=    80.00 Ry     beta=0.70
     Davidson diagonalization with overlap
     ethr =  6.55E-04,  avg # of iterations =  6.0

     negative rho (up, down):  6.082E-01 0.000E+00

     total cpu time spent up to now is    12791.4 secs

     total energy              =  -12510.23934838 Ry
     Harris-Foulkes estimate   =  -12511.10617960 Ry
     estimated scf accuracy    <      11.91915035 Ry

     iteration # 25     ecut=    80.00 Ry     beta=0.70
     Davidson diagonalization with overlap
     ethr =  6.55E-04,  avg # of iterations =  6.3

     negative rho (up, down):  5.928E-01 0.000E+00

     total cpu time spent up to now is    13191.7 secs

     total energy              =  -12509.45976257 Ry
     Harris-Foulkes estimate   =  -12510.45438950 Ry
     estimated scf accuracy    <       9.11249489 Ry

     iteration # 26     ecut=    80.00 Ry     beta=0.70
     Davidson diagonalization with overlap
     ethr =  6.55E-04,  avg # of iterations =  3.2

     negative rho (up, down):  8.303E-01 0.000E+00

     total cpu time spent up to now is    13534.5 secs

     total energy              =  -12508.85773657 Ry
     Harris-Foulkes estimate   =  -12509.65979757 Ry
     estimated scf accuracy    <      12.06012483 Ry

     iteration # 27     ecut=    80.00 Ry     beta=0.70
     Davidson diagonalization with overlap
     ethr =  6.55E-04,  avg # of iterations =  4.8

     negative rho (up, down):  7.590E-01 0.000E+00

     total cpu time spent up to now is    13911.0 secs

     total energy              =  -12508.70266531 Ry
     Harris-Foulkes estimate   =  -12509.15708333 Ry
     estimated scf accuracy    <       9.08224739 Ry

     iteration # 28     ecut=    80.00 Ry     beta=0.70
     Davidson diagonalization with overlap
     ethr =  6.55E-04,  avg # of iterations =  2.2

     negative rho (up, down):  9.212E-01 0.000E+00

     total cpu time spent up to now is    14235.0 secs

     total energy              =  -12508.64178781 Ry
     Harris-Foulkes estimate   =  -12508.87417117 Ry
     estimated scf accuracy    <       2.41384155 Ry

     iteration # 29     ecut=    80.00 Ry     beta=0.70
     Davidson diagonalization with overlap
     ethr =  1.97E-04,  avg # of iterations =  7.3

     negative rho (up, down):  1.024E+00 0.000E+00

     total cpu time spent up to now is    14698.5 secs

     total energy              =  -12508.63967622 Ry
     Harris-Foulkes estimate   =  -12508.71425564 Ry
     estimated scf accuracy    <       1.12493368 Ry

     iteration # 30     ecut=    80.00 Ry     beta=0.70
     Davidson diagonalization with overlap
     ethr =  9.18E-05,  avg # of iterations =  7.7

     negative rho (up, down):  5.425E-01 0.000E+00

     total cpu time spent up to now is    15155.8 secs

     total energy              =  -12508.59226697 Ry
     Harris-Foulkes estimate   =  -12508.70220205 Ry
     estimated scf accuracy    <       0.53631182 Ry

     iteration # 31     ecut=    80.00 Ry     beta=0.70
     Davidson diagonalization with overlap
     c_bands:  1 eigenvalues not converged
     ethr =  4.37E-05,  avg # of iterations = 15.5

     negative rho (up, down):  3.693E-01 0.000E+00

     total cpu time spent up to now is    15788.7 secs

     total energy              =  -12508.60138995 Ry
     Harris-Foulkes estimate   =  -12508.62095439 Ry
     estimated scf accuracy    <       0.10510654 Ry

     iteration # 32     ecut=    80.00 Ry     beta=0.70
     Davidson diagonalization with overlap
     ethr =  8.57E-06,  avg # of iterations = 12.2

     negative rho (up, down):  2.991E-01 0.000E+00

     total cpu time spent up to now is    16344.2 secs

     total energy              =  -12508.59678448 Ry
     Harris-Foulkes estimate   =  -12508.60682393 Ry
     estimated scf accuracy    <       0.04634601 Ry

     iteration # 33     ecut=    80.00 Ry     beta=0.70
     Davidson diagonalization with overlap
     ethr =  3.78E-06,  avg # of iterations =  8.3

     negative rho (up, down):  2.119E-01 0.000E+00

     total cpu time spent up to now is    16819.5 secs

     total energy              =  -12508.59489142 Ry
     Harris-Foulkes estimate   =  -12508.60115520 Ry
     estimated scf accuracy    <       0.02244178 Ry

     iteration # 34     ecut=    80.00 Ry     beta=0.70
     Davidson diagonalization with overlap
     c_bands:  1 eigenvalues not converged
     ethr =  1.83E-06,  avg # of iterations = 13.8

     negative rho (up, down):  9.027E-02 0.000E+00

     total cpu time spent up to now is    17429.2 secs

     total energy              =  -12508.59202406 Ry
     Harris-Foulkes estimate   =  -12508.59702619 Ry
     estimated scf accuracy    <       0.01481422 Ry

     iteration # 35     ecut=    80.00 Ry     beta=0.70
     Davidson diagonalization with overlap
     c_bands:  1 eigenvalues not converged
     c_bands:  1 eigenvalues not converged
     ethr =  1.21E-06,  avg # of iterations = 16.2

     negative rho (up, down):  3.413E-02 0.000E+00

     total cpu time spent up to now is    18101.2 secs

     total energy              =  -12508.59241717 Ry
     Harris-Foulkes estimate   =  -12508.59294686 Ry
     estimated scf accuracy    <       0.00428693 Ry

     iteration # 36     ecut=    80.00 Ry     beta=0.70
     Davidson diagonalization with overlap
     ethr =  3.50E-07,  avg # of iterations = 11.2

     negative rho (up, down):  1.989E-02 0.000E+00

     total cpu time spent up to now is    18649.4 secs

     total energy              =  -12508.59258881 Ry
     Harris-Foulkes estimate   =  -12508.59268432 Ry
     estimated scf accuracy    <       0.00120753 Ry

     iteration # 37     ecut=    80.00 Ry     beta=0.70
     Davidson diagonalization with overlap
     c_bands:  2 eigenvalues not converged
     ethr =  9.85E-08,  avg # of iterations = 12.0

     negative rho (up, down):  1.065E-02 0.000E+00

     total cpu time spent up to now is    19201.7 secs

     total energy              =  -12508.59246081 Ry
     Harris-Foulkes estimate   =  -12508.59266234 Ry
     estimated scf accuracy    <       0.00076851 Ry

     iteration # 38     ecut=    80.00 Ry     beta=0.70
     Davidson diagonalization with overlap
     c_bands:  1 eigenvalues not converged
     ethr =  6.27E-08,  avg # of iterations = 10.8

     negative rho (up, down):  9.326E-03 0.000E+00

     total cpu time spent up to now is    19722.0 secs

     total energy              =  -12508.59248877 Ry
     Harris-Foulkes estimate   =  -12508.59253157 Ry
     estimated scf accuracy    <       0.00040080 Ry

     iteration # 39     ecut=    80.00 Ry     beta=0.70
     Davidson diagonalization with overlap
     ethr =  3.27E-08,  avg # of iterations =  6.3

     negative rho (up, down):  8.153E-03 0.000E+00

     total cpu time spent up to now is    20145.2 secs

     total energy              =  -12508.59253860 Ry
     Harris-Foulkes estimate   =  -12508.59254870 Ry
     estimated scf accuracy    <       0.00028840 Ry

     iteration # 40     ecut=    80.00 Ry     beta=0.70
     Davidson diagonalization with overlap
     ethr =  2.35E-08,  avg # of iterations = 10.7

     negative rho (up, down):  7.324E-03 0.000E+00

     total cpu time spent up to now is    20659.6 secs

     total energy              =  -12508.59254188 Ry
     Harris-Foulkes estimate   =  -12508.59256182 Ry
     estimated scf accuracy    <       0.00004861 Ry

     iteration # 41     ecut=    80.00 Ry     beta=0.70
     Davidson diagonalization with overlap
     ethr =  3.96E-09,  avg # of iterations =  3.0

     negative rho (up, down):  5.210E-03 0.000E+00

     total cpu time spent up to now is    21023.3 secs

     total energy              =  -12508.59250800 Ry
     Harris-Foulkes estimate   =  -12508.59254631 Ry
     estimated scf accuracy    <       0.00002470 Ry

     iteration # 42     ecut=    80.00 Ry     beta=0.70
     Davidson diagonalization with overlap
     ethr =  2.01E-09,  avg # of iterations =  6.2

     negative rho (up, down):  3.941E-03 0.000E+00

     total cpu time spent up to now is    21438.8 secs

     total energy              =  -12508.59249873 Ry
     Harris-Foulkes estimate   =  -12508.59250936 Ry
     estimated scf accuracy    <       0.00001085 Ry

     iteration # 43     ecut=    80.00 Ry     beta=0.70
     Davidson diagonalization with overlap
     ethr =  8.85E-10,  avg # of iterations =  3.2

     negative rho (up, down):  3.516E-03 0.000E+00

     total cpu time spent up to now is    21814.0 secs

     total energy              =  -12508.59249590 Ry
     Harris-Foulkes estimate   =  -12508.59249981 Ry
     estimated scf accuracy    <       0.00000898 Ry

     iteration # 44     ecut=    80.00 Ry     beta=0.70
     Davidson diagonalization with overlap
     ethr =  7.33E-10,  avg # of iterations =  2.0

     negative rho (up, down):  2.975E-03 0.000E+00

     total cpu time spent up to now is    22146.1 secs

     total energy              =  -12508.59249458 Ry
     Harris-Foulkes estimate   =  -12508.59249623 Ry
     estimated scf accuracy    <       0.00000311 Ry

     iteration # 45     ecut=    80.00 Ry     beta=0.70
     Davidson diagonalization with overlap
     ethr =  2.54E-10,  avg # of iterations =  2.0

     negative rho (up, down):  2.679E-03 0.000E+00

     total cpu time spent up to now is    22484.3 secs

     total energy              =  -12508.59249431 Ry
     Harris-Foulkes estimate   =  -12508.59249491 Ry
     estimated scf accuracy    <       0.00000251 Ry

     iteration # 46     ecut=    80.00 Ry     beta=0.70
     Davidson diagonalization with overlap
     ethr =  2.05E-10,  avg # of iterations =  2.0

     negative rho (up, down):  2.488E-03 0.000E+00

     total cpu time spent up to now is    22822.0 secs

     total energy              =  -12508.59249464 Ry
     Harris-Foulkes estimate   =  -12508.59249445 Ry
     estimated scf accuracy    <       0.00000057 Ry

     iteration # 47     ecut=    80.00 Ry     beta=0.70
     Davidson diagonalization with overlap
     ethr =  4.62E-11,  avg # of iterations =  3.0

     negative rho (up, down):  2.468E-03 0.000E+00

     total cpu time spent up to now is    23194.8 secs

     total energy              =  -12508.59249473 Ry
     Harris-Foulkes estimate   =  -12508.59249470 Ry
     estimated scf accuracy    <       0.00000012 Ry

     iteration # 48     ecut=    80.00 Ry     beta=0.70
     Davidson diagonalization with overlap
     ethr =  9.58E-12,  avg # of iterations =  3.0

     negative rho (up, down):  2.450E-03 0.000E+00

     total cpu time spent up to now is    23562.6 secs

     total energy              =  -12508.59249477 Ry
     Harris-Foulkes estimate   =  -12508.59249474 Ry
     estimated scf accuracy    <       0.00000006 Ry

     iteration # 49     ecut=    80.00 Ry     beta=0.70
     Davidson diagonalization with overlap
     ethr =  5.21E-12,  avg # of iterations =  2.7

     negative rho (up, down):  2.448E-03 0.000E+00

     total cpu time spent up to now is    23891.1 secs

     End of self-consistent calculation

          k = 0.0000 0.0000 0.0000 (256287 PWs)   bands (ev):

   -17.6702 -16.4351 -15.4660 -15.2578 -15.0567 -14.4398 -14.3263 -14.1355
   -13.4268 -13.3694 -12.7956 -12.2783 -12.2599 -11.1253 -10.9089 -10.2341
    -9.9234  -9.7513  -9.1337  -8.9597  -8.5504  -8.0106  -7.9472  -7.8214
    -7.6223  -7.1582  -7.0134  -6.5750  -6.4434  -6.1927  -6.0760  -6.0511
    -6.0269  -5.9970  -5.9016  -5.7737  -5.3883  -5.1085  -4.9182  -4.8568
    -4.8030  -4.6443  -4.5443  -4.5186  -4.2515  -4.1820  -3.9655  -3.9640
    -3.9161  -3.8777  -3.7738  -3.7280  -3.6259  -3.5968  -3.5867  -3.5711
    -3.5608  -3.5576  -3.5289  -3.4640  -3.3835  -3.3268  -3.2874  -3.2632
    -3.2172  -3.1660  -3.0868  -3.0493  -2.9538  -2.9040  -2.9006  -2.8457
    -2.7959  -2.7591  -2.7492  -2.7123  -2.7110  -2.7083  -2.7066  -2.5962
    -2.5925  -2.5851  -2.5795  -2.5750  -2.5549  -2.5200  -2.5123  -2.4096
    -2.4012  -2.3431  -2.3299  -2.3082  -2.3027  -2.2944  -2.2854  -2.2405
    -2.2378  -2.2187  -2.2168  -2.2115  -2.1905  -2.1429  -2.1393  -2.1352
    -2.1349  -2.1136  -2.1044  -2.0900  -2.0791  -2.0740  -2.0721  -2.0247
    -2.0161  -1.9901  -1.9816  -1.9667  -1.9337  -1.9155  -1.8763  -1.8697
    -1.8619  -1.8473  -1.8375  -1.8245  -1.8108  -1.7751  -1.7731  -1.7583
    -1.7486  -1.7345  -1.7229  -1.6899  -1.6712  -1.6195  -1.6167  -1.6085
    -1.6032  -1.6028  -1.6013  -1.5971  -1.5948  -1.5896  -1.5872  -1.5843
    -1.5784  -1.5703  -1.5686  -1.5622  -1.5529  -1.5199  -1.5075  -1.5062
    -1.4994  -1.4882  -1.4852  -1.4817  -1.4401  -1.4375  -1.4328  -1.4291
    -1.4257  -1.4227  -1.4225  -1.4179  -1.4131  -1.4130  -1.4106  -1.4093
    -1.4066  -1.4045  -1.4022  -1.4012  -1.3963  -1.3578  -1.3518  -1.2991
    -1.2660  -1.2618  -1.2539  -1.2464  -1.2446  -1.2323  -1.2098  -1.2070
    -1.1947  -1.1880  -1.1841  -1.1750  -1.1746  -1.1683  -1.1601  -1.1360
    -1.1332  -1.1258  -1.1240  -1.1228  -1.1225  -1.1178  -1.1111  -1.1109
    -1.1055  -1.0641  -1.0562  -1.0140  -1.0091  -1.0060  -1.0018  -0.9995
    -0.9902  -0.9876  -0.9849  -0.9774  -0.9759  -0.9712  -0.9697  -0.9672
    -0.9664  -0.9656  -0.9625  -0.9589  -0.9556  -0.9536  -0.9523  -0.9370
    -0.9139  -0.9099  -0.8784  -0.8667  -0.8653  -0.8642  -0.8583  -0.8375
    -0.8358  -0.8339  -0.8310  -0.8283  -0.8213  -0.8167  -0.8109  -0.8089
    -0.8040  -0.7987  -0.7972  -0.7923  -0.7898  -0.7887  -0.7827  -0.7808
    -0.7773  -0.7771  -0.7659  -0.7632  -0.7540  -0.7497  -0.7411  -0.7193
    -0.7146  -0.6924  -0.6919  -0.6889  -0.6886  -0.6611  -0.6545  -0.6432
    -0.6420  -0.6338  -0.6306  -0.6300  -0.6276  -0.6265  -0.6264  -0.6176
    -0.5982  -0.5901  -0.5828  -0.5779  -0.5771  -0.5749  -0.5667  -0.5516
    -0.5502  -0.5465  -0.5443  -0.5433  -0.5284  -0.5254  -0.5227  -0.5220
    -0.5196  -0.5144  -0.5143  -0.5112  -0.5087  -0.5079  -0.4971  -0.4843
    -0.4830  -0.4721  -0.4699  -0.4509  -0.4418  -0.4319  -0.4214  -0.4051
    -0.4027  -0.3875  -0.3780  -0.3463  -0.3416  -0.3400  -0.3285  -0.3273
    -0.3169  -0.3167  -0.3108  -0.3097  -0.3046  -0.3000  -0.2951  -0.2934
    -0.2811  -0.2746  -0.2377  -0.2375  -0.2369  -0.2293  -0.2248  -0.2166
    -0.2143  -0.1995  -0.1991  -0.1937  -0.1926  -0.1891  -0.1801  -0.1578
    -0.1515  -0.1440  -0.1407  -0.1401  -0.1311  -0.1281  -0.0989  -0.0973
    -0.0955  -0.0854  -0.0825  -0.0808  -0.0764  -0.0685  -0.0647  -0.0611
    -0.0602  -0.0548  -0.0460  -0.0444  -0.0444  -0.0381  -0.0347  -0.0315
    -0.0312  -0.0271  -0.0238  -0.0225  -0.0175  -0.0132  -0.0052  -0.0043
     0.0130   0.0262   0.0291   0.0308   0.0346   0.0373   0.0402   0.0628
     0.0709   0.0732   0.0737   0.0770   0.0818   0.0822   0.0847   0.0872
     0.1021   0.1051   0.1087   0.1120   0.1137   0.1147   0.1179   0.1197
     0.1225   0.1250   0.1384   0.1393   0.1449   0.1550   0.1561   0.1647
     0.1692   0.1712   0.1714   0.1751   0.1825   0.1829   0.1901   0.1903
     0.2031   0.2298   0.2337   0.2390   0.2420   0.2427   0.2450   0.2546
     0.2568   0.2793   0.2835   0.2878   0.2903   0.3034   0.3035   0.3121
     0.3162   0.3166   0.3221   0.3235   0.3250   0.3369   0.3395   0.3438
     0.3462   0.3530   0.3553   0.3627   0.3640   0.3702   0.3836   0.3881
     0.3945   0.4039   0.4084   0.4103   0.4135   0.4203   0.4232   0.4317
     0.4348   0.4375   0.4381   0.4413   0.4423   0.4464   0.4505   0.4556
     0.4571   0.4595   0.4648   0.4676   0.4744   0.4809   0.4836   0.4939
     0.4980   0.5028   0.5062   0.5089   0.5164   0.5217   0.5279   0.5285
     0.5355   0.5359   0.5382   0.5399   0.5422   0.5460   0.5477   0.5572
     0.5592   0.5623   0.5629   0.5883   0.5893   0.5971   0.6142   0.6194
     0.6209   0.6244   0.6275   0.6321   0.6330   0.6341   0.6363   0.6450
     0.6451   0.6572   0.6584   0.6631   0.6648   0.6725   0.6744   0.6801
     0.6821   0.6860   0.6864   0.6942   0.6945   0.7050   0.7055   0.7070
     0.7079   0.7089   0.7169   0.7175   0.7254   0.7277   0.7305   0.7345
     0.7355   0.7370   0.7376   0.7386   0.7433   0.7487   0.7530   0.7615
     0.7678   0.7732   0.7736   0.7772   0.7836   0.7878   0.7990   0.8004
     0.8087   0.8168   0.8206   0.8287   0.8305   0.8319   0.8356   0.8394
     0.8420   0.8433   0.8464   0.8516   0.8536   0.8570   0.8622   0.8633
     0.8661   0.8691   0.8760   0.8768   0.8789   0.8908   0.8915   0.8929
     0.8960   0.9025   0.9040   0.9082   0.9100   0.9164   0.9203   0.9365
     0.9447   0.9659   0.9784   0.9827   0.9912   0.9917   0.9967   1.0025
     1.0119   1.0275   1.0374   1.0485   1.0524   1.0539   1.0653   1.0713
     1.0738   1.0835   1.0850   1.2658   1.3208   1.3787   1.4603   1.5059
     1.5210   1.5775   1.6193   1.6261   1.6328   1.6363   1.6364   1.6443
     1.6534   1.6547   1.7102   1.8368   1.8545   1.8843   1.8845   1.8904
     1.8988   1.9118   1.9349   2.1285   2.1383   2.1667   2.2323   2.5776
     2.6666   2.8873   2.9633   3.0206   3.2057   3.2273   3.2633   3.2835
     3.2847   3.2928   3.3347   3.3670   3.4018   3.4118   3.4130   3.4396
     3.4514   3.4520   3.4951   3.5422   3.6464   3.6529   3.7412   3.7549
     3.8449   4.2127   4.3111   4.3867   4.4786   4.6989   4.7121   4.7705
     5.0395   5.0566   5.1182   5.1888   5.2512   5.3369   5.3814   5.6255
     5.6355   5.6738   5.7606   5.8176   5.8779   5.9037   5.9076   6.0357
     6.0460   6.0945   6.1170   6.1699   6.2031   6.2342   6.3014   6.3240
     6.4200   6.4655   6.5043   6.5870   6.6962   6.7755   6.7800   6.8190
     7.0441   7.0721   7.0761   7.1128   7.1352   7.1702   7.1835   7.3227
     7.3814   7.4856   7.5243   7.5400   7.5682   7.7201   7.7586   7.7651
     7.7714   7.7842   7.8272   7.8639   7.8874   7.9595   7.9752   7.9997
     8.0191   8.1047   8.1092   8.1615   8.1999   8.2295   8.2366   8.2517
     8.2661   8.2815   8.3041   8.3562   8.4110   8.4388   8.5189   8.5870
     8.6016   8.6585   8.7605   8.7713   8.7991   8.9831   9.0062   9.0218
     9.1067   9.1209   9.1574   9.1667   9.2362   9.2610   9.3229   9.3302

          k = 0.0000-0.2165 0.0000 (256176 PWs)   bands (ev):

   -17.6702 -16.4351 -15.4660 -15.2578 -15.0567 -14.4398 -14.3263 -14.1355
   -13.4268 -13.3694 -12.7956 -12.2783 -12.2599 -11.1253 -10.9089 -10.2342
    -9.9234  -9.7514  -9.1337  -8.9597  -8.5503  -8.0103  -7.9472  -7.8214
    -7.6223  -7.1582  -7.0134  -6.4557  -6.4451  -6.4256  -6.1925  -6.0625
    -5.9970  -5.9025  -5.7818  -5.4277  -5.3862  -5.3547  -5.2155  -4.8575
    -4.8327  -4.7666  -4.4103  -4.2788  -4.2516  -4.1669  -3.8893  -3.8725
    -3.8688  -3.8507  -3.8437  -3.7732  -3.7610  -3.7367  -3.6159  -3.5912
    -3.5831  -3.5349  -3.4639  -3.4256  -3.3266  -3.2093  -3.1674  -3.1440
    -3.1345  -3.1324  -3.1292  -3.0958  -3.0400  -3.0188  -2.9806  -2.8495
    -2.8367  -2.8166  -2.8124  -2.7240  -2.7182  -2.7130  -2.6957  -2.6904
    -2.5748  -2.5557  -2.5480  -2.5473  -2.5207  -2.5205  -2.5162  -2.4155
    -2.4040  -2.3876  -2.3464  -2.3291  -2.3112  -2.3070  -2.3053  -2.3040
    -2.2821  -2.2776  -2.2470  -2.2455  -2.2107  -2.2070  -2.1988  -2.1850
    -2.1726  -2.0551  -2.0383  -2.0282  -2.0197  -1.9800  -1.9482  -1.9390
    -1.9370  -1.8813  -1.8802  -1.8746  -1.8657  -1.8467  -1.8422  -1.8387
    -1.8344  -1.8299  -1.8290  -1.8283  -1.8021  -1.8007  -1.7961  -1.7954
    -1.7861  -1.7792  -1.7746  -1.7700  -1.7406  -1.7259  -1.7014  -1.6981
    -1.6524  -1.6503  -1.6160  -1.6130  -1.6097  -1.6093  -1.5805  -1.5658
    -1.5568  -1.5562  -1.5514  -1.5441  -1.5428  -1.5376  -1.5330  -1.4996
    -1.4918  -1.4874  -1.4870  -1.4841  -1.4815  -1.4796  -1.4782  -1.4755
    -1.4529  -1.4472  -1.4061  -1.4049  -1.3979  -1.3892  -1.3882  -1.3795
    -1.3662  -1.3654  -1.3583  -1.3441  -1.3253  -1.3227  -1.3215  -1.3166
    -1.3011  -1.2735  -1.2272  -1.2258  -1.2087  -1.2058  -1.1957  -1.1948
    -1.1906  -1.1794  -1.1726  -1.1666  -1.1642  -1.1625  -1.1618  -1.1491
    -1.1479  -1.1219  -1.1167  -1.1107  -1.1074  -1.1051  -1.1040  -1.1010
    -1.0978  -1.0945  -1.0758  -1.0668  -1.0650  -1.0638  -1.0310  -1.0248
    -1.0244  -1.0227  -1.0189  -1.0135  -1.0131  -1.0020  -0.9936  -0.9844
    -0.9836  -0.9559  -0.9391  -0.9372  -0.9306  -0.9116  -0.9104  -0.8979
    -0.8906  -0.8720  -0.8712  -0.8676  -0.8623  -0.8598  -0.8582  -0.8528
    -0.8491  -0.8359  -0.8292  -0.8263  -0.8234  -0.8200  -0.8166  -0.8163
    -0.8123  -0.8073  -0.8002  -0.7957  -0.7859  -0.7807  -0.7796  -0.7690
    -0.7676  -0.7455  -0.7271  -0.7139  -0.7134  -0.7131  -0.7069  -0.7066
    -0.7027  -0.6982  -0.6868  -0.6784  -0.6738  -0.6730  -0.6655  -0.6576
    -0.6553  -0.6520  -0.6515  -0.6483  -0.6449  -0.6420  -0.6367  -0.6153
    -0.6010  -0.5929  -0.5925  -0.5833  -0.5828  -0.5722  -0.5687  -0.5579
    -0.5563  -0.5500  -0.5448  -0.5426  -0.5419  -0.5372  -0.5371  -0.5197
    -0.5089  -0.5064  -0.5021  -0.4990  -0.4970  -0.4771  -0.4733  -0.4726
    -0.4726  -0.4567  -0.4557  -0.4522  -0.4511  -0.4449  -0.4375  -0.4247
    -0.4088  -0.4035  -0.3932  -0.3883  -0.3754  -0.3701  -0.3657  -0.3646
    -0.3609  -0.3484  -0.3466  -0.3161  -0.3037  -0.3021  -0.3016  -0.2812
    -0.2766  -0.2477  -0.2371  -0.2191  -0.2164  -0.1971  -0.1901  -0.1826
    -0.1806  -0.1694  -0.1680  -0.1535  -0.1518  -0.1419  -0.1396  -0.1376
    -0.1345  -0.1287  -0.1253  -0.1197  -0.1096  -0.1087  -0.1060  -0.0996
    -0.0979  -0.0943  -0.0916  -0.0916  -0.0866  -0.0747  -0.0689  -0.0587
    -0.0543  -0.0492  -0.0489  -0.0471  -0.0428  -0.0409  -0.0407  -0.0380
    -0.0333  -0.0268  -0.0199  -0.0161  -0.0148  -0.0102  -0.0077  -0.0019
     0.0025   0.0077   0.0109   0.0130   0.0133   0.0157   0.0176   0.0241
     0.0316   0.0378   0.0449   0.0657   0.0729   0.0814   0.0829   0.0840
     0.0894   0.0906   0.0949   0.0974   0.1066   0.1074   0.1083   0.1092
     0.1132   0.1282   0.1314   0.1457   0.1482   0.1557   0.1579   0.1640
     0.1648   0.1657   0.1719   0.1812   0.1890   0.1922   0.1966   0.1966
     0.2071   0.2103   0.2136   0.2346   0.2350   0.2585   0.2622   0.3054
     0.3079   0.3134   0.3146   0.3183   0.3229   0.3231   0.3244   0.3316
     0.3350   0.3385   0.3409   0.3445   0.3460   0.3479   0.3485   0.3543
     0.3579   0.3611   0.3660   0.3665   0.3730   0.3762   0.3781   0.3851
     0.3860   0.3896   0.3900   0.3931   0.3941   0.3982   0.4060   0.4120
     0.4120   0.4127   0.4130   0.4148   0.4200   0.4206   0.4234   0.4376
     0.4378   0.4475   0.4513   0.4536   0.4543   0.4584   0.4604   0.4610
     0.4657   0.4664   0.4711   0.4740   0.4745   0.5071   0.5110   0.5313
     0.5531   0.5535   0.5555   0.5587   0.5631   0.5725   0.5737   0.5912
     0.5935   0.5952   0.5975   0.6051   0.6069   0.6071   0.6102   0.6118
     0.6210   0.6227   0.6235   0.6252   0.6307   0.6314   0.6327   0.6354
     0.6357   0.6376   0.6421   0.6505   0.6507   0.6548   0.6591   0.6607
     0.6650   0.6652   0.6746   0.6852   0.6895   0.6924   0.6938   0.6985
     0.6989   0.7028   0.7078   0.7095   0.7191   0.7219   0.7255   0.7272
     0.7324   0.7351   0.7405   0.7425   0.7472   0.7499   0.7522   0.7627
     0.7678   0.7765   0.7786   0.7807   0.7846   0.7963   0.8018   0.8034
     0.8079   0.8102   0.8112   0.8155   0.8165   0.8180   0.8229   0.8340
     0.8388   0.8446   0.8492   0.8544   0.8600   0.8643   0.8701   0.8726
     0.8740   0.8751   0.8761   0.8810   0.8826   0.9028   0.9055   0.9120
     0.9123   0.9150   0.9185   0.9260   0.9356   0.9387   0.9452   0.9483
     0.9516   0.9525   0.9601   0.9684   0.9798   1.0025   1.0216   1.0231
     1.0239   1.0757   1.1228   1.1359   1.1557   1.1648   1.1752   1.1848
     1.1944   1.1989   1.2074   1.2216   1.2330   1.2350   1.2427   1.2436
     1.2530   1.2751   1.2774   1.3538   1.6060   1.8064   1.8126   1.8718
     1.8774   1.9097   1.9274   1.9812   1.9879   2.0069   2.0174   2.0365
     2.1029   2.1291   2.1314   2.1408   2.1500   2.2112   2.2351   2.3481
     2.3536   2.4964   2.5897   2.5930   2.5932   2.7160   2.8255   2.9188
     3.0565   3.1042   3.1398   3.4764   3.4797   3.5376   3.5760   3.7486
     3.7555   3.7674   3.7718   3.7776   3.8288   3.9271   4.1697   4.2451
     4.2772   4.3781   4.3962   4.4858   4.5415   4.6371   4.6851   4.7813
     4.7892   4.8114   4.8164   4.8595   5.0175   5.1008   5.5217   5.6645
     5.6779   5.7313   5.8053   5.8313   5.8857   5.9258   5.9811   6.0309
     6.0863   6.1171   6.1435   6.2194   6.2814   6.2999   6.3525   6.4682
     6.4907   6.5020   6.5305   6.5633   6.5802   6.5805   6.6061   6.6421
     6.7679   6.8290   6.8440   6.8538   6.8835   6.9465   7.1252   7.1816
     7.1992   7.5103   7.5321   7.6377   7.6691   7.7729   7.7735   7.7901
     7.8625   7.8946   7.8959   7.9423   7.9598   8.0240   8.1005   8.1094
     8.1259   8.1340   8.1872   8.1911   8.1954   8.2767   8.2797   8.3723
     8.3976   8.4323   8.5145   8.5770   8.6819   8.7157   8.7523   8.7771
     8.8114   8.8189   8.8421   8.8605   8.8634   8.8969   8.9128   8.9345
     8.9999   9.1404   9.2061   9.2071   9.2162   9.2249   9.2379   9.2928

          k = 0.2500 0.0000 0.0000 (256240 PWs)   bands (ev):

   -17.6210 -16.3584 -15.8947 -15.3068 -15.1348 -14.3024 -14.2401 -13.9249
   -13.3497 -13.1045 -12.6049 -12.4058 -11.8007 -11.5410 -11.0462 -10.4750
   -10.1112  -9.9796  -9.5249  -9.2827  -8.6821  -8.2416  -7.9549  -7.5367
    -7.3763  -7.0395  -6.5223  -6.4729  -6.3950  -6.0310  -5.8830  -5.8656
    -5.6929  -5.6447  -5.3943  -5.2455  -5.1000  -5.0185  -4.9859  -4.9445
    -4.7712  -4.7239  -4.5730  -4.5574  -4.5132  -4.3973  -4.3964  -4.3821
    -4.3137  -4.2197  -4.1178  -3.9712  -3.9210  -3.7762  -3.7564  -3.7386
    -3.6220  -3.5941  -3.5585  -3.5383  -3.4844  -3.3923  -3.3565  -3.3422
    -3.2846  -3.1897  -3.1719  -3.0556  -2.9580  -2.9447  -2.9005  -2.8722
    -2.6753  -2.6607  -2.6566  -2.6427  -2.6381  -2.5777  -2.5223  -2.4817
    -2.4463  -2.4199  -2.4118  -2.3677  -2.3651  -2.3627  -2.3537  -2.3525
    -2.3462  -2.3384  -2.3284  -2.3201  -2.2926  -2.2537  -2.2395  -2.2164
    -2.2078  -2.2046  -2.1688  -2.1455  -2.1447  -2.1428  -2.1396  -2.1298
    -2.1168  -2.1128  -2.0683  -2.0677  -2.0628  -2.0588  -2.0264  -1.9545
    -1.9387  -1.9009  -1.8808  -1.8754  -1.8697  -1.8274  -1.8237  -1.8150
    -1.8082  -1.8028  -1.7979  -1.7743  -1.7573  -1.7503  -1.7480  -1.7460
    -1.7412  -1.7340  -1.7107  -1.7098  -1.7022  -1.6925  -1.6884  -1.6826
    -1.6739  -1.6713  -1.6536  -1.6403  -1.6336  -1.6133  -1.6013  -1.5912
    -1.5892  -1.5838  -1.5751  -1.5746  -1.5720  -1.5659  -1.5605  -1.5560
    -1.5556  -1.5519  -1.5435  -1.5432  -1.5403  -1.5391  -1.5343  -1.5317
    -1.5223  -1.5127  -1.4799  -1.4780  -1.4632  -1.4580  -1.4236  -1.4216
    -1.3904  -1.3788  -1.3764  -1.3699  -1.3600  -1.3562  -1.3381  -1.3360
    -1.3301  -1.3227  -1.3175  -1.3127  -1.3107  -1.3021  -1.2949  -1.2530
    -1.2143  -1.1806  -1.1710  -1.1701  -1.1671  -1.1431  -1.1366  -1.1356
    -1.1238  -1.1225  -1.1156  -1.1143  -1.1069  -1.1057  -1.0990  -1.0944
    -1.0917  -1.0683  -1.0633  -1.0587  -1.0557  -1.0532  -1.0458  -1.0292
    -1.0281  -1.0242  -1.0209  -1.0067  -0.9721  -0.9684  -0.9647  -0.9624
    -0.9557  -0.9523  -0.9507  -0.9485  -0.9263  -0.9221  -0.9171  -0.9106
    -0.9097  -0.9026  -0.8920  -0.8683  -0.8674  -0.8593  -0.8562  -0.8520
    -0.8514  -0.8445  -0.8376  -0.8301  -0.8188  -0.8166  -0.8124  -0.8022
    -0.7970  -0.7884  -0.7727  -0.7710  -0.7658  -0.7630  -0.7619  -0.7517
    -0.7500  -0.7406  -0.7280  -0.7260  -0.7191  -0.7058  -0.6969  -0.6866
    -0.6847  -0.6824  -0.6647  -0.6487  -0.6435  -0.6406  -0.6364  -0.6280
    -0.6135  -0.6080  -0.6014  -0.5984  -0.5917  -0.5854  -0.5831  -0.5810
    -0.5715  -0.5686  -0.5658  -0.5643  -0.5614  -0.5580  -0.5561  -0.5533
    -0.5482  -0.5423  -0.5386  -0.5349  -0.5325  -0.5274  -0.5162  -0.5126
    -0.5034  -0.4969  -0.4895  -0.4849  -0.4608  -0.4600  -0.4551  -0.4533
    -0.4441  -0.4438  -0.4364  -0.4326  -0.4296  -0.4261  -0.4229  -0.4036
    -0.3916  -0.3668  -0.3331  -0.3240  -0.3200  -0.3174  -0.3121  -0.3052
    -0.3023  -0.2985  -0.2949  -0.2903  -0.2885  -0.2861  -0.2816  -0.2785
    -0.2754  -0.2730  -0.2717  -0.2684  -0.2645  -0.2627  -0.2511  -0.2446
    -0.2405  -0.2402  -0.2322  -0.2243  -0.2209  -0.2141  -0.2114  -0.2041
    -0.1799  -0.1689  -0.1592  -0.1551  -0.1483  -0.1466  -0.1354  -0.1347
    -0.1281  -0.1253  -0.1102  -0.1043  -0.0982  -0.0968  -0.0910  -0.0855
    -0.0817  -0.0789  -0.0752  -0.0731  -0.0714  -0.0617  -0.0547  -0.0530
    -0.0474  -0.0464  -0.0408  -0.0268  -0.0237  -0.0226  -0.0209  -0.0170
    -0.0144  -0.0036   0.0071   0.0089   0.0111   0.0139   0.0208   0.0278
     0.0313   0.0319   0.0347   0.0371   0.0449   0.0518   0.0630   0.0657
     0.0706   0.0732   0.0811   0.0863   0.0893   0.0954   0.0964   0.1093
     0.1231   0.1323   0.1405   0.1548   0.1608   0.1643   0.1671   0.1727
     0.1745   0.1797   0.1852   0.1898   0.1978   0.2006   0.2061   0.2084
     0.2115   0.2152   0.2189   0.2397   0.2414   0.2474   0.2528   0.2548
     0.2606   0.2677   0.2751   0.2861   0.2893   0.2960   0.3054   0.3089
     0.3126   0.3145   0.3162   0.3177   0.3197   0.3220   0.3267   0.3333
     0.3412   0.3564   0.3715   0.3729   0.3756   0.3791   0.3910   0.3967
     0.4039   0.4072   0.4110   0.4149   0.4213   0.4246   0.4266   0.4284
     0.4315   0.4349   0.4385   0.4396   0.4429   0.4436   0.4469   0.4497
     0.4523   0.4579   0.4614   0.4622   0.4649   0.4664   0.4765   0.4813
     0.4854   0.4918   0.4923   0.4934   0.4975   0.5031   0.5091   0.5151
     0.5181   0.5212   0.5281   0.5334   0.5360   0.5368   0.5395   0.5471
     0.5488   0.5507   0.5563   0.5626   0.5628   0.5727   0.5800   0.5832
     0.5864   0.5986   0.6114   0.6124   0.6139   0.6226   0.6244   0.6291
     0.6345   0.6501   0.6534   0.6614   0.6682   0.6703   0.6757   0.6806
     0.6817   0.6839   0.6849   0.6884   0.7002   0.7013   0.7072   0.7121
     0.7151   0.7158   0.7204   0.7221   0.7245   0.7268   0.7287   0.7309
     0.7323   0.7399   0.7462   0.7481   0.7527   0.7536   0.7577   0.7599
     0.7709   0.7752   0.7756   0.7814   0.7837   0.7872   0.7921   0.8017
     0.8048   0.8059   0.8115   0.8202   0.8228   0.8242   0.8301   0.8421
     0.8432   0.8453   0.8486   0.8514   0.8521   0.8545   0.8573   0.8585
     0.8625   0.8644   0.8669   0.8672   0.8808   0.8818   0.8884   0.8949
     0.8964   0.8982   0.9015   0.9059   0.9095   0.9105   0.9156   0.9176
     0.9246   0.9319   0.9341   0.9429   0.9460   0.9637   0.9698   0.9830
     0.9856   1.0003   1.0052   1.0442   1.0472   1.0496   1.0574   1.0799
     1.1102   1.1617   1.1861   1.1886   1.2075   1.2203   1.2336   1.2596
     1.4515   1.4623   1.4794   1.4962   1.5146   1.5430   1.5777   1.6469
     1.7196   1.8507   1.9673   1.9805   1.9856   2.0587   2.2678   2.4025
     2.4094   2.4456   2.6151   2.6271   2.6452   2.6457   2.6692   2.7468
     2.8287   2.9050   2.9398   3.0528   3.0733   3.0836   3.1214   3.1227
     3.1700   3.1789   3.2330   3.2632   3.2870   3.3389   3.4232   3.4928
     3.6010   3.6855   3.7164   3.7382   3.8276   4.1580   4.2172   4.2624
     4.3630   4.4607   4.4937   4.6386   4.6714   4.6956   4.7659   4.8857
     4.9016   4.9139   4.9352   4.9591   4.9708   5.0598   5.1141   5.1201
     5.2312   5.2538   5.3025   5.3662   5.4239   5.4416   5.4537   5.4894
     5.5609   6.0426   6.0883   6.1098   6.1605   6.1769   6.2296   6.3002
     6.3954   6.4052   6.4406   6.4772   6.4881   6.4953   6.5145   6.6386
     6.7110   6.7774   6.8693   6.9054   6.9859   7.0019   7.0126   7.1410
     7.2038   7.2274   7.2733   7.3859   7.4514   7.4796   7.4973   7.5130
     7.5604   7.5881   7.6797   7.7225   7.7326   7.7953   7.8483   7.9110
     7.9443   8.0415   8.0439   8.0678   8.1610   8.2788   8.3735   8.4169
     8.4179   8.4462   8.4504   8.5457   8.5651   8.5760   8.5926   8.6328
     8.6450   8.6858   8.7426   8.7581   8.8152   8.8352   8.8640   8.8832
     8.9507   8.9746   9.0263   9.1117   9.1461   9.2046   9.2848   9.3033

          k = 0.2500-0.2165 0.0000 (256316 PWs)   bands (ev):

   -17.6210 -16.3584 -15.8947 -15.3068 -15.1348 -14.3024 -14.2401 -13.9249
   -13.3497 -13.1045 -12.6049 -12.4058 -11.8007 -11.5410 -11.0462 -10.4750
   -10.1113  -9.9796  -9.5250  -9.2828  -8.6821  -8.2414  -7.9549  -7.5366
    -7.3763  -7.0394  -6.5222  -6.4732  -6.2755  -6.2516  -6.0287  -5.6937
    -5.6597  -5.3947  -5.2675  -5.2238  -5.1907  -5.1009  -5.0755  -4.9836
    -4.9082  -4.8865  -4.7238  -4.6687  -4.3968  -4.3162  -4.2863  -4.2585
    -4.1161  -4.0985  -4.0231  -4.0095  -3.9692  -3.9415  -3.8012  -3.7447
    -3.6057  -3.5974  -3.5690  -3.5383  -3.4826  -3.4622  -3.4586  -3.3784
    -3.2744  -3.1892  -3.0573  -2.9451  -2.8799  -2.8647  -2.7855  -2.7700
    -2.7522  -2.7272  -2.7266  -2.6772  -2.6237  -2.6015  -2.5715  -2.5685
    -2.5400  -2.4738  -2.4666  -2.3984  -2.3728  -2.3705  -2.3507  -2.3337
    -2.3077  -2.3022  -2.2840  -2.2763  -2.2742  -2.2672  -2.2619  -2.2472
    -2.2390  -2.2370  -2.2345  -2.2270  -2.2238  -2.2200  -2.1536  -2.1447
    -2.1352  -2.0545  -2.0345  -2.0126  -1.9629  -1.9046  -1.8977  -1.8966
    -1.8743  -1.8448  -1.8420  -1.8409  -1.8261  -1.8252  -1.8182  -1.8098
    -1.8065  -1.8009  -1.8002  -1.7955  -1.7897  -1.7820  -1.7801  -1.7686
    -1.7576  -1.7544  -1.7507  -1.7467  -1.7390  -1.7248  -1.6998  -1.6964
    -1.6901  -1.6785  -1.6753  -1.6746  -1.6717  -1.6441  -1.6209  -1.6124
    -1.6070  -1.6063  -1.5981  -1.5871  -1.5752  -1.5602  -1.5586  -1.5513
    -1.5408  -1.5345  -1.5300  -1.5290  -1.5272  -1.5245  -1.5225  -1.5156
    -1.4970  -1.4891  -1.4823  -1.4807  -1.4591  -1.4403  -1.4272  -1.4250
    -1.4209  -1.3749  -1.3586  -1.3498  -1.3462  -1.3382  -1.3370  -1.3262
    -1.3012  -1.2905  -1.2832  -1.2813  -1.2735  -1.2682  -1.2666  -1.2578
    -1.2431  -1.2269  -1.2173  -1.2056  -1.1846  -1.1820  -1.1756  -1.1409
    -1.1313  -1.1294  -1.1266  -1.1237  -1.1097  -1.1063  -1.1048  -1.0843
    -1.0783  -1.0745  -1.0676  -1.0636  -1.0548  -1.0478  -1.0267  -1.0166
    -1.0051  -0.9965  -0.9899  -0.9832  -0.9800  -0.9775  -0.9645  -0.9604
    -0.9566  -0.9524  -0.9469  -0.9428  -0.9372  -0.9360  -0.9270  -0.9250
    -0.9237  -0.9176  -0.9126  -0.8999  -0.8970  -0.8855  -0.8844  -0.8644
    -0.8537  -0.8473  -0.8383  -0.8330  -0.8242  -0.8194  -0.8110  -0.8084
    -0.7985  -0.7906  -0.7892  -0.7851  -0.7795  -0.7614  -0.7534  -0.7312
    -0.7274  -0.6928  -0.6860  -0.6821  -0.6807  -0.6798  -0.6780  -0.6717
    -0.6618  -0.6595  -0.6448  -0.6412  -0.6387  -0.6346  -0.6283  -0.6220
    -0.6176  -0.6129  -0.6048  -0.6001  -0.5975  -0.5917  -0.5903  -0.5793
    -0.5773  -0.5757  -0.5714  -0.5691  -0.5635  -0.5623  -0.5601  -0.5566
    -0.5501  -0.5463  -0.5420  -0.5405  -0.5376  -0.5344  -0.5105  -0.5064
    -0.5002  -0.4963  -0.4937  -0.4885  -0.4720  -0.4683  -0.4451  -0.4428
    -0.4413  -0.4339  -0.4259  -0.4242  -0.4229  -0.4209  -0.4082  -0.4048
    -0.4005  -0.3951  -0.3907  -0.3728  -0.3676  -0.3468  -0.3178  -0.3069
    -0.3020  -0.3001  -0.2980  -0.2907  -0.2860  -0.2829  -0.2808  -0.2763
    -0.2688  -0.2644  -0.2624  -0.2570  -0.2512  -0.2467  -0.2452  -0.2419
    -0.2318  -0.2299  -0.2176  -0.2148  -0.2090  -0.2021  -0.2001  -0.1965
    -0.1896  -0.1825  -0.1765  -0.1671  -0.1639  -0.1549  -0.1443  -0.1316
    -0.1270  -0.1220  -0.1189  -0.1171  -0.1066  -0.0993  -0.0966  -0.0939
    -0.0893  -0.0870  -0.0825  -0.0794  -0.0693  -0.0603  -0.0580  -0.0543
    -0.0451  -0.0412  -0.0176  -0.0067  -0.0059  -0.0017   0.0080   0.0142
     0.0188   0.0237   0.0263   0.0310   0.0366   0.0416   0.0456   0.0489
     0.0504   0.0542   0.0678   0.0715   0.0763   0.0776   0.0790   0.0858
     0.0926   0.0938   0.0948   0.0971   0.0986   0.1055   0.1105   0.1152
     0.1176   0.1219   0.1253   0.1313   0.1330   0.1352   0.1364   0.1413
     0.1423   0.1459   0.1504   0.1568   0.1706   0.1798   0.1852   0.1863
     0.1915   0.2042   0.2142   0.2232   0.2376   0.2481   0.2493   0.2507
     0.2541   0.2548   0.2565   0.2620   0.2755   0.2759   0.2783   0.2813
     0.2818   0.2842   0.2902   0.3047   0.3058   0.3111   0.3161   0.3211
     0.3241   0.3285   0.3402   0.3477   0.3510   0.3556   0.3586   0.3657
     0.3722   0.3802   0.3834   0.3903   0.3924   0.3987   0.4011   0.4083
     0.4183   0.4264   0.4284   0.4364   0.4409   0.4516   0.4620   0.4649
     0.4720   0.4733   0.4925   0.4993   0.5047   0.5092   0.5119   0.5124
     0.5133   0.5156   0.5172   0.5190   0.5228   0.5263   0.5273   0.5307
     0.5318   0.5394   0.5437   0.5497   0.5542   0.5567   0.5700   0.5803
     0.5840   0.5865   0.5899   0.5914   0.5944   0.5985   0.5989   0.6007
     0.6082   0.6095   0.6146   0.6167   0.6215   0.6234   0.6264   0.6290
     0.6337   0.6373   0.6428   0.6446   0.6476   0.6486   0.6507   0.6554
     0.6573   0.6696   0.6751   0.6809   0.6899   0.6930   0.6960   0.7006
     0.7024   0.7050   0.7067   0.7173   0.7209   0.7307   0.7330   0.7346
     0.7402   0.7507   0.7534   0.7559   0.7572   0.7583   0.7643   0.7672
     0.7754   0.7767   0.7784   0.7819   0.7890   0.7939   0.7982   0.8007
     0.8035   0.8055   0.8074   0.8143   0.8163   0.8188   0.8191   0.8242
     0.8254   0.8286   0.8317   0.8362   0.8416   0.8441   0.8570   0.8602
     0.8612   0.8628   0.8659   0.8682   0.8685   0.8746   0.8784   0.8797
     0.8815   0.8840   0.9008   0.9019   0.9073   0.9199   0.9237   0.9281
     0.9292   0.9379   0.9430   0.9504   0.9520   0.9581   0.9730   0.9746
     0.9772   0.9837   1.0141   1.0219   1.0710   1.0869   1.1032   1.1251
     1.1527   1.1763   1.1819   1.1961   1.2020   1.2138   1.2397   1.2643
     1.2914   1.3309   1.5302   1.5486   1.5670   1.5800   1.6446   1.7079
     1.9321   2.0087   2.0169   2.1559   2.1641   2.1931   2.2157   2.2264
     2.2283   2.2372   2.2696   2.3278   2.4050   2.4501   2.4708   2.5659
     2.9624   2.9934   3.0068   3.0313   3.0584   3.1790   3.2208   3.2671
     3.2761   3.2983   3.3901   3.4076   3.4608   3.5046   3.5845   3.5881
     3.6836   3.8026   3.8180   3.8438   3.8853   3.9473   4.0749   4.0978
     4.1273   4.3506   4.3632   4.4120   4.5575   4.5874   4.6498   4.7399
     4.7503   4.8298   4.8426   4.8959   4.9131   4.9187   5.1432   5.1986
     5.2118   5.2770   5.3186   5.3253   5.4268   5.5839   5.8434   5.9706
     5.9890   6.0155   6.1109   6.1155   6.2186   6.2453   6.2627   6.3590
     6.3674   6.4160   6.4301   6.5270   6.5564   6.6000   6.6414   6.6587
     6.7142   6.7622   6.7779   6.8296   6.8628   6.8812   6.9551   7.0061
     7.1331   7.1994   7.2076   7.2611   7.3583   7.3707   7.4456   7.5918
     7.6089   7.6241   7.7356   7.8912   7.9215   7.9605   7.9735   8.0368
     8.0479   8.0613   8.0650   8.0968   8.1525   8.1912   8.2393   8.2962
     8.3204   8.3493   8.3746   8.4583   8.5289   8.5440   8.6079   8.6239
     8.6355   8.6586   8.6692   8.6887   8.7267   8.7398   8.7646   8.8003
     8.8281   8.9196   8.9519   9.0603   9.0836   9.1277   9.1343   9.1922

          k =-0.5000 0.0000 0.0000 (256496 PWs)   bands (ev):

   -17.5630 -16.3450 -15.9576 -15.6953 -14.9355 -14.7290 -13.9387 -13.5246
   -13.1152 -12.8513 -12.3400 -12.1317 -12.1177 -12.0151 -11.0306 -10.8573
   -10.0924  -9.9301  -9.9000  -9.4687  -8.8200  -8.7776  -8.2025  -7.7093
    -6.6947  -6.3974  -6.0201  -5.9641  -5.8724  -5.8637  -5.7892  -5.5647
    -5.5025  -5.3612  -5.3590  -5.3552  -5.3034  -5.1594  -5.1300  -5.0453
    -4.9297  -4.7874  -4.6824  -4.5657  -4.5154  -4.4558  -4.3177  -4.2971
    -4.2614  -4.2093  -4.1258  -4.0972  -4.0676  -4.0000  -3.9850  -3.9764
    -3.9737  -3.9586  -3.8776  -3.7724  -3.5347  -3.4139  -3.3292  -3.3211
    -3.2152  -3.2109  -3.2004  -3.1903  -3.0317  -2.9525  -2.9454  -2.8755
    -2.8744  -2.8579  -2.8399  -2.7945  -2.4691  -2.4425  -2.4410  -2.4408
    -2.4370  -2.4345  -2.4321  -2.3989  -2.3811  -2.3145  -2.3142  -2.2529
    -2.2209  -2.2154  -2.2132  -2.1869  -2.1868  -2.1672  -2.1608  -2.1606
    -2.1573  -2.0740  -2.0667  -2.0557  -2.0457  -2.0110  -1.9874  -1.9858
    -1.9814  -1.9736  -1.9600  -1.9400  -1.9379  -1.9282  -1.9244  -1.9234
    -1.9106  -1.9092  -1.9083  -1.9032  -1.8757  -1.8688  -1.8668  -1.8644
    -1.8359  -1.8351  -1.8292  -1.8288  -1.8239  -1.7977  -1.7860  -1.7685
    -1.7674  -1.7538  -1.7505  -1.7447  -1.7417  -1.7232  -1.7193  -1.7162
    -1.7114  -1.7062  -1.7000  -1.6800  -1.6778  -1.6756  -1.6731  -1.6516
    -1.6487  -1.6450  -1.6438  -1.6216  -1.6183  -1.6003  -1.5793  -1.5750
    -1.5485  -1.5483  -1.5433  -1.5386  -1.5368  -1.5188  -1.5181  -1.5084
    -1.5079  -1.5046  -1.4936  -1.4931  -1.4818  -1.4812  -1.4736  -1.4700
    -1.4565  -1.4249  -1.4131  -1.4102  -1.4032  -1.4032  -1.3658  -1.3622
    -1.3042  -1.2760  -1.2750  -1.2750  -1.2596  -1.2463  -1.2448  -1.2424
    -1.2414  -1.2377  -1.2346  -1.2124  -1.2106  -1.1999  -1.1961  -1.1843
    -1.1818  -1.1782  -1.1764  -1.1753  -1.1614  -1.1457  -1.1439  -1.1280
    -1.1112  -1.0426  -1.0413  -1.0305  -1.0303  -1.0272  -1.0260  -1.0077
    -0.9979  -0.9966  -0.9946  -0.9846  -0.9803  -0.9750  -0.9633  -0.9506
    -0.9504  -0.9415  -0.9403  -0.9228  -0.9121  -0.9046  -0.9025  -0.8995
    -0.8963  -0.8786  -0.8720  -0.8669  -0.8642  -0.8626  -0.8605  -0.8510
    -0.8494  -0.8464  -0.8360  -0.8207  -0.8196  -0.8143  -0.8135  -0.7830
    -0.7822  -0.7754  -0.7738  -0.7150  -0.7126  -0.7100  -0.7084  -0.7026
    -0.7019  -0.6996  -0.6943  -0.6669  -0.6650  -0.6578  -0.6514  -0.6290
    -0.6275  -0.6067  -0.6049  -0.6034  -0.6013  -0.6003  -0.5969  -0.5950
    -0.5947  -0.5938  -0.5928  -0.5905  -0.5873  -0.5851  -0.5476  -0.5290
    -0.5163  -0.5118  -0.5107  -0.5031  -0.5023  -0.4999  -0.4959  -0.4921
    -0.4908  -0.4905  -0.4904  -0.4857  -0.4810  -0.4785  -0.4785  -0.4734
    -0.4719  -0.4646  -0.4603  -0.4595  -0.4577  -0.4574  -0.4555  -0.4532
    -0.4469  -0.4450  -0.4427  -0.4426  -0.4384  -0.4303  -0.4266  -0.4213
    -0.4201  -0.4192  -0.4183  -0.4129  -0.4085  -0.3886  -0.3877  -0.3688
    -0.3144  -0.3011  -0.2950  -0.2943  -0.2896  -0.2825  -0.2595  -0.2559
    -0.2559  -0.2521  -0.2466  -0.2455  -0.2388  -0.2373  -0.2319  -0.2283
    -0.2267  -0.2244  -0.2225  -0.2139  -0.2074  -0.2063  -0.2047  -0.2045
    -0.2032  -0.2005  -0.1919  -0.1905  -0.1891  -0.1838  -0.1765  -0.1748
    -0.1692  -0.1624  -0.1575  -0.1547  -0.1119  -0.0912  -0.0863  -0.0789
    -0.0777  -0.0768  -0.0654  -0.0566  -0.0565  -0.0528  -0.0524  -0.0509
    -0.0483  -0.0468  -0.0401  -0.0392  -0.0366  -0.0329  -0.0301  -0.0287
    -0.0286  -0.0275  -0.0271  -0.0184  -0.0105  -0.0061  -0.0006   0.0078
     0.0105   0.0110   0.0304   0.0309   0.0453   0.0470   0.0568   0.0569
     0.0578   0.0623   0.0650   0.0676   0.0691   0.0700   0.0758   0.0766
     0.0829   0.0891   0.0919   0.0924   0.0952   0.1020   0.1161   0.1251
     0.1345   0.1371   0.1389   0.1391   0.1472   0.1537   0.1634   0.1648
     0.1768   0.1846   0.1872   0.1941   0.2058   0.2187   0.2329   0.2372
     0.2422   0.2426   0.2601   0.2607   0.2621   0.2646   0.2651   0.2688
     0.2698   0.2721   0.2786   0.2788   0.2946   0.2960   0.3033   0.3069
     0.3093   0.3160   0.3165   0.3296   0.3304   0.3308   0.3319   0.3321
     0.3366   0.3450   0.3607   0.3664   0.3797   0.3859   0.4020   0.4209
     0.4329   0.4354   0.4383   0.4421   0.4441   0.4484   0.4649   0.4697
     0.4699   0.4814   0.4847   0.4858   0.4972   0.4998   0.5018   0.5022
     0.5221   0.5282   0.5324   0.5368   0.5376   0.5385   0.5412   0.5464
     0.5475   0.5507   0.5526   0.5579   0.5580   0.5591   0.5616   0.5617
     0.5652   0.5665   0.5716   0.5742   0.5794   0.5973   0.5993   0.6005
     0.6029   0.6062   0.6190   0.6224   0.6340   0.6345   0.6391   0.6392
     0.6538   0.6544   0.6609   0.6626   0.6660   0.6679   0.6687   0.6702
     0.6704   0.6705   0.6797   0.6825   0.6864   0.6957   0.7100   0.7163
     0.7216   0.7224   0.7284   0.7346   0.7355   0.7407   0.7410   0.7434
     0.7439   0.7467   0.7482   0.7492   0.7537   0.7543   0.7556   0.7588
     0.7597   0.7602   0.7615   0.7646   0.7655   0.7693   0.7727   0.7754
     0.7766   0.7786   0.7874   0.7901   0.8021   0.8041   0.8081   0.8125
     0.8201   0.8253   0.8352   0.8378   0.8402   0.8426   0.8457   0.8503
     0.8527   0.8548   0.8589   0.8618   0.8693   0.8702   0.8717   0.8733
     0.8884   0.8939   0.8962   0.8987   0.8999   0.9022   0.9025   0.9050
     0.9131   0.9187   0.9204   0.9219   0.9315   0.9362   0.9363   0.9377
     0.9385   0.9401   0.9504   0.9543   0.9895   0.9929   0.9936   1.0085
     1.0261   1.0304   1.0341   1.0356   1.4388   1.4432   1.4535   1.4549
     1.6205   1.6310   1.6879   1.6937   1.7070   1.7139   1.7155   1.7191
     1.9985   2.0013   2.0142   2.0773   2.1398   2.2448   2.2520   2.2610
     2.2729   2.3005   2.6067   2.6124   2.6403   2.6414   2.9136   2.9277
     3.1017   3.1122   3.1710   3.1822   3.2918   3.3262   3.3483   3.3559
     3.4355   3.4845   3.4975   3.5386   3.5604   3.5995   3.6435   4.0389
     4.0608   4.1085   4.1219   4.1685   4.2401   4.2494   4.2666   4.3046
     4.3747   4.3882   4.4360   4.4418   4.4444   4.4478   4.4862   4.4932
     4.5110   4.5255   4.5257   4.6274   4.7173   4.7495   4.8979   4.9159
     4.9686   4.9691   5.0030   5.0370   5.3583   5.3623   5.3951   5.4167
     5.4488   5.4741   5.5051   5.5052   5.7418   5.7476   5.9147   5.9457
     6.0215   6.0778   6.4680   6.4778   6.5202   6.5260   6.6210   6.6341
     6.9186   6.9281   6.9814   7.0216   7.0349   7.0414   7.0739   7.0828
     7.2181   7.2419   7.2492   7.2601   7.3226   7.3249   7.3619   7.3738
     7.3739   7.4123   7.4291   7.4573   7.4962   7.5461   7.6513   7.6599
     7.8464   7.8949   7.9298   7.9510   8.1539   8.1796   8.2396   8.2548
     8.3209   8.4356   8.4365   8.4398   8.4624   8.4734   8.5049   8.5335
     8.6699   8.6846   8.7215   8.7763   8.8296   8.8509   8.9221   8.9293
     8.9434   8.9483   8.9628   8.9662   9.0061   9.0418   9.1249   9.1765

          k =-0.5000-0.2165 0.0000 (256328 PWs)   bands (ev):

   -17.5630 -16.3450 -15.9576 -15.6953 -14.9355 -14.7290 -13.9387 -13.5246
   -13.1152 -12.8513 -12.3400 -12.1317 -12.1177 -12.0151 -11.0306 -10.8573
   -10.0924  -9.9302  -9.9000  -9.4688  -8.8200  -8.7776  -8.2022  -7.7089
    -6.6946  -6.3978  -6.0211  -5.9653  -5.7944  -5.7712  -5.7451  -5.7222
    -5.7201  -5.5640  -5.4414  -5.1592  -5.1309  -5.0462  -4.8951  -4.7952
    -4.7681  -4.7469  -4.7468  -4.7107  -4.7006  -4.6797  -4.6198  -4.4103
    -4.3049  -4.2764  -4.1979  -4.0999  -4.0997  -4.0855  -3.9873  -3.8548
    -3.8512  -3.7861  -3.7451  -3.7011  -3.5270  -3.3360  -3.2342  -3.1783
    -3.1722  -3.1401  -3.1322  -3.1274  -3.1230  -3.1184  -3.0290  -2.9776
    -2.9207  -2.8150  -2.6590  -2.6479  -2.6391  -2.6382  -2.6096  -2.5940
    -2.5363  -2.5258  -2.4624  -2.3701  -2.3677  -2.3595  -2.3545  -2.3118
    -2.2067  -2.1895  -2.1477  -2.1458  -2.1189  -2.0619  -2.0567  -2.0537
    -2.0530  -2.0482  -2.0151  -2.0143  -2.0079  -2.0051  -2.0002  -1.9953
    -1.9560  -1.9558  -1.9501  -1.9444  -1.9404  -1.9393  -1.9384  -1.9368
    -1.9301  -1.9278  -1.9259  -1.9241  -1.9181  -1.8766  -1.8761  -1.8733
    -1.8718  -1.8386  -1.8236  -1.8086  -1.8050  -1.8018  -1.7588  -1.7565
    -1.7547  -1.7546  -1.7536  -1.7422  -1.7339  -1.7228  -1.7192  -1.7022
    -1.6983  -1.6974  -1.6921  -1.6909  -1.6861  -1.6836  -1.6801  -1.6800
    -1.6770  -1.6392  -1.6376  -1.6274  -1.6258  -1.6140  -1.6130  -1.6103
    -1.6093  -1.6061  -1.6045  -1.6027  -1.5984  -1.5961  -1.5902  -1.5638
    -1.4584  -1.4552  -1.4487  -1.4436  -1.4205  -1.4163  -1.4149  -1.4142
    -1.3764  -1.3580  -1.3560  -1.3457  -1.3422  -1.3337  -1.3315  -1.3313
    -1.3282  -1.3268  -1.3254  -1.3078  -1.2851  -1.2693  -1.2652  -1.2626
    -1.2624  -1.2582  -1.2524  -1.2516  -1.2420  -1.2392  -1.2283  -1.2255
    -1.2183  -1.1622  -1.1520  -1.1433  -1.1414  -1.1218  -1.1136  -1.1098
    -1.0958  -1.0708  -1.0697  -1.0669  -1.0614  -1.0199  -1.0198  -1.0180
    -1.0175  -1.0036  -1.0030  -0.9950  -0.9949  -0.9824  -0.9775  -0.9651
    -0.9612  -0.9604  -0.9579  -0.9552  -0.9526  -0.9192  -0.9105  -0.8885
    -0.8722  -0.8500  -0.8474  -0.8343  -0.8335  -0.8256  -0.8246  -0.8217
    -0.8205  -0.8146  -0.8110  -0.8088  -0.8077  -0.7463  -0.7460  -0.7342
    -0.7281  -0.7275  -0.7267  -0.7227  -0.7222  -0.7205  -0.7201  -0.7187
    -0.7130  -0.6892  -0.6877  -0.6869  -0.6842  -0.6779  -0.6765  -0.6739
    -0.6737  -0.6629  -0.6625  -0.6594  -0.6585  -0.6077  -0.6056  -0.6031
    -0.5963  -0.5940  -0.5835  -0.5819  -0.5619  -0.5612  -0.5390  -0.5273
    -0.5212  -0.5205  -0.5093  -0.4972  -0.4970  -0.4941  -0.4931  -0.4918
    -0.4899  -0.4850  -0.4841  -0.4811  -0.4778  -0.4762  -0.4731  -0.4713
    -0.4687  -0.4672  -0.4669  -0.4668  -0.4623  -0.4593  -0.4559  -0.4501
    -0.4484  -0.4455  -0.4447  -0.4251  -0.4240  -0.4235  -0.4227  -0.4161
    -0.4144  -0.4083  -0.4072  -0.3990  -0.3895  -0.3704  -0.3603  -0.3590
    -0.3551  -0.3510  -0.3278  -0.3233  -0.3227  -0.3206  -0.3071  -0.2904
    -0.2557  -0.2536  -0.2480  -0.2454  -0.2438  -0.2372  -0.2301  -0.2284
    -0.2230  -0.2188  -0.2182  -0.2094  -0.2049  -0.2027  -0.2008  -0.1999
    -0.1973  -0.1912  -0.1884  -0.1861  -0.1858  -0.1808  -0.1518  -0.1334
    -0.1310  -0.1235  -0.1193  -0.1193  -0.1153  -0.1145  -0.1069  -0.1065
    -0.1051  -0.1050  -0.0834  -0.0808  -0.0804  -0.0747  -0.0688  -0.0668
    -0.0656  -0.0646  -0.0475  -0.0446  -0.0403  -0.0283  -0.0275  -0.0231
    -0.0202  -0.0160  -0.0105  -0.0086  -0.0082  -0.0067   0.0020   0.0024
     0.0035   0.0053   0.0074   0.0113   0.0162   0.0217   0.0234   0.0297
     0.0401   0.0440   0.0570   0.0583   0.0668   0.0788   0.0890   0.0967
     0.1008   0.1028   0.1124   0.1124   0.1131   0.1139   0.1164   0.1194
     0.1249   0.1307   0.1495   0.1497   0.1520   0.1548   0.1552   0.1555
     0.1564   0.1606   0.1715   0.1736   0.2006   0.2036   0.2037   0.2111
     0.2238   0.2355   0.2392   0.2400   0.2400   0.2452   0.2698   0.2705
     0.2771   0.2783   0.2968   0.2983   0.3027   0.3065   0.3502   0.3512
     0.3526   0.3536   0.3676   0.3726   0.3787   0.3820   0.3877   0.3909
     0.4046   0.4067   0.4086   0.4238   0.4303   0.4335   0.4360   0.4383
     0.4451   0.4549   0.4574   0.4615   0.4659   0.4675   0.4685   0.4692
     0.4695   0.4721   0.4728   0.4735   0.4767   0.4791   0.4806   0.4830
     0.4853   0.4897   0.5005   0.5021   0.5023   0.5031   0.5117   0.5153
     0.5182   0.5239   0.5333   0.5347   0.5363   0.5406   0.5471   0.5483
     0.5521   0.5602   0.5624   0.5644   0.5685   0.5705   0.5974   0.6044
     0.6052   0.6089   0.6133   0.6176   0.6177   0.6221   0.6272   0.6301
     0.6378   0.6390   0.6436   0.6464   0.6563   0.6705   0.6724   0.6732
     0.6804   0.6869   0.6901   0.6935   0.6944   0.6974   0.7011   0.7042
     0.7067   0.7070   0.7105   0.7109   0.7122   0.7123   0.7458   0.7471
     0.7603   0.7618   0.7620   0.7677   0.7705   0.7710   0.7772   0.7782
     0.7784   0.7787   0.7796   0.7829   0.7859   0.7910   0.7937   0.7979
     0.8028   0.8071   0.8101   0.8115   0.8122   0.8135   0.8157   0.8163
     0.8206   0.8212   0.8226   0.8263   0.8274   0.8313   0.8386   0.8402
     0.8454   0.8470   0.8646   0.8678   0.8766   0.8768   0.8833   0.8855
     0.8901   0.8916   0.8973   0.9020   0.9040   0.9067   0.9111   0.9151
     0.9200   0.9301   0.9471   0.9504   0.9540   0.9739   0.9908   0.9955
     0.9957   0.9986   1.0173   1.0190   1.0258   1.0286   1.0345   1.0374
     1.0378   1.0401   1.0431   1.0434   1.0691   1.0731   1.2512   1.2543
     1.2624   1.2666   1.7205   1.7283   1.7960   1.8062   1.8989   1.9275
     1.9833   1.9946   2.1812   2.1875   2.2058   2.2161   2.2291   2.2666
     2.4972   2.5034   2.5334   2.5912   2.8744   2.8792   2.8822   2.8842
     3.0346   3.0637   3.1129   3.1147   3.3460   3.3629   3.3634   3.3656
     3.4225   3.5942   3.6301   3.6430   3.6540   3.6561   3.6635   3.8015
     3.8307   3.9223   3.9391   3.9504   3.9685   4.0226   4.1071   4.1131
     4.1229   4.2696   4.3526   4.4497   4.5368   4.5447   4.5698   4.5746
     4.6426   4.6481   4.6560   4.6915   4.7054   4.7610   4.7917   4.8116
     4.8534   4.9486   5.1461   5.1463   5.1585   5.1616   5.2662   5.3091
     5.3897   5.4174   5.8970   6.0440   6.2067   6.2468   6.2742   6.2801
     6.4285   6.4567   6.4610   6.5059   6.5265   6.5656   6.5666   6.5871
     6.6210   6.6478   6.6938   6.7521   6.7796   6.7868   6.8018   6.8023
     6.9177   6.9712   7.0081   7.0526   7.3224   7.3399   7.4108   7.4373
     7.4538   7.4949   7.6450   7.6489   7.6846   7.7087   7.8055   7.8591
     8.2005   8.2142   8.2293   8.2577   8.2679   8.2962   8.3037   8.3051
     8.3220   8.3656   8.3746   8.3763   8.3841   8.4385   8.4519   8.4998
     8.5653   8.5691   8.5757   8.5795   8.5866   8.6339   8.7499   8.7693
     8.8105   8.8203   8.9375   8.9862   9.0239   9.0667   9.2499   9.2658

     the Fermi energy is     2.7453 ev

!    total energy              =  -12508.59249479 Ry
     Harris-Foulkes estimate   =  -12508.59249478 Ry
     estimated scf accuracy    <          7.0E-09 Ry

     The total energy is the sum of the following terms:

     one-electron contribution = -109881.59229664 Ry
     hartree contribution      =   56253.33828675 Ry
     xc contribution           =   -4388.21825988 Ry
     ewald contribution        =   45513.96783097 Ry
     Dispersion Correction     =      -2.78481823 Ry
     smearing contrib. (-TS)   =      -3.30323776 Ry

     convergence has been achieved in  49 iterations

     Writing output data file gc.save
 
     init_run     :    163.36s CPU    177.03s WALL (       1 calls)
     electrons    :  22158.84s CPU  23712.67s WALL (       1 calls)

     Called by init_run:
     wfcinit      :    160.37s CPU    172.53s WALL (       1 calls)
     potinit      :      0.97s CPU      1.21s WALL (       1 calls)

     Called by electrons:
     c_bands      :  19867.85s CPU  21239.95s WALL (      49 calls)
     sum_band     :   1802.38s CPU   1910.80s WALL (      49 calls)
     v_of_rho     :      5.97s CPU      7.87s WALL (      50 calls)
     newd         :     17.08s CPU     32.18s WALL (      50 calls)
     mix_rho      :    465.51s CPU    522.26s WALL (      49 calls)

     Called by c_bands:
     init_us_2    :     90.32s CPU     91.85s WALL (     594 calls)
     cegterg      :  19503.01s CPU  20860.32s WALL (     294 calls)

     Called by sum_band:
     sum_band:bec :      4.88s CPU      5.71s WALL (     294 calls)
     addusdens    :     25.05s CPU     38.16s WALL (      49 calls)

     Called by *egterg:
     h_psi        :   7603.72s CPU   8205.99s WALL (    1985 calls)
     s_psi        :   1864.93s CPU   1876.73s WALL (    1985 calls)
     g_psi        :     19.69s CPU     19.71s WALL (    1685 calls)
     cdiaghg      :   5360.92s CPU   5652.97s WALL (    1979 calls)

     Called by h_psi:
     add_vuspsi   :   1867.61s CPU   1881.21s WALL (    1985 calls)

     General routines
     calbec       :   2574.51s CPU   2594.64s WALL (    2279 calls)
     fft          :      5.59s CPU      6.65s WALL (     649 calls)
     ffts         :    202.35s CPU    243.53s WALL (   29222 calls)
     fftw         :   3894.07s CPU   4501.07s WALL ( 1266624 calls)
     davcio       :      0.19s CPU      6.12s WALL (       6 calls)
 
     Parallel routines
     fft_scatter  :   2069.47s CPU   2352.33s WALL ( 1296495 calls)
 
     PWSCF        :     6h12m CPU        6h38m WALL

 
   This run was terminated on:  21:40:31   8Sep2017            

=------------------------------------------------------------------------------=
   JOB DONE.
=------------------------------------------------------------------------------=
