mpirun: INFO: switching to OpenMPI runtime version 1.10.2

     Program PWSCF v.5.4.0 starts on  8Sep2017 at 16:50:13 

     This program is part of the open-source Quantum ESPRESSO suite
     for quantum simulation of materials; please cite
         "P. Giannozzi et al., J. Phys.:Condens. Matter 21 395502 (2009);
          URL http://www.quantum-espresso.org", 
     in publications or presentations arising from this work. More details at
     http://www.quantum-espresso.org/quote

     Parallel version (MPI & OpenMP), running on      28 processor cores
     Number of MPI processes:                28
     Threads/MPI process:                     1
     R & G space division:  proc/nbgrp/npool/nimage =      28
     Waiting for input...
     Reading input from standard input
Warning: card &IONS ignored
Warning: card / ignored

     Current dimensions of program PWSCF are:
     Max number of different atomic species (ntypx) = 10
     Max number of k-points (npk) =  40000
     Max angular momentum in pseudopotentials (lmaxx) =  3
     WARNING: atomic wfc #  2 for atom type 4 has zero norm
     WARNING: atomic wfc #  4 for atom type 4 has zero norm
     WARNING: atomic wfc #  5 for atom type 4 has zero norm

     -------------------------------------
     Parameters for Dispersion Correction:
     -------------------------------------
       atom      VdW radius       C_6     

        Cu         2.952        374.666
        C_h        2.744         60.710
        C          2.744         60.710
        O          2.536         24.284
        H          1.892          4.857

     Subspace diagonalization in iterative solution of the eigenvalue problem:
     one sub-group per band group will be used
     scalapack distributed-memory algorithm (size of sub-group:  3*  3 procs)

 
     Parallelization info
     --------------------
     sticks:   dense  smooth     PW     G-vecs:    dense   smooth      PW
     Min         408     408    108                73226    73226    9928
     Max         410     410    109                73231    73231    9931
     Sum       11433   11433   3039              2050409  2050409  278033
 


     bravais-lattice index     =            0
     lattice parameter (alat)  =      13.9425  a.u.
     unit-cell volume          =   21209.0878 (a.u.)^3
     number of atoms/cell      =          150
     number of atomic types    =            5
     number of electrons       =      1302.00
     number of Kohn-Sham states=          781
     kinetic-energy cutoff     =      80.0000  Ry
     charge density cutoff     =     320.0000  Ry
     convergence threshold     =      1.0E-08
     mixing beta               =       0.7000
     number of iterations used =            8  local-TF  mixing
     Exchange-correlation      =  SLA  PW   PBE  PBE ( 1  4  3  4 0 0)

     celldm(1)=  13.942539  celldm(2)=   0.000000  celldm(3)=   0.000000
     celldm(4)=   0.000000  celldm(5)=   0.000000  celldm(6)=   0.000000

     crystal axes: (cart. coord. in units of alat)
               a(1) = (   1.000000   0.000000   0.000000 )  
               a(2) = (   0.000000   2.309401   0.000000 )  
               a(3) = (   0.000000   0.000000   3.388418 )  

     reciprocal axes: (cart. coord. in units 2 pi/alat)
               b(1) = (  1.000000  0.000000  0.000000 )  
               b(2) = (  0.000000  0.433013  0.000000 )  
               b(3) = (  0.000000  0.000000  0.295123 )  


     PseudoPot. # 1 for Cu read from file:
     /home/549/hxw549/Short/pseudopotentials/Cu.pbe-n-van_ak.UPF
     MD5 check sum: 601f7c30f7467666bec936e0661ce3e1
     Pseudo is Ultrasoft + core correction, Zval = 11.0
     Generated by new atomic code, or converted to UPF format
     Using radial grid of  867 points,  6 beta functions with: 
                l(1) =   0
                l(2) =   0
                l(3) =   1
                l(4) =   1
                l(5) =   2
                l(6) =   2
     Q(r) pseudized with  8 coefficients,  rinner =    1.400   1.400   1.400
                                                       1.400   1.400

     PseudoPot. # 2 for C  read from file:
     /home/549/hxw549/Short/pseudopotentials/C.star1s-pbe-mt_gipaw.UPF
     MD5 check sum: ef0cb3dee31bd9e4ba2a832a2c716264
     Pseudo is Norm-conserving, Zval =  5.0
     Generated by new atomic code, or converted to UPF format
     Using radial grid of 1073 points,  1 beta functions with: 
                l(1) =   0

     PseudoPot. # 3 for C  read from file:
     /home/549/hxw549/Short/pseudopotentials/C.pbe-mt_gipaw.UPF
     MD5 check sum: 5ac2f21f2c440b14befe521540822c15
     Pseudo is Norm-conserving, Zval =  4.0
     Generated by new atomic code, or converted to UPF format
     Using radial grid of 1073 points,  1 beta functions with: 
                l(1) =   0

     PseudoPot. # 4 for O  read from file:
     /home/549/hxw549/Short/pseudopotentials/O.pbe-van_gipaw.UPF
     MD5 check sum: 5ce2a047509d4f331db576c963e74b29
     Pseudo is Ultrasoft, Zval =  6.0
     Generated by new atomic code, or converted to UPF format
     Using radial grid of 1095 points,  4 beta functions with: 
                l(1) =   0
                l(2) =   0
                l(3) =   1
                l(4) =   1
     Q(r) pseudized with 0 coefficients 


     PseudoPot. # 5 for H  read from file:
     /home/549/hxw549/Short/pseudopotentials/H.pbe-van_ak.UPF
     MD5 check sum: 077eb6d537518a38cb46c6de387227b7
     Pseudo is Ultrasoft, Zval =  1.0
     Generated by new atomic code, or converted to UPF format
     Using radial grid of  615 points,  1 beta functions with: 
                l(1) =   0
     Q(r) pseudized with  8 coefficients,  rinner =    0.800

     atomic species   valence    mass     pseudopotential
        Cu            11.00    63.54600     Cu( 1.00)
        C_h            5.00    12.01070     C ( 1.00)
        C              4.00    12.01070     C ( 1.00)
        O              6.00    15.99940     O ( 1.00)
        H              1.00     1.00783     H ( 1.00)

     No symmetry found



   Cartesian axes

     site n.     atom                  positions (alat units)
         1           Cu  tau(   1) = (   0.0000796  -0.0010194   0.9996711  )
         2           Cu  tau(   2) = (   0.2500655   0.2302525   0.9998070  )
         3           Cu  tau(   3) = (   0.5000782  -0.0009871   0.9997096  )
         4           Cu  tau(   4) = (   0.7500925   0.2302455   0.9998059  )
         5           Cu  tau(   5) = (   0.0000785   0.4612871   0.9997269  )
         6           Cu  tau(   6) = (   0.2500641   0.6920697   0.9993800  )
         7           Cu  tau(   7) = (   0.5000814   0.4612918   0.9996504  )
         8           Cu  tau(   8) = (   0.7500985   0.6920755   0.9993862  )
         9           Cu  tau(   9) = (   0.0000831   0.9226495   0.9992261  )
        10           Cu  tau(  10) = (   0.2501082   1.1530621   0.9994448  )
        11           Cu  tau(  11) = (   0.5000823   0.9225993   0.9992402  )
        12           Cu  tau(  12) = (   0.7500588   1.1530635   0.9994423  )
        13           Cu  tau(  13) = (   0.0000837   1.3835599   0.9997329  )
        14           Cu  tau(  14) = (   0.2500624   1.6144357   0.9998048  )
        15           Cu  tau(  15) = (   0.5000842   1.3836349   0.9997726  )
        16           Cu  tau(  16) = (   0.7501032   1.6144320   0.9998040  )
        17           Cu  tau(  17) = (   0.0000797   1.8456347   0.9996583  )
        18           Cu  tau(  18) = (   0.2500996   2.0770019   0.9995635  )
        19           Cu  tau(  19) = (   0.5000828   1.8455838   0.9996249  )
        20           Cu  tau(  20) = (   0.7500601   2.0770024   0.9995695  )
        21           Cu  tau(  21) = (   0.0000762   0.2300880   1.2478020  )
        22           Cu  tau(  22) = (   0.2500749  -0.0011159   1.2475204  )
        23           Cu  tau(  23) = (   0.5000774   0.2302010   1.2477392  )
        24           Cu  tau(  24) = (   0.7500776  -0.0011076   1.2475295  )
        25           Cu  tau(  25) = (   0.0000791   0.6922011   1.2480278  )
        26           Cu  tau(  26) = (   0.2500708   0.4613499   1.2479295  )
        27           Cu  tau(  27) = (   0.5000781   0.6921136   1.2479976  )
        28           Cu  tau(  28) = (   0.7500843   0.4613461   1.2479221  )
        29           Cu  tau(  29) = (   0.0000792   1.1528664   1.2482450  )
        30           Cu  tau(  30) = (   0.2500767   0.9225201   1.2481436  )
        31           Cu  tau(  31) = (   0.5000811   1.1528467   1.2482331  )
        32           Cu  tau(  32) = (   0.7500827   0.9225211   1.2481488  )
        33           Cu  tau(  33) = (   0.0000796   1.6146638   1.2478472  )
        34           Cu  tau(  34) = (   0.2500780   1.3835920   1.2481526  )
        35           Cu  tau(  35) = (   0.5000826   1.6147432   1.2478907  )
        36           Cu  tau(  36) = (   0.7500845   1.3835882   1.2481608  )
        37           Cu  tau(  37) = (   0.0000753   2.0771625   1.2473394  )
        38           Cu  tau(  38) = (   0.2500797   1.8459518   1.2474804  )
        39           Cu  tau(  39) = (   0.5000788   2.0770921   1.2473374  )
        40           Cu  tau(  40) = (   0.7500786   1.8459481   1.2474855  )
        41           Cu  tau(  41) = (   0.0000736  -0.0014157   1.4968003  )
        42           Cu  tau(  42) = (   0.2501054   0.2298053   1.4967075  )
        43           Cu  tau(  43) = (   0.5000753  -0.0013072   1.4965172  )
        44           Cu  tau(  44) = (   0.7500440   0.2298195   1.4967296  )
        45           Cu  tau(  45) = (   0.0000715   0.4610974   1.4969703  )
        46           Cu  tau(  46) = (   0.2500888   0.6919294   1.4977424  )
        47           Cu  tau(  47) = (   0.5000768   0.4610199   1.4971307  )
        48           Cu  tau(  48) = (   0.7500576   0.6919217   1.4977398  )
        49           Cu  tau(  49) = (   0.0000730   0.9224488   1.4981802  )
        50           Cu  tau(  50) = (   0.2499887   1.1529644   1.4978341  )
        51           Cu  tau(  51) = (   0.5000709   0.9223233   1.4980553  )
        52           Cu  tau(  52) = (   0.7501545   1.1529594   1.4978490  )
        53           Cu  tau(  53) = (   0.0000770   1.3839580   1.4973583  )
        54           Cu  tau(  54) = (   0.2500530   1.6153014   1.4967700  )
        55           Cu  tau(  55) = (   0.5000690   1.3839959   1.4971714  )
        56           Cu  tau(  56) = (   0.7500984   1.6153015   1.4967707  )
        57           Cu  tau(  57) = (   0.0000733   1.8464668   1.4964703  )
        58           Cu  tau(  58) = (   0.2500842   2.0772456   1.4966335  )
        59           Cu  tau(  59) = (   0.5000792   1.8465124   1.4966717  )
        60           Cu  tau(  60) = (   0.7500644   2.0772510   1.4966332  )
        61           Cu  tau(  61) = (   0.0000638   0.2297751   1.7451486  )
        62           Cu  tau(  62) = (   0.2501701  -0.0014366   1.7457736  )
        63           Cu  tau(  63) = (   0.5000844   0.2291468   1.7456708  )
        64           Cu  tau(  64) = (   0.7499824  -0.0014424   1.7457830  )
        65           Cu  tau(  65) = (   0.0000602   0.6911029   1.7467899  )
        66           Cu  tau(  66) = (   0.2504221   0.4603267   1.7458317  )
        67           Cu  tau(  67) = (   0.5000727   0.6914519   1.7472561  )
        68           Cu  tau(  68) = (   0.7497202   0.4603534   1.7458865  )
        69           Cu  tau(  69) = (   0.0000719   1.1535755   1.7474669  )
        70           Cu  tau(  70) = (   0.2500072   0.9224186   1.7476215  )
        71           Cu  tau(  71) = (   0.5000490   1.1535692   1.7465697  )
        72           Cu  tau(  72) = (   0.7501153   0.9223864   1.7476191  )
        73           Cu  tau(  73) = (   0.0000638   1.6160732   1.7455026  )
        74           Cu  tau(  74) = (   0.2497330   1.3847176   1.7458671  )
        75           Cu  tau(  75) = (   0.5000631   1.6156467   1.7451393  )
        76           Cu  tau(  76) = (   0.7503862   1.3847369   1.7458435  )
        77           Cu  tau(  77) = (   0.0000770   2.0769447   1.7462625  )
        78           Cu  tau(  78) = (   0.2499949   1.8466574   1.7457450  )
        79           Cu  tau(  79) = (   0.5000721   2.0775977   1.7461689  )
        80           Cu  tau(  80) = (   0.7501471   1.8466631   1.7457456  )
        81           Cu  tau(  81) = (   0.0000732  -0.0004834   1.9909889  )
        82           Cu  tau(  82) = (   0.2501819   0.2294912   1.9912558  )
        83           Cu  tau(  83) = (   0.5000861  -0.0013523   1.9930947  )
        84           Cu  tau(  84) = (   0.7499715   0.2294701   1.9913129  )
        85           Cu  tau(  85) = (   0.0000570   0.4600464   1.9913092  )
        86           Cu  tau(  86) = (   0.2514505   0.6901905   1.9922810  )
        87           Cu  tau(  87) = (   0.5000863   0.4587665   1.9928792  )
        88           Cu  tau(  88) = (   0.7486661   0.6902270   1.9924293  )
        89           Cu  tau(  89) = (   0.0000432   0.9207000   1.9928486  )
        90           Cu  tau(  90) = (   0.2487672   1.1547418   1.9923022  )
        91           Cu  tau(  91) = (   0.5000624   0.9240642   1.9932645  )
        92           Cu  tau(  92) = (   0.7513422   1.1547327   1.9922105  )
        93           Cu  tau(  93) = (   0.0000302   1.3866843   1.9926055  )
        94           Cu  tau(  94) = (   0.2503901   1.6157236   1.9912853  )
        95           Cu  tau(  95) = (   0.5000722   1.3850823   1.9909882  )
        96           Cu  tau(  96) = (   0.7497148   1.6157477   1.9912993  )
        97           Cu  tau(  97) = (   0.0000745   1.8457983   1.9931296  )
        98           Cu  tau(  98) = (   0.2496101   2.0772360   1.9921726  )
        99           Cu  tau(  99) = (   0.5000544   1.8462656   1.9910722  )
       100           Cu  tau( 100) = (   0.7505374   2.0772188   1.9921776  )
       101           C   tau( 101) = (   0.0003514   0.0996206   2.3875980  )
       102           C   tau( 102) = (   0.0003701   0.2920050   2.3890198  )
       103           C   tau( 103) = (   0.1669612   0.0033417   2.3866707  )
       104           C   tau( 104) = (   0.1668783   0.3881831   2.3878569  )
       105           C   tau( 105) = (   0.3334610   0.0995345   2.3840961  )
       106           C   tau( 106) = (   0.3334624   0.2919976   2.3846407  )
       107           C   tau( 107) = (   0.5003433   0.0032210   2.3815949  )
       108           C   tau( 108) = (   0.5003848   0.3882447   2.3835900  )
       109           C   tau( 109) = (   0.6672318   0.0995321   2.3842977  )
       110           C   tau( 110) = (   0.6672623   0.2919796   2.3848652  )
       111           C   tau( 111) = (   0.8337338   0.0033419   2.3867885  )
       112           C   tau( 112) = (   0.8338733   0.3881847   2.3880842  )
       113           C   tau( 113) = (   0.0003755   0.6768170   2.3872017  )
       114           C   tau( 114) = (   0.0003705   0.8692143   2.3829758  )
       115           C   tau( 115) = (   0.1668213   0.5806199   2.3868163  )
       116           C   tau( 116) = (   0.1671458   0.9654808   2.3827998  )
       117           C   tau( 117) = (   0.3336031   0.6768600   2.3840505  )
       118           C   tau( 118) = (   0.3335861   0.8693009   2.3828900  )
       119           C   tau( 119) = (   0.5003895   0.5806735   2.3843175  )
       120           C   tau( 120) = (   0.5004091   0.9655913   2.3819279  )
       121           C   tau( 121) = (   0.6671518   0.6768504   2.3841477  )
       122           C   tau( 122) = (   0.6671644   0.8692819   2.3832393  )
       123           C   tau( 123) = (   0.8339022   0.5806086   2.3869446  )
       124           C   tau( 124) = (   0.8336023   0.9654704   2.3831168  )
       125           C   tau( 125) = (   0.0004181   1.2541496   2.3826128  )
       126           C   tau( 126) = (   0.0003993   1.4466513   2.3825401  )
       127           C   tau( 127) = (   0.1671589   1.1579558   2.3821526  )
       128           C   tau( 128) = (   0.1673137   1.5428735   2.3850149  )
       129           C   tau( 129) = (   0.3339620   1.2542045   2.3853071  )
       130           C   tau( 130) = (   0.3338989   1.4466168   2.3880294  )
       131           C   tau( 131) = (   0.5004018   1.1580276   2.3849937  )
       132           C   tau( 132) = (   0.5004021   1.5428398   2.3904590  )
       133           C   tau( 133) = (   0.6668434   1.2542120   2.3856468  )
       134           C   tau( 134) = (   0.6668966   1.4466375   2.3882526  )
       135           C   tau( 135) = (   0.8336471   1.1579389   2.3824963  )
       136           C   tau( 136) = (   0.8335007   1.5428799   2.3852986  )
       137           C   tau( 137) = (   0.0003615   1.8316508   2.3835264  )
       138           C   tau( 138) = (   0.0003333   2.0241360   2.3864695  )
       139           C   tau( 139) = (   0.1672436   1.7353275   2.3855411  )
       140           C   tau( 140) = (   0.1669289   2.1203047   2.3860356  )
       141           C   tau( 141) = (   0.3337845   1.8314735   2.3877347  )
       142           C   tau( 142) = (   0.3337475   2.0239656   2.3853679  )
       143           C   tau( 143) = (   0.5003620   1.7352461   2.3894686  )
       144           C   tau( 144) = (   0.5003277   2.1201495   2.3841265  )
       145           C   tau( 145) = (   0.6669386   1.8314724   2.3878035  )
       146           C   tau( 146) = (   0.6669171   2.0239714   2.3854075  )
       147           C   tau( 147) = (   0.8334847   1.7353460   2.3856745  )
       148           C   tau( 148) = (   0.8337301   2.1203065   2.3860703  )
       149           C_h tau( 149) = (   0.4817526   0.9548742   2.8970998  )
       150           O   tau( 150) = (   0.3804061   1.0742193   2.8969171  )

     number of k points=     6  gaussian smearing, width (Ry)=  0.1000
                       cart. coord. in units 2pi/alat
        k(    1) = (   0.0000000   0.0000000   0.0000000), wk =   0.2500000
        k(    2) = (   0.0000000  -0.2165064   0.0000000), wk =   0.2500000
        k(    3) = (   0.2500000   0.0000000   0.0000000), wk =   0.5000000
        k(    4) = (   0.2500000  -0.2165064   0.0000000), wk =   0.5000000
        k(    5) = (  -0.5000000   0.0000000   0.0000000), wk =   0.2500000
        k(    6) = (  -0.5000000  -0.2165064   0.0000000), wk =   0.2500000

     Dense  grid:  2050409 G-vectors     FFT dimensions: (  80, 192, 270)

     Largest allocated arrays     est. size (Mb)     dimensions
        Kohn-Sham Wavefunctions       109.29 Mb     (    9171,  781)
        NL pseudopotentials           259.87 Mb     (    9171, 1857)
        Each V/rho on FFT grid          2.34 Mb     (  153600)
        Each G-vector array             0.56 Mb     (   73230)
        G-vector shells                 0.27 Mb     (   35784)
     Largest temporary arrays     est. size (Mb)     dimensions
        Auxiliary wavefunctions       437.17 Mb     (    9171, 3124)
        Each subspace H/S matrix       16.54 Mb     (    1041, 1041)
        Each <psi_i|beta_j> matrix     22.13 Mb     (    1857,  781)
        Arrays for rho mixing          18.75 Mb     (  153600,    8)

     Initial potential from superposition of free atoms
     Check: negative starting charge=   -0.001580

     starting charge 1276.31751, renormalised to 1302.00000

     negative rho (up, down):  1.612E-03 0.000E+00
     Starting wfc are 1296 randomized atomic wfcs

     total cpu time spent up to now is      206.3 secs

     Self-consistent Calculation

     iteration #  1     ecut=    80.00 Ry     beta=0.70
     Davidson diagonalization with overlap
     ethr =  1.00E-04,  avg # of iterations = 21.5

     negative rho (up, down):  2.989E+01 0.000E+00

     total cpu time spent up to now is     3949.4 secs

     total energy              =   -9481.27327299 Ry
     Harris-Foulkes estimate   =  -17437.45675759 Ry
     estimated scf accuracy    <  185047.04941142 Ry

     iteration #  2     ecut=    80.00 Ry     beta=0.70
     Davidson diagonalization with overlap
     ethr =  1.00E-02,  avg # of iterations = 15.7

     negative rho (up, down):  3.351E+01 0.000E+00

     total cpu time spent up to now is     5910.9 secs

     total energy              =  -12059.73786340 Ry
     Harris-Foulkes estimate   =  -13783.13274256 Ry
     estimated scf accuracy    <   28106.24361620 Ry

     iteration #  3     ecut=    80.00 Ry     beta=0.70
     Davidson diagonalization with overlap
     ethr =  1.00E-02,  avg # of iterations =  7.8

     negative rho (up, down):  3.318E+01 0.000E+00

     total cpu time spent up to now is     7041.0 secs

     total energy              =  -12467.62710893 Ry
     Harris-Foulkes estimate   =  -13521.23653323 Ry
     estimated scf accuracy    <    6153.68851668 Ry

     iteration #  4     ecut=    80.00 Ry     beta=0.70
     Davidson diagonalization with overlap
     ethr =  1.00E-02,  avg # of iterations =  5.5

     negative rho (up, down):  2.125E+01 0.000E+00

     total cpu time spent up to now is     8160.2 secs

     total energy              =  -12897.65932298 Ry
     Harris-Foulkes estimate   =  -13133.11281026 Ry
     estimated scf accuracy    <    1150.18582035 Ry

     iteration #  5     ecut=    80.00 Ry     beta=0.70
     Davidson diagonalization with overlap
     ethr =  1.00E-02,  avg # of iterations =  2.7

     negative rho (up, down):  1.811E+01 0.000E+00

     total cpu time spent up to now is     8695.7 secs

     total energy              =  -12892.65579269 Ry
     Harris-Foulkes estimate   =  -12970.13833535 Ry
     estimated scf accuracy    <    1598.21939263 Ry

     iteration #  6     ecut=    80.00 Ry     beta=0.70
     Davidson diagonalization with overlap
     ethr =  1.00E-02,  avg # of iterations =  2.0

     negative rho (up, down):  1.179E+01 0.000E+00

     total cpu time spent up to now is     9047.9 secs

     total energy              =  -12860.10537754 Ry
     Harris-Foulkes estimate   =  -12935.73501797 Ry
     estimated scf accuracy    <     586.83267955 Ry

     iteration #  7     ecut=    80.00 Ry     beta=0.70
     Davidson diagonalization with overlap
     ethr =  1.00E-02,  avg # of iterations =  2.5

     negative rho (up, down):  8.358E+00 0.000E+00

     total cpu time spent up to now is     9430.3 secs

     total energy              =  -12839.74494676 Ry
     Harris-Foulkes estimate   =  -12884.22797551 Ry
     estimated scf accuracy    <     546.03306117 Ry

     iteration #  8     ecut=    80.00 Ry     beta=0.70
     Davidson diagonalization with overlap
     ethr =  1.00E-02,  avg # of iterations =  2.3

     negative rho (up, down):  6.930E+00 0.000E+00

     total cpu time spent up to now is     9791.1 secs

     total energy              =  -12832.14444084 Ry
     Harris-Foulkes estimate   =  -12855.08289568 Ry
     estimated scf accuracy    <     253.98418187 Ry

     iteration #  9     ecut=    80.00 Ry     beta=0.70
     Davidson diagonalization with overlap
     ethr =  1.00E-02,  avg # of iterations =  1.7

     negative rho (up, down):  4.286E+00 0.000E+00

     total cpu time spent up to now is    10134.7 secs

     total energy              =  -12806.19612234 Ry
     Harris-Foulkes estimate   =  -12836.08356178 Ry
     estimated scf accuracy    <     243.23443411 Ry

     iteration # 10     ecut=    80.00 Ry     beta=0.70
     Davidson diagonalization with overlap
     ethr =  1.00E-02,  avg # of iterations =  1.0

     negative rho (up, down):  8.232E-01 0.000E+00

     total cpu time spent up to now is    10463.8 secs

     total energy              =  -12769.74548004 Ry
     Harris-Foulkes estimate   =  -12810.71257139 Ry
     estimated scf accuracy    <     165.64165902 Ry

     iteration # 11     ecut=    80.00 Ry     beta=0.70
     Davidson diagonalization with overlap
     ethr =  1.00E-02,  avg # of iterations =  2.7

     negative rho (up, down):  9.409E-01 0.000E+00

     total cpu time spent up to now is    10834.0 secs

     total energy              =  -12766.35064347 Ry
     Harris-Foulkes estimate   =  -12779.91751939 Ry
     estimated scf accuracy    <     361.12644543 Ry

     iteration # 12     ecut=    80.00 Ry     beta=0.70
     Davidson diagonalization with overlap
     ethr =  1.00E-02,  avg # of iterations =  1.2

     negative rho (up, down):  1.060E+00 0.000E+00

     total cpu time spent up to now is    11168.4 secs

     total energy              =  -12758.23372059 Ry
     Harris-Foulkes estimate   =  -12772.79755492 Ry
     estimated scf accuracy    <     125.13526325 Ry

     iteration # 13     ecut=    80.00 Ry     beta=0.70
     Davidson diagonalization with overlap
     ethr =  9.61E-03,  avg # of iterations =  2.5

     negative rho (up, down):  3.882E+00 0.000E+00

     total cpu time spent up to now is    11533.1 secs

     total energy              =  -12758.95457682 Ry
     Harris-Foulkes estimate   =  -12767.44769291 Ry
     estimated scf accuracy    <      51.71459408 Ry

     iteration # 14     ecut=    80.00 Ry     beta=0.70
     Davidson diagonalization with overlap
     ethr =  3.97E-03,  avg # of iterations =  4.2

     negative rho (up, down):  5.232E+00 0.000E+00

     total cpu time spent up to now is    11939.6 secs

     total energy              =  -12757.31257621 Ry
     Harris-Foulkes estimate   =  -12761.11047005 Ry
     estimated scf accuracy    <      35.70137359 Ry

     iteration # 15     ecut=    80.00 Ry     beta=0.70
     Davidson diagonalization with overlap
     ethr =  2.74E-03,  avg # of iterations =  5.3

     negative rho (up, down):  4.069E+00 0.000E+00

     total cpu time spent up to now is    12360.3 secs

     total energy              =  -12755.37957276 Ry
     Harris-Foulkes estimate   =  -12758.44767114 Ry
     estimated scf accuracy    <      20.60248229 Ry

     iteration # 16     ecut=    80.00 Ry     beta=0.70
     Davidson diagonalization with overlap
     ethr =  1.58E-03,  avg # of iterations =  7.2

     negative rho (up, down):  3.591E+00 0.000E+00

     total cpu time spent up to now is    12829.2 secs

     total energy              =  -12755.21399222 Ry
     Harris-Foulkes estimate   =  -12756.12937317 Ry
     estimated scf accuracy    <      12.09411822 Ry

     iteration # 17     ecut=    80.00 Ry     beta=0.70
     Davidson diagonalization with overlap
     ethr =  9.29E-04,  avg # of iterations =  5.3

     negative rho (up, down):  3.053E+00 0.000E+00

     total cpu time spent up to now is    13256.5 secs

     total energy              =  -12753.69990173 Ry
     Harris-Foulkes estimate   =  -12755.44858903 Ry
     estimated scf accuracy    <       8.89896486 Ry

     iteration # 18     ecut=    80.00 Ry     beta=0.70
     Davidson diagonalization with overlap
     ethr =  6.83E-04,  avg # of iterations =  6.7

     negative rho (up, down):  2.251E+00 0.000E+00

     total cpu time spent up to now is    13724.6 secs

     total energy              =  -12753.00324208 Ry
     Harris-Foulkes estimate   =  -12754.08354315 Ry
     estimated scf accuracy    <       7.37075835 Ry

     iteration # 19     ecut=    80.00 Ry     beta=0.70
     Davidson diagonalization with overlap
     ethr =  5.66E-04,  avg # of iterations =  1.8

     negative rho (up, down):  1.302E+00 0.000E+00

     total cpu time spent up to now is    14072.9 secs

     total energy              =  -12751.69445906 Ry
     Harris-Foulkes estimate   =  -12753.21228688 Ry
     estimated scf accuracy    <       6.29867745 Ry

     iteration # 20     ecut=    80.00 Ry     beta=0.70
     Davidson diagonalization with overlap
     ethr =  4.84E-04,  avg # of iterations =  5.0

     negative rho (up, down):  9.522E-01 0.000E+00

     total cpu time spent up to now is    14493.3 secs

     total energy              =  -12751.78129030 Ry
     Harris-Foulkes estimate   =  -12751.90014390 Ry
     estimated scf accuracy    <       4.54498361 Ry

     iteration # 21     ecut=    80.00 Ry     beta=0.70
     Davidson diagonalization with overlap
     ethr =  3.49E-04,  avg # of iterations = 13.7

     negative rho (up, down):  3.081E-01 0.000E+00

     total cpu time spent up to now is    15104.0 secs

     total energy              =  -12751.04843140 Ry
     Harris-Foulkes estimate   =  -12752.32175852 Ry
     estimated scf accuracy    <       4.35501646 Ry

     iteration # 22     ecut=    80.00 Ry     beta=0.70
     Davidson diagonalization with overlap
     ethr =  3.34E-04,  avg # of iterations =  5.3

     negative rho (up, down):  4.301E-01 0.000E+00

     total cpu time spent up to now is    15531.9 secs

     total energy              =  -12750.70258354 Ry
     Harris-Foulkes estimate   =  -12751.11825548 Ry
     estimated scf accuracy    <       2.81509901 Ry

     iteration # 23     ecut=    80.00 Ry     beta=0.70
     Davidson diagonalization with overlap
     ethr =  2.16E-04,  avg # of iterations =  4.0

     negative rho (up, down):  5.042E-01 0.000E+00

     total cpu time spent up to now is    15930.7 secs

     total energy              =  -12750.31989872 Ry
     Harris-Foulkes estimate   =  -12750.75785096 Ry
     estimated scf accuracy    <       2.89148048 Ry

     iteration # 24     ecut=    80.00 Ry     beta=0.70
     Davidson diagonalization with overlap
     ethr =  2.16E-04,  avg # of iterations =  6.7

     negative rho (up, down):  7.420E-01 0.000E+00

     total cpu time spent up to now is    16388.2 secs

     total energy              =  -12750.24847842 Ry
     Harris-Foulkes estimate   =  -12750.47425434 Ry
     estimated scf accuracy    <       1.12034448 Ry

     iteration # 25     ecut=    80.00 Ry     beta=0.70
     Davidson diagonalization with overlap
     ethr =  8.60E-05,  avg # of iterations =  7.7

     negative rho (up, down):  6.303E-01 0.000E+00

     total cpu time spent up to now is    16913.0 secs

     total energy              =  -12750.22283255 Ry
     Harris-Foulkes estimate   =  -12750.40289789 Ry
     estimated scf accuracy    <       1.56772594 Ry

     iteration # 26     ecut=    80.00 Ry     beta=0.70
     Davidson diagonalization with overlap
     ethr =  8.60E-05,  avg # of iterations =  6.8

     negative rho (up, down):  4.294E-01 0.000E+00

     total cpu time spent up to now is    17379.4 secs

     total energy              =  -12750.26365613 Ry
     Harris-Foulkes estimate   =  -12750.32120351 Ry
     estimated scf accuracy    <       0.38146982 Ry

     iteration # 27     ecut=    80.00 Ry     beta=0.70
     Davidson diagonalization with overlap
     ethr =  2.93E-05,  avg # of iterations =  7.2

     negative rho (up, down):  2.582E-01 0.000E+00

     total cpu time spent up to now is    17858.4 secs

     total energy              =  -12750.25437636 Ry
     Harris-Foulkes estimate   =  -12750.27861634 Ry
     estimated scf accuracy    <       0.26579505 Ry

     iteration # 28     ecut=    80.00 Ry     beta=0.70
     Davidson diagonalization with overlap
     ethr =  2.04E-05,  avg # of iterations =  7.7

     negative rho (up, down):  2.281E-01 0.000E+00

     total cpu time spent up to now is    18352.6 secs

     total energy              =  -12750.24618298 Ry
     Harris-Foulkes estimate   =  -12750.26229750 Ry
     estimated scf accuracy    <       0.16747203 Ry

     iteration # 29     ecut=    80.00 Ry     beta=0.70
     Davidson diagonalization with overlap
     ethr =  1.29E-05,  avg # of iterations =  6.7

     negative rho (up, down):  1.731E-01 0.000E+00

     total cpu time spent up to now is    18817.5 secs

     total energy              =  -12750.25238874 Ry
     Harris-Foulkes estimate   =  -12750.25888203 Ry
     estimated scf accuracy    <       0.03186770 Ry

     iteration # 30     ecut=    80.00 Ry     beta=0.70
     Davidson diagonalization with overlap
     ethr =  2.45E-06,  avg # of iterations =  7.7

     negative rho (up, down):  1.138E-01 0.000E+00

     total cpu time spent up to now is    19312.4 secs

     total energy              =  -12750.25221299 Ry
     Harris-Foulkes estimate   =  -12750.25534386 Ry
     estimated scf accuracy    <       0.01067927 Ry

     iteration # 31     ecut=    80.00 Ry     beta=0.70
     Davidson diagonalization with overlap
     c_bands:  1 eigenvalues not converged
     ethr =  8.20E-07,  avg # of iterations = 10.3

     negative rho (up, down):  3.344E-02 0.000E+00

     total cpu time spent up to now is    19872.3 secs

     total energy              =  -12750.25043703 Ry
     Harris-Foulkes estimate   =  -12750.25299323 Ry
     estimated scf accuracy    <       0.00344728 Ry

     iteration # 32     ecut=    80.00 Ry     beta=0.70
     Davidson diagonalization with overlap
     c_bands:  1 eigenvalues not converged
     c_bands:  2 eigenvalues not converged
     ethr =  2.65E-07,  avg # of iterations = 17.3

     negative rho (up, down):  1.093E-02 0.000E+00

     total cpu time spent up to now is    20637.7 secs

     total energy              =  -12750.25037703 Ry
     Harris-Foulkes estimate   =  -12750.25068241 Ry
     estimated scf accuracy    <       0.00145646 Ry

     iteration # 33     ecut=    80.00 Ry     beta=0.70
     Davidson diagonalization with overlap
     ethr =  1.12E-07,  avg # of iterations =  9.2

     negative rho (up, down):  2.785E-03 0.000E+00

     total cpu time spent up to now is    21176.0 secs

     total energy              =  -12750.25039813 Ry
     Harris-Foulkes estimate   =  -12750.25043235 Ry
     estimated scf accuracy    <       0.00046235 Ry

     iteration # 34     ecut=    80.00 Ry     beta=0.70
     Davidson diagonalization with overlap
     ethr =  3.55E-08,  avg # of iterations =  6.3

     negative rho (up, down):  1.984E-03 0.000E+00

     total cpu time spent up to now is    21643.0 secs

     total energy              =  -12750.25064512 Ry
     Harris-Foulkes estimate   =  -12750.25042216 Ry
     estimated scf accuracy    <       0.00026198 Ry

     iteration # 35     ecut=    80.00 Ry     beta=0.70
     Davidson diagonalization with overlap
     ethr =  2.01E-08,  avg # of iterations =  9.3

     negative rho (up, down):  2.632E-03 0.000E+00

     total cpu time spent up to now is    22196.6 secs

     total energy              =  -12750.25073795 Ry
     Harris-Foulkes estimate   =  -12750.25066999 Ry
     estimated scf accuracy    <       0.00007233 Ry

     iteration # 36     ecut=    80.00 Ry     beta=0.70
     Davidson diagonalization with overlap
     c_bands:  1 eigenvalues not converged
     ethr =  5.56E-09,  avg # of iterations =  7.7

     negative rho (up, down):  2.732E-03 0.000E+00

     total cpu time spent up to now is    22695.3 secs

     total energy              =  -12750.25075417 Ry
     Harris-Foulkes estimate   =  -12750.25074354 Ry
     estimated scf accuracy    <       0.00003417 Ry

     iteration # 37     ecut=    80.00 Ry     beta=0.70
     Davidson diagonalization with overlap
     ethr =  2.62E-09,  avg # of iterations =  3.5

     negative rho (up, down):  2.006E-03 0.000E+00

     total cpu time spent up to now is    23098.4 secs

     total energy              =  -12750.25075196 Ry
     Harris-Foulkes estimate   =  -12750.25075568 Ry
     estimated scf accuracy    <       0.00000534 Ry

     iteration # 38     ecut=    80.00 Ry     beta=0.70
     Davidson diagonalization with overlap
     c_bands:  1 eigenvalues not converged
     ethr =  4.10E-10,  avg # of iterations =  6.7

     negative rho (up, down):  2.001E-03 0.000E+00

     total cpu time spent up to now is    23604.0 secs

     total energy              =  -12750.25075246 Ry
     Harris-Foulkes estimate   =  -12750.25075275 Ry
     estimated scf accuracy    <       0.00000351 Ry

     iteration # 39     ecut=    80.00 Ry     beta=0.70
     Davidson diagonalization with overlap
     ethr =  2.70E-10,  avg # of iterations =  2.2

     negative rho (up, down):  1.813E-03 0.000E+00

     total cpu time spent up to now is    23975.4 secs

     total energy              =  -12750.25075217 Ry
     Harris-Foulkes estimate   =  -12750.25075283 Ry
     estimated scf accuracy    <       0.00000155 Ry

     iteration # 40     ecut=    80.00 Ry     beta=0.70
     Davidson diagonalization with overlap
     ethr =  1.19E-10,  avg # of iterations =  3.0

     negative rho (up, down):  1.793E-03 0.000E+00

     total cpu time spent up to now is    24372.7 secs

     total energy              =  -12750.25075242 Ry
     Harris-Foulkes estimate   =  -12750.25075231 Ry
     estimated scf accuracy    <       0.00000051 Ry

     iteration # 41     ecut=    80.00 Ry     beta=0.70
     Davidson diagonalization with overlap
     ethr =  3.93E-11,  avg # of iterations =  2.5

     negative rho (up, down):  1.775E-03 0.000E+00

     total cpu time spent up to now is    24743.8 secs

     total energy              =  -12750.25075256 Ry
     Harris-Foulkes estimate   =  -12750.25075245 Ry
     estimated scf accuracy    <       0.00000023 Ry

     iteration # 42     ecut=    80.00 Ry     beta=0.70
     Davidson diagonalization with overlap
     ethr =  1.80E-11,  avg # of iterations =  3.0

     negative rho (up, down):  1.788E-03 0.000E+00

     total cpu time spent up to now is    25134.3 secs

     total energy              =  -12750.25075258 Ry
     Harris-Foulkes estimate   =  -12750.25075257 Ry
     estimated scf accuracy    <       0.00000004 Ry

     iteration # 43     ecut=    80.00 Ry     beta=0.70
     Davidson diagonalization with overlap
     ethr =  2.99E-12,  avg # of iterations =  3.0

     negative rho (up, down):  1.776E-03 0.000E+00

     total cpu time spent up to now is    25539.5 secs

     total energy              =  -12750.25075260 Ry
     Harris-Foulkes estimate   =  -12750.25075259 Ry
     estimated scf accuracy    <       0.00000001 Ry

     iteration # 44     ecut=    80.00 Ry     beta=0.70
     Davidson diagonalization with overlap
     ethr =  7.97E-13,  avg # of iterations =  3.0

     negative rho (up, down):  1.762E-03 0.000E+00

     total cpu time spent up to now is    25937.7 secs

     End of self-consistent calculation

          k = 0.0000 0.0000 0.0000 (256287 PWs)   bands (ev):

   -22.7649 -16.3350 -15.9652 -15.9603 -14.8570 -14.8562 -14.3722 -14.3704
   -14.0116 -14.0104 -14.0074 -14.0052 -13.0576 -13.0552 -12.9409 -12.9403
   -12.9393 -12.9383 -11.2475 -11.2461 -11.2453 -11.2437 -11.0377 -10.0426
    -9.3609  -9.3601  -9.3583  -9.3579  -8.4836  -8.4815  -8.4808  -8.4775
    -7.4922  -7.4898  -7.4174  -7.4166  -7.4149  -7.4136  -7.4007  -7.4003
    -7.2589  -6.0111  -5.8616  -5.8592  -5.8578  -5.8551  -5.6976  -5.6967
    -5.6961  -5.6952  -5.4780  -5.4755  -5.0747  -4.6671  -4.6346  -4.5800
    -4.5791  -4.5486  -4.5473  -4.5431  -4.2188  -4.2183  -4.0920  -4.0906
    -3.9801  -3.9800  -3.4077  -3.4064  -3.4057  -3.4050  -3.3995  -3.3988
    -3.2584  -3.2447  -3.2431  -3.2115  -3.2106  -3.1621  -3.0009  -3.0003
    -2.9985  -2.9980  -2.8960  -2.8928  -2.8245  -2.7979  -2.7830  -2.7234
    -2.7171  -2.6547  -2.6532  -2.5896  -2.5886  -2.5880  -2.5866  -2.3545
    -2.3541  -2.3519  -2.3514  -2.2908  -2.2900  -2.1845  -2.1844  -2.1449
    -2.1447  -2.1443  -2.1441  -2.0231  -2.0221  -2.0157  -2.0157  -2.0124
    -2.0124  -2.0114  -2.0112  -1.9430  -1.8832  -1.8826  -1.8296  -1.7683
    -1.7284  -1.7282  -1.7276  -1.7274  -1.6734  -1.6732  -1.6629  -1.6501
    -1.6478  -1.5869  -1.5785  -1.5541  -1.5535  -1.5519  -1.5501  -1.5174
    -1.5171  -1.5161  -1.5158  -1.5069  -1.5050  -1.4248  -1.4242  -1.4049
    -1.3604  -1.3589  -1.3587  -1.3571  -1.3431  -1.2892  -1.2531  -1.2514
    -1.2418  -1.2342  -1.2298  -1.2021  -1.2013  -1.1823  -1.1798  -1.1574
    -1.1540  -1.1075  -1.1009  -1.0819  -1.0817  -1.0805  -1.0795  -1.0371
    -1.0341  -1.0217  -1.0132  -1.0124  -1.0109  -1.0107  -1.0094  -1.0090
    -1.0048  -1.0046  -0.9862  -0.9493  -0.9479  -0.9409  -0.9154  -0.9147
    -0.9120  -0.9069  -0.9064  -0.9054  -0.8478  -0.8465  -0.8455  -0.8454
    -0.8442  -0.8434  -0.8426  -0.8401  -0.8394  -0.8386  -0.8385  -0.8361
    -0.8337  -0.8325  -0.8325  -0.8155  -0.8154  -0.7747  -0.7638  -0.7626
    -0.7603  -0.7594  -0.6790  -0.6790  -0.6744  -0.6741  -0.6466  -0.6455
    -0.6312  -0.6311  -0.6074  -0.6073  -0.5918  -0.5914  -0.5907  -0.5902
    -0.5734  -0.5716  -0.5677  -0.5531  -0.5528  -0.5506  -0.5501  -0.5417
    -0.5409  -0.5289  -0.5283  -0.4811  -0.4810  -0.4280  -0.4278  -0.4158
    -0.4141  -0.4135  -0.4124  -0.3964  -0.3963  -0.3927  -0.3927  -0.3923
    -0.3923  -0.3894  -0.3893  -0.3737  -0.3736  -0.3586  -0.3584  -0.3581
    -0.3579  -0.3416  -0.3409  -0.2882  -0.2857  -0.2853  -0.2787  -0.2785
    -0.2517  -0.2516  -0.2507  -0.2506  -0.2332  -0.2329  -0.2317  -0.2316
    -0.2306  -0.2065  -0.2061  -0.2053  -0.2047  -0.1999  -0.1997  -0.1990
    -0.1989  -0.1973  -0.1940  -0.1773  -0.1766  -0.1760  -0.1751  -0.1746
    -0.1556  -0.1069  -0.1068  -0.1045  -0.1043  -0.0980  -0.0554  -0.0549
    -0.0534  -0.0528  -0.0506  -0.0504  -0.0500  -0.0499  -0.0497  -0.0323
    -0.0313   0.0035   0.0045   0.0088   0.0092   0.0106   0.0351   0.0352
     0.0386   0.0388   0.0397   0.0432   0.0586   0.0593   0.0596   0.0598
     0.0610   0.0617   0.0769   0.0771   0.0774   0.0774   0.0898   0.0903
     0.0903   0.0912   0.1140   0.1150   0.1339   0.1364   0.1482   0.1494
     0.1806   0.1807   0.1824   0.1829   0.2067   0.2102   0.2495   0.2499
     0.2507   0.2515   0.2525   0.2558   0.2862   0.2884   0.2885   0.2893
     0.2899   0.2918   0.2989   0.3000   0.3375   0.3570   0.3571   0.3615
     0.3633   0.3634   0.3653   0.3654   0.3892   0.3989   0.3998   0.4000
     0.4002   0.4341   0.4365   0.4367   0.4376   0.4380   0.4531   0.4543
     0.4550   0.4557   0.4953   0.4955   0.5086   0.5092   0.5098   0.5114
     0.5117   0.5240   0.5411   0.5434   0.5461   0.5482   0.5491   0.5508
     0.5510   0.5511   0.5576   0.5603   0.5608   0.5695   0.5706   0.5708
     0.5718   0.5802   0.5803   0.6083   0.6218   0.6219   0.6309   0.6327
     0.6641   0.6645   0.6649   0.6652   0.6677   0.6678   0.6679   0.6680
     0.6791   0.6802   0.6905   0.6942   0.6946   0.6961   0.6987   0.7037
     0.7038   0.7154   0.7163   0.7243   0.7361   0.7364   0.7366   0.7370
     0.7476   0.7481   0.7594   0.7629   0.7649   0.7649   0.7687   0.7699
     0.7701   0.7727   0.7837   0.8136   0.8179   0.8203   0.8214   0.8216
     0.8280   0.8343   0.8352   0.8399   0.8401   0.8403   0.8412   0.8716
     0.8722   0.8878   0.8886   0.8919   0.8921   0.9066   0.9066   0.9153
     0.9166   0.9181   0.9187   0.9230   0.9380   0.9517   0.9542   0.9548
     0.9565   0.9570   0.9583   0.9765   0.9825   0.9917   1.0012   1.0012
     1.0105   1.0270   1.0275   1.0283   1.0286   1.0291   1.0342   1.0357
     1.0394   1.0395   1.0442   1.0451   1.0452   1.0455   1.0472   1.0552
     1.0607   1.0610   1.0798   1.0799   1.0827   1.0831   1.0886   1.0915
     1.1204   1.1215   1.1271   1.1283   1.1286   1.1293   1.1298   1.1300
     1.1361   1.1362   1.1365   1.1368   1.1395   1.1398   1.1524   1.1525
     1.1954   1.1987   1.2010   1.2029   1.2177   1.2201   1.2207   1.2215
     1.2244   1.2251   1.2379   1.2465   1.2475   1.2542   1.2561   1.2564
     1.2572   1.2613   1.2616   1.2624   1.2630   1.2634   1.2696   1.2904
     1.2916   1.2930   1.2937   1.2937   1.2940   1.2951   1.2956   1.3108
     1.3110   1.3118   1.3188   1.3268   1.3270   1.3280   1.3282   1.3316
     1.3371   1.3423   1.3438   1.3611   1.3696   1.3714   1.3727   1.3732
     1.3773   1.3827   1.3837   1.3895   1.3993   1.4021   1.4022   1.4065
     1.4092   1.4198   1.4330   1.4333   1.4404   1.4406   1.4519   1.4524
     1.4525   1.4527   1.4527   1.4536   1.4542   1.4546   1.4550   1.4565
     1.4656   1.4658   1.4666   1.4838   1.4841   1.4849   1.4851   1.4869
     1.4984   1.4990   1.5326   1.5339   1.5361   1.5370   1.5373   1.5753
     1.5759   1.5792   1.5798   1.5932   1.6003   1.6008   1.6029   1.6071
     1.6200   1.6467   1.6502   1.6508   1.6525   1.6528   1.6574   1.6607
     1.6609   1.9142   1.9723   2.1315   2.1316   2.1807   2.1826   2.2221
     2.2224   2.2227   2.2230   2.2439   2.2446   2.2448   2.2455   2.4260
     2.4260   2.4888   2.4891   2.4914   2.4916   2.5015   2.5024   2.7430
     2.7432   2.7445   2.7448   3.1191   3.1423   3.1438   3.1463   3.2132
     3.5539   3.5543   3.8419   3.8435   3.8724   3.8740   3.8743   3.8763
     3.9167   3.9739   3.9813   3.9823   4.0217   4.0231   4.0232   4.0238
     4.0256   4.0367   4.0456   4.0497   4.2786   4.2795   4.2837   4.2863
     4.4576   4.6242   4.7759   5.0044   5.0068   5.0336   5.0367   5.3245
     5.4434   5.4524   5.4632   5.7513   5.7542   5.7553   5.7619   5.9434
     5.9473   6.3896   6.3921   6.4066   6.4275   6.5088   6.5104   6.5125
     6.5169   6.6760   6.6764   6.6779   6.6798   6.8367   6.8411   6.8434
     6.8464   6.9236   6.9423   7.0748   7.1136   7.1161   7.1181   7.1186
     7.1243   7.3744   7.3786   7.6011   7.6019   7.6497   7.7171   7.7174
     7.7317   7.7339   8.0828   8.1538   8.1852   8.2384   8.2580   8.3426
     8.3483   8.3485   8.3600   8.3639   8.4065   8.4092   8.4604   8.4697
     8.5725   8.6392   8.6462   8.6482   8.6497   8.7086   8.7109   8.7112
     8.7139   8.8544   8.8601   8.8688   8.8700   8.8725   8.8766   9.1087
     9.1506   9.1544   9.1568   9.1581   9.1598   9.1755   9.3665   9.3704
     9.4989   9.5450   9.5524   9.5831   9.5963   9.5965   9.6505   9.7037
     9.8462  10.0585  10.0588  10.1533  10.2107

          k = 0.0000-0.2165 0.0000 (256176 PWs)   bands (ev):

   -22.7649 -16.2450 -16.2385 -15.5003 -15.4994 -14.2845 -14.2827 -14.2780
   -14.2762 -14.0391 -14.0381 -13.5651 -13.5632 -13.5559 -13.5543 -12.1695
   -12.1673 -12.1535 -12.1524 -11.9397 -11.9375 -10.2528 -10.2521 -10.2519
   -10.2504  -9.0081  -9.0058  -8.8494  -8.8478  -8.8463  -8.8442  -8.0202
    -8.0192  -8.0165  -8.0159  -7.2589  -6.8425  -6.8421  -6.8386  -6.8379
    -6.6886  -6.6854  -6.6834  -6.6789  -5.8764  -5.8762  -5.8696  -5.8690
    -5.0326  -5.0291  -5.0283  -5.0246  -4.9566  -4.9457  -4.8307  -4.8305
    -4.6497  -4.6343  -4.4732  -4.4727  -4.4668  -4.4658  -4.4360  -4.4326
    -3.9925  -3.9916  -3.5320  -3.5314  -3.2956  -3.2953  -3.2950  -3.2945
    -3.1691  -3.1633  -3.0492  -3.0488  -3.0234  -3.0230  -2.9160  -2.9143
    -2.9126  -2.9110  -2.8084  -2.7305  -2.7293  -2.7279  -2.7267  -2.6282
    -2.6268  -2.5735  -2.5722  -2.5715  -2.5711  -2.5710  -2.5707  -2.5669
    -2.5665  -2.4577  -2.4567  -2.3112  -2.3104  -2.2279  -2.2269  -2.2237
    -2.2217  -2.2184  -2.2183  -2.1336  -2.1336  -2.1331  -2.1330  -1.9779
    -1.9778  -1.9706  -1.9696  -1.9526  -1.9525  -1.8494  -1.8483  -1.7564
    -1.7561  -1.7464  -1.7461  -1.7451  -1.7433  -1.7416  -1.7413  -1.7316
    -1.7316  -1.7143  -1.7135  -1.6371  -1.6363  -1.5234  -1.5227  -1.5225
    -1.5215  -1.4489  -1.4488  -1.4484  -1.4483  -1.3658  -1.3650  -1.3599
    -1.3595  -1.3071  -1.3068  -1.2684  -1.2678  -1.2656  -1.2650  -1.2631
    -1.2621  -1.2315  -1.2306  -1.2253  -1.2228  -1.2202  -1.2188  -1.2116
    -1.2115  -1.1967  -1.1965  -1.1283  -1.1279  -1.1262  -1.1260  -1.1210
    -1.1207  -1.0786  -1.0784  -1.0410  -1.0409  -1.0378  -1.0375  -0.9930
    -0.9910  -0.9748  -0.9738  -0.9736  -0.9726  -0.9662  -0.9660  -0.9164
    -0.9162  -0.9094  -0.9088  -0.8990  -0.8988  -0.8843  -0.8840  -0.8838
    -0.8835  -0.8159  -0.8142  -0.8073  -0.8071  -0.8023  -0.8018  -0.7986
    -0.7985  -0.7838  -0.7835  -0.7698  -0.7688  -0.7441  -0.7440  -0.7365
    -0.7363  -0.6459  -0.6454  -0.6445  -0.6441  -0.6239  -0.6237  -0.5959
    -0.5954  -0.5943  -0.5939  -0.5915  -0.5915  -0.5615  -0.5610  -0.5303
    -0.5302  -0.5293  -0.5292  -0.5285  -0.5283  -0.5227  -0.5215  -0.4915
    -0.4914  -0.4705  -0.4704  -0.4684  -0.4668  -0.4351  -0.4346  -0.4342
    -0.4337  -0.4245  -0.4243  -0.4240  -0.4237  -0.4127  -0.4117  -0.3474
    -0.3470  -0.3454  -0.3450  -0.3158  -0.3140  -0.2901  -0.2900  -0.2842
    -0.2841  -0.2812  -0.2808  -0.2573  -0.2569  -0.2557  -0.2549  -0.2390
    -0.2369  -0.2354  -0.2349  -0.2348  -0.2343  -0.2336  -0.2334  -0.2312
    -0.2310  -0.2309  -0.2287  -0.2178  -0.2174  -0.1938  -0.1938  -0.1918
    -0.1917  -0.1276  -0.1274  -0.1273  -0.1270  -0.1202  -0.1188  -0.1181
    -0.1126  -0.1125  -0.1101  -0.0936  -0.0886  -0.0724  -0.0707  -0.0703
    -0.0701  -0.0696  -0.0689  -0.0648  -0.0636  -0.0631  -0.0622  -0.0603
    -0.0596  -0.0593  -0.0554  -0.0044  -0.0036   0.0006   0.0019   0.0182
     0.0185   0.0200   0.0217   0.0220   0.0221   0.0396   0.0407   0.0412
     0.0421   0.0436   0.0495   0.0704   0.0717   0.0727   0.0820   0.0888
     0.0890   0.0893   0.0894   0.1053   0.1089   0.1230   0.1233   0.1380
     0.1384   0.1508   0.1515   0.1516   0.1524   0.1917   0.1925   0.1956
     0.1963   0.2102   0.2118   0.2123   0.2128   0.2433   0.2438   0.2764
     0.2769   0.2807   0.2824   0.3106   0.3126   0.3705   0.3709   0.3989
     0.3992   0.3997   0.4001   0.4278   0.4286   0.4288   0.4291   0.4481
     0.4513   0.4686   0.4698   0.4712   0.4713   0.4719   0.4724   0.4725
     0.4750   0.4761   0.4807   0.4913   0.4921   0.4943   0.4946   0.4976
     0.4988   0.4989   0.5019   0.5304   0.5306   0.5432   0.5433   0.5434
     0.5442   0.5523   0.5524   0.5684   0.5699   0.5738   0.5741   0.5746
     0.5750   0.5753   0.5759   0.5881   0.5928   0.5937   0.5951   0.5963
     0.5970   0.5971   0.5978   0.6017   0.6018   0.6164   0.6183   0.6597
     0.6600   0.6728   0.6730   0.6836   0.6839   0.6842   0.6846   0.6918
     0.6927   0.6931   0.6940   0.6986   0.6986   0.6989   0.6989   0.7389
     0.7391   0.7406   0.7414   0.7565   0.7567   0.7581   0.7589   0.7598
     0.7610   0.7763   0.7773   0.7891   0.7897   0.7968   0.7972   0.7980
     0.7981   0.8500   0.8507   0.9020   0.9022   0.9058   0.9083   0.9087
     0.9113   0.9189   0.9192   0.9254   0.9258   0.9330   0.9336   0.9408
     0.9410   0.9423   0.9424   0.9541   0.9548   0.9576   0.9577   0.9579
     0.9599   0.9697   0.9713   0.9824   0.9826   0.9827   0.9827   0.9850
     0.9856   0.9903   0.9916   0.9952   0.9959   1.0054   1.0054   1.0094
     1.0098   1.0101   1.0106   1.0268   1.0270   1.0403   1.0413   1.0430
     1.0435   1.0450   1.0454   1.0540   1.0544   1.0550   1.0553   1.0555
     1.0555   1.1047   1.1062   1.1373   1.1419   1.1424   1.1426   1.1622
     1.1626   1.1707   1.1729   1.1734   1.1749   1.1850   1.1858   1.2019
     1.2032   1.2091   1.2093   1.2143   1.2151   1.2165   1.2165   1.2174
     1.2177   1.2186   1.2193   1.2193   1.2198   1.2258   1.2262   1.2402
     1.2429   1.2477   1.2487   1.2489   1.2497   1.2568   1.2579   1.2857
     1.2859   1.2871   1.2878   1.2931   1.2934   1.2963   1.2972   1.3139
     1.3141   1.3147   1.3150   1.3275   1.3276   1.3294   1.3301   1.3329
     1.3330   1.3485   1.3490   1.3501   1.3502   1.3677   1.3681   1.3713
     1.3718   1.3899   1.3901   1.3961   1.3966   1.3973   1.3978   1.4114
     1.4116   1.4125   1.4128   1.4292   1.4299   1.4428   1.4429   1.4430
     1.4437   1.4626   1.4634   1.4656   1.4661   1.4671   1.4673   1.4674
     1.4678   1.4964   1.4965   1.5037   1.5042   1.5104   1.5108   1.5250
     1.5260   1.5372   1.5378   1.5382   1.5385   1.5417   1.5435   1.5542
     1.5566   1.6061   1.6066   1.6066   1.6070   1.7102   1.7103   1.7384
     1.7398   1.7535   1.7536   1.7537   1.7543   1.8052   1.8072   1.8074
     1.8101   1.8308   1.8311   1.8314   1.8320   1.8677   1.8715   2.1982
     2.2008   2.2035   2.2069   2.4409   2.4410   2.4411   2.4412   2.5123
     2.5131   2.5855   2.5857   2.5892   2.5894   2.5967   2.5970   2.7252
     2.7271   2.7900   2.7908   2.8046   2.8047   2.9379   2.9389   3.1853
     3.1853   3.2125   3.2126   3.4495   3.4509   3.6892   3.6907   3.9729
     3.9796   4.0375   4.0419   4.0499   4.0511   4.1610   4.1639   4.1752
     4.1801   4.3539   4.3540   4.3542   4.3557   4.5308   4.5329   4.7334
     4.7404   4.8104   4.8157   5.1117   5.1143   5.1153   5.1231   5.3735
     5.3747   5.3750   5.3760   5.4603   5.4633   5.6988   5.7072   5.8618
     5.8761   5.9226   5.9347   6.4379   6.4418   6.4742   6.4768   6.4801
     6.4844   6.5845   6.5867   6.6842   6.6849   6.8530   6.8546   7.0407
     7.0524   7.0737   7.0823   7.0991   7.1025   7.1457   7.1472   7.1570
     7.1572   7.3735   7.3745   7.4395   7.4435   7.4815   7.4849   7.7325
     7.8046   7.8156   7.8205   7.8618   7.8719   8.1747   8.1750   8.3749
     8.3754   8.4616   8.4771   8.4886   8.4896   8.4917   8.4943   8.6118
     8.6162   8.6730   8.7376   8.7409   8.7459   8.7480   8.7850   8.7853
     8.8032   8.9733   8.9754   9.0529   9.0568   9.1673   9.1854   9.1871
     9.2798   9.2891   9.2921   9.2959   9.3645   9.3975   9.3983   9.4011
     9.4015   9.5021   9.5052   9.5315   9.5335   9.5384   9.5457   9.7082
     9.7088   9.7992   9.7999   9.9048   9.9048

          k = 0.2500 0.0000 0.0000 (256240 PWs)   bands (ev):

   -22.7649 -16.2108 -15.8415 -15.8366 -15.2237 -14.8589 -14.8542 -14.7353
   -14.7345 -13.7701 -13.7693 -13.2946 -12.9422 -12.9409 -12.9383 -12.9374
   -12.0200 -12.0176 -11.9106 -11.9097 -10.9323 -10.6185 -10.6157 -10.6057
   -10.0909  -9.9377  -9.6382  -9.6374  -9.2375  -8.9830  -8.9822  -8.4255
    -7.4173  -7.4172  -7.4151  -7.4140  -7.3008  -7.2987  -7.2589  -6.8360
    -6.5636  -5.9970  -5.8313  -5.7975  -5.7964  -5.7855  -5.7832  -5.3049
    -5.3023  -5.0564  -5.0548  -4.9103  -4.6518  -4.6345  -4.5526  -4.4585
    -4.4250  -4.4214  -4.3966  -4.2401  -4.2394  -4.2187  -4.2166  -3.9934
    -3.9910  -3.9448  -3.9432  -3.8328  -3.8328  -3.7774  -3.6483  -3.4904
    -3.4897  -3.4082  -3.4070  -3.4055  -3.4044  -3.3022  -3.3016  -3.2403
    -3.2337  -3.2078  -3.0828  -3.0817  -3.0184  -3.0126  -2.8553  -2.8441
    -2.7970  -2.7915  -2.7914  -2.6909  -2.6872  -2.6046  -2.5994  -2.3930
    -2.3522  -2.3516  -2.3242  -2.3242  -2.0917  -2.0916  -2.0757  -2.0735
    -1.9878  -1.9747  -1.9240  -1.9235  -1.8845  -1.8828  -1.8798  -1.8773
    -1.8209  -1.7928  -1.7928  -1.7854  -1.7853  -1.7653  -1.7345  -1.7162
    -1.7008  -1.7005  -1.6786  -1.6781  -1.6371  -1.6363  -1.5945  -1.5747
    -1.5727  -1.5693  -1.5693  -1.5678  -1.5677  -1.5309  -1.5286  -1.5126
    -1.5050  -1.4956  -1.4933  -1.4793  -1.4777  -1.3616  -1.3238  -1.3230
    -1.3030  -1.2722  -1.2587  -1.2585  -1.2338  -1.2330  -1.2282  -1.2129
    -1.2127  -1.2027  -1.2021  -1.1989  -1.1755  -1.1741  -1.1677  -1.1569
    -1.1264  -1.1241  -1.1197  -1.1188  -1.1164  -1.1162  -1.1022  -1.1004
    -1.0710  -1.0622  -1.0371  -1.0365  -1.0362  -1.0358  -1.0335  -1.0289
    -1.0065  -1.0020  -1.0001  -0.9908  -0.9836  -0.9835  -0.9702  -0.9699
    -0.9688  -0.9687  -0.9653  -0.9650  -0.9528  -0.9348  -0.9317  -0.9310
    -0.8966  -0.8932  -0.8908  -0.8895  -0.8840  -0.8821  -0.8807  -0.8698
    -0.8680  -0.8415  -0.8406  -0.8066  -0.8066  -0.7872  -0.7860  -0.7716
    -0.7600  -0.7596  -0.7478  -0.7434  -0.7414  -0.7392  -0.7307  -0.7295
    -0.7108  -0.5889  -0.5876  -0.5863  -0.5848  -0.5574  -0.5542  -0.5541
    -0.5391  -0.5390  -0.5378  -0.5357  -0.5156  -0.5155  -0.5153  -0.5151
    -0.5010  -0.5007  -0.4726  -0.4722  -0.4714  -0.4709  -0.4701  -0.4699
    -0.4487  -0.4486  -0.4486  -0.3879  -0.3876  -0.3875  -0.3844  -0.3808
    -0.3788  -0.3680  -0.3607  -0.3606  -0.3449  -0.3447  -0.3439  -0.3228
    -0.3183  -0.3182  -0.3153  -0.2814  -0.2814  -0.2812  -0.2810  -0.2675
    -0.2675  -0.2568  -0.2533  -0.2532  -0.2423  -0.2422  -0.2215  -0.2205
    -0.2154  -0.1896  -0.1856  -0.1839  -0.1834  -0.1826  -0.1689  -0.1675
    -0.1673  -0.1671  -0.1390  -0.1387  -0.1367  -0.1362  -0.1329  -0.1241
    -0.1218  -0.1026  -0.0969  -0.0967  -0.0840  -0.0829  -0.0532  -0.0513
    -0.0465  -0.0426  -0.0413  -0.0329  -0.0038  -0.0038   0.0032   0.0036
     0.0046   0.0097   0.0100   0.0145   0.0166   0.0177   0.0179   0.0223
     0.0233   0.0268   0.0448   0.0450   0.0493   0.0496   0.0556   0.0557
     0.0742   0.0745   0.0868   0.0880   0.1048   0.1274   0.1280   0.1285
     0.1301   0.1306   0.1349   0.1360   0.1527   0.1544   0.1547   0.1556
     0.1557   0.1567   0.1931   0.1932   0.2364   0.2370   0.2675   0.2692
     0.2694   0.2825   0.2839   0.2884   0.2886   0.2912   0.2938   0.2943
     0.2961   0.2992   0.3010   0.3122   0.3139   0.3142   0.3198   0.3199
     0.3248   0.3249   0.3364   0.3367   0.3401   0.3427   0.3458   0.3520
     0.3718   0.3748   0.3756   0.4157   0.4157   0.4207   0.4295   0.4347
     0.4399   0.4401   0.4574   0.4578   0.4599   0.4632   0.4746   0.4769
     0.4933   0.4954   0.4958   0.4975   0.4990   0.5074   0.5076   0.5089
     0.5091   0.5314   0.5407   0.5409   0.5566   0.5568   0.5625   0.5627
     0.5663   0.5665   0.5677   0.5713   0.5715   0.5922   0.5935   0.5935
     0.6069   0.6076   0.6086   0.6091   0.6109   0.6257   0.6260   0.6294
     0.6321   0.6325   0.6511   0.6515   0.6728   0.6733   0.6802   0.6811
     0.6858   0.6859   0.6896   0.7056   0.7170   0.7203   0.7397   0.7431
     0.7515   0.7549   0.7550   0.7581   0.7586   0.7676   0.7808   0.7872
     0.7900   0.7939   0.7943   0.8071   0.8081   0.8178   0.8192   0.8199
     0.8300   0.8384   0.8386   0.8392   0.8483   0.8679   0.8714   0.8715
     0.8721   0.8771   0.8944   0.8980   0.9062   0.9069   0.9079   0.9099
     0.9167   0.9179   0.9187   0.9195   0.9265   0.9641   0.9677   0.9682
     0.9709   0.9709   0.9732   0.9784   0.9843   0.9862   1.0051   1.0066
     1.0082   1.0084   1.0155   1.0157   1.0185   1.0320   1.0327   1.0336
     1.0353   1.0367   1.0374   1.0416   1.0444   1.0448   1.0470   1.0479
     1.0505   1.0571   1.0623   1.0766   1.0772   1.0776   1.0852   1.0853
     1.0874   1.0920   1.0925   1.0942   1.1063   1.1063   1.1209   1.1240
     1.1245   1.1255   1.1272   1.1384   1.1508   1.1536   1.1541   1.1630
     1.1630   1.1714   1.1723   1.1775   1.1788   1.1861   1.1958   1.2005
     1.2056   1.2085   1.2092   1.2310   1.2476   1.2511   1.2547   1.2611
     1.2623   1.2625   1.2693   1.2693   1.2709   1.2713   1.2787   1.2901
     1.2939   1.2940   1.2961   1.2962   1.3138   1.3144   1.3161   1.3167
     1.3178   1.3224   1.3284   1.3305   1.3309   1.3332   1.3345   1.3390
     1.3397   1.3439   1.3446   1.3492   1.3575   1.3651   1.3672   1.3722
     1.3740   1.3741   1.3763   1.3772   1.3965   1.3967   1.3974   1.4061
     1.4081   1.4205   1.4209   1.4272   1.4345   1.4358   1.4387   1.4392
     1.4425   1.4442   1.4442   1.4477   1.4506   1.4516   1.4583   1.4589
     1.4681   1.4809   1.4809   1.4824   1.4842   1.4846   1.4865   1.4869
     1.4996   1.5001   1.5104   1.5124   1.5231   1.5235   1.5288   1.5299
     1.5300   1.5356   1.5452   1.5642   1.5668   1.5994   1.6018   1.6066
     1.6408   1.6421   1.6457   1.6818   1.7007   1.7109   1.7707   1.7775
     1.7785   1.7786   1.7964   1.8177   1.8531   1.9055   2.0237   2.0455
     2.0925   2.0927   2.1086   2.1087   2.1995   2.2115   2.2800   2.2820
     2.5791   2.5832   2.5840   2.5869   2.9892   2.9893   3.0403   3.2084
     3.2087   3.2324   3.2324   3.3032   3.3088   3.4884   3.5103   3.6110
     3.6114   3.6484   3.6488   3.7204   3.7208   3.7378   3.7410   3.7655
     3.8925   3.8939   3.9739   3.9841   3.9970   4.0012   4.0808   4.2111
     4.2268   4.2348   4.2929   4.4163   4.4715   4.4883   4.6784   4.8134
     4.8499   4.8504   5.1999   5.2353   5.2355   5.2475   5.3765   5.3774
     5.3904   5.4916   5.4954   5.5250   5.5941   5.6234   5.6436   5.7285
     5.7357   5.7622   5.7685   5.8653   5.8658   5.9124   5.9234   6.0226
     6.0246   6.0833   6.0840   6.6514   6.7232   6.7246   6.7427   6.7693
     6.8384   6.8513   6.8648   6.9204   7.0129   7.0376   7.0589   7.0720
     7.0728   7.0957   7.2864   7.2884   7.3495   7.3525   7.5508   7.5676
     7.5751   7.5900   7.6992   7.8039   7.8178   7.8227   7.8397   8.0258
     8.0348   8.0846   8.0849   8.2454   8.2699   8.2862   8.3322   8.3422
     8.3435   8.3604   8.3666   8.4381   8.4533   8.4792   8.5139   8.6715
     8.6730   8.9589   8.9763   9.0193   9.0301   9.1162   9.1538   9.2022
     9.2174   9.2396   9.2702   9.2752   9.2796   9.2924   9.3072   9.4497
     9.4511   9.4580   9.4637   9.5439   9.5850   9.6871   9.7449   9.7450
     9.7656   9.8600   9.8730   9.9142  10.0008

          k = 0.2500-0.2165 0.0000 (256316 PWs)   bands (ev):

   -22.7649 -16.1209 -16.1144 -15.3774 -15.3765 -15.1349 -15.1284 -14.4014
   -14.4005 -13.9194 -13.9184 -13.2087 -13.2023 -12.9711 -12.9700 -12.5038
   -12.5030 -11.8279 -11.8256 -11.2057 -11.2046 -10.9487 -10.9465 -10.5663
   -10.5604  -9.5157  -9.5149  -8.9947  -8.9915  -8.9135  -8.9112  -8.3525
    -8.3500  -8.2623  -8.2610  -7.2590  -6.5356  -6.5321  -6.5094  -6.5088
    -6.3942  -6.3884  -6.1657  -6.1623  -5.8294  -5.8289  -5.6982  -5.6979
    -5.0338  -5.0322  -4.7975  -4.7825  -4.7069  -4.7062  -4.6681  -4.6672
    -4.6415  -4.6343  -4.3397  -4.3393  -4.2832  -4.2825  -4.0704  -4.0670
    -4.0223  -4.0217  -3.8466  -3.8451  -3.6867  -3.6809  -3.5470  -3.5391
    -3.4510  -3.4510  -3.4432  -3.4398  -3.3975  -3.3957  -3.1168  -3.1124
    -3.0866  -3.0857  -2.9561  -2.9551  -2.9070  -2.9059  -2.9017  -2.9013
    -2.8080  -2.7808  -2.7756  -2.7565  -2.7551  -2.4686  -2.4665  -2.4332
    -2.4318  -2.3072  -2.3066  -2.2294  -2.2290  -2.1617  -2.1615  -2.1611
    -2.1606  -2.0006  -2.0005  -1.9538  -1.9535  -1.8943  -1.8931  -1.8237
    -1.8206  -1.8059  -1.8057  -1.8029  -1.8026  -1.7375  -1.7363  -1.7133
    -1.7132  -1.7015  -1.7009  -1.6839  -1.6825  -1.6672  -1.6671  -1.6663
    -1.6660  -1.6595  -1.6592  -1.6342  -1.6320  -1.5740  -1.5731  -1.4591
    -1.4590  -1.3509  -1.3503  -1.3433  -1.3424  -1.3194  -1.3191  -1.2674
    -1.2674  -1.2539  -1.2538  -1.2514  -1.2451  -1.2386  -1.2385  -1.2277
    -1.2274  -1.2103  -1.2102  -1.2039  -1.2028  -1.1887  -1.1884  -1.1860
    -1.1857  -1.1788  -1.1774  -1.1216  -1.1199  -1.1175  -1.1165  -1.1042
    -1.1042  -1.0975  -1.0934  -1.0685  -1.0676  -1.0619  -1.0616  -1.0283
    -1.0282  -1.0163  -1.0162  -1.0117  -1.0109  -0.9870  -0.9868  -0.9630
    -0.9609  -0.9509  -0.9508  -0.9448  -0.9443  -0.9372  -0.9370  -0.9125
    -0.9123  -0.8907  -0.8906  -0.8594  -0.8581  -0.8526  -0.8521  -0.7667
    -0.7654  -0.7647  -0.7644  -0.7633  -0.7631  -0.7440  -0.7432  -0.7101
    -0.7095  -0.7012  -0.7012  -0.6977  -0.6974  -0.6898  -0.6883  -0.6826
    -0.6822  -0.6407  -0.6406  -0.6381  -0.6374  -0.6038  -0.6033  -0.5557
    -0.5551  -0.5543  -0.5538  -0.5352  -0.5349  -0.5200  -0.5196  -0.5094
    -0.5082  -0.4896  -0.4886  -0.4766  -0.4764  -0.4433  -0.4432  -0.4375
    -0.4370  -0.4338  -0.4332  -0.3956  -0.3955  -0.3842  -0.3840  -0.3652
    -0.3649  -0.3546  -0.3544  -0.3543  -0.3540  -0.3489  -0.3479  -0.3446
    -0.3442  -0.3382  -0.3379  -0.3226  -0.3212  -0.3089  -0.3076  -0.3052
    -0.3049  -0.2766  -0.2757  -0.2593  -0.2589  -0.2434  -0.2428  -0.2276
    -0.2275  -0.2142  -0.2140  -0.2037  -0.2033  -0.1991  -0.1978  -0.1650
    -0.1647  -0.1401  -0.1400  -0.1027  -0.1025  -0.0941  -0.0940  -0.0918
    -0.0909  -0.0731  -0.0730  -0.0678  -0.0662  -0.0558  -0.0557  -0.0423
    -0.0422  -0.0363  -0.0356  -0.0267  -0.0262  -0.0252  -0.0243  -0.0032
    -0.0027   0.0067   0.0078   0.0087   0.0101   0.0125   0.0131   0.0137
     0.0137   0.0218   0.0225   0.0457   0.0459   0.0460   0.0462   0.0798
     0.0801   0.0875   0.0879   0.0931   0.0937   0.1122   0.1127   0.1301
     0.1313   0.1479   0.1481   0.1522   0.1538   0.1605   0.1632   0.1679
     0.1681   0.1702   0.1712   0.1818   0.1821   0.1900   0.1902   0.2182
     0.2187   0.2848   0.2848   0.2923   0.2924   0.2960   0.2964   0.3005
     0.3009   0.3020   0.3022   0.3062   0.3072   0.3279   0.3298   0.3343
     0.3352   0.3454   0.3458   0.3471   0.3473   0.3480   0.3481   0.3831
     0.3843   0.3958   0.3966   0.4071   0.4078   0.4191   0.4194   0.4591
     0.4597   0.4657   0.4664   0.4699   0.4701   0.4769   0.4782   0.4815
     0.4818   0.4934   0.4935   0.4955   0.4957   0.4959   0.4969   0.5277
     0.5283   0.5320   0.5321   0.5507   0.5508   0.5797   0.5798   0.5806
     0.5818   0.6147   0.6154   0.6205   0.6212   0.6229   0.6233   0.6286
     0.6292   0.6294   0.6314   0.6401   0.6418   0.6448   0.6462   0.6505
     0.6508   0.6630   0.6641   0.6752   0.6760   0.6813   0.6814   0.6861
     0.6862   0.6968   0.6972   0.7031   0.7034   0.7038   0.7041   0.7214
     0.7221   0.7261   0.7263   0.7310   0.7312   0.7341   0.7354   0.7366
     0.7377   0.7717   0.7719   0.7833   0.7844   0.8034   0.8095   0.8224
     0.8234   0.8368   0.8369   0.8398   0.8400   0.8447   0.8452   0.8678
     0.8683   0.8701   0.8701   0.8711   0.8713   0.8824   0.8827   0.8976
     0.8979   0.8987   0.8996   0.9094   0.9098   0.9193   0.9198   0.9434
     0.9435   0.9687   0.9689   0.9751   0.9757   0.9766   0.9778   0.9799
     0.9800   0.9845   0.9854   1.0142   1.0148   1.0185   1.0191   1.0338
     1.0339   1.0464   1.0465   1.0523   1.0530   1.0796   1.0814   1.0842
     1.0860   1.0950   1.0957   1.1026   1.1027   1.1051   1.1056   1.1057
     1.1062   1.1109   1.1117   1.1210   1.1215   1.1328   1.1332   1.1353
     1.1359   1.1539   1.1540   1.1808   1.1811   1.1875   1.1879   1.1913
     1.1918   1.1935   1.1941   1.1995   1.2013   1.2064   1.2065   1.2125
     1.2128   1.2187   1.2190   1.2194   1.2196   1.2275   1.2291   1.2380
     1.2382   1.2394   1.2397   1.2413   1.2418   1.2552   1.2556   1.2609
     1.2612   1.2862   1.2864   1.2940   1.2944   1.3099   1.3100   1.3140
     1.3147   1.3264   1.3267   1.3378   1.3388   1.3394   1.3402   1.3475
     1.3478   1.3512   1.3529   1.3637   1.3640   1.3643   1.3648   1.3763
     1.3764   1.3902   1.3903   1.3978   1.3978   1.3979   1.3981   1.4014
     1.4019   1.4091   1.4092   1.4210   1.4212   1.4261   1.4264   1.4370
     1.4396   1.4435   1.4440   1.4502   1.4504   1.4535   1.4536   1.4578
     1.4588   1.4600   1.4601   1.4697   1.4698   1.4701   1.4723   1.4949
     1.4950   1.5004   1.5016   1.5174   1.5175   1.5377   1.5383   1.5443
     1.5445   1.5669   1.5673   1.5738   1.5741   1.5984   1.5991   1.6658
     1.6674   1.6710   1.6729   1.6841   1.6844   1.7668   1.7697   1.7858
     1.7880   1.8044   1.8048   1.8063   1.8069   1.8578   1.8588   1.8681
     1.8690   2.1409   2.1414   2.1750   2.1751   2.3054   2.3055   2.5979
     2.5979   2.8007   2.8014   2.8081   2.8082   2.8212   2.8216   2.8610
     2.8620   2.9993   2.9995   3.1060   3.1062   3.5578   3.5585   3.6352
     3.6362   3.7092   3.7101   3.8536   3.8549   3.8640   3.8645   3.9773
     3.9851   4.0111   4.0132   4.0734   4.0735   4.1751   4.1758   4.3880
     4.3884   4.4232   4.4289   4.5764   4.5784   4.6819   4.6847   4.7604
     4.7634   4.8325   4.8352   4.9668   4.9671   5.0610   5.0722   5.1750
     5.1852   5.3150   5.3161   5.4643   5.4647   5.4780   5.4785   5.5089
     5.5115   5.7748   5.7752   5.9187   5.9191   5.9662   5.9747   6.0785
     6.0814   6.6102   6.6119   6.6631   6.6666   6.7728   6.7749   6.8906
     6.8945   7.0853   7.0891   7.1139   7.1176   7.1181   7.1216   7.2057
     7.2073   7.2359   7.2366   7.3443   7.3481   7.3651   7.3659   7.4427
     7.4490   7.4571   7.4576   7.6966   7.6999   7.8216   7.8224   7.8942
     7.9623   8.0225   8.0285   8.2083   8.2091   8.2744   8.2768   8.5228
     8.5251   8.6111   8.6121   8.6331   8.6489   8.6765   8.6781   8.7363
     8.7380   8.8316   8.9126   8.9569   8.9585   8.9782   8.9793   9.1691
     9.1708   9.1994   9.2002   9.2082   9.2387   9.2397   9.2755   9.2911
     9.2928   9.3583   9.3795   9.3812   9.3882   9.3975   9.5035   9.5088
     9.5280   9.6688   9.6761  10.0002  10.0128

          k =-0.5000 0.0000 0.0000 (256496 PWs)   bands (ev):

   -22.7649 -15.8399 -15.8384 -15.4727 -15.4704 -15.4671 -15.4662 -14.3725
   -14.3716 -14.3707 -14.3701 -12.5936 -12.5919 -12.5907 -12.5896 -12.0186
   -12.0182 -11.6905 -11.6887 -11.6857 -11.6848 -11.0385 -11.0375 -10.6169
   -10.6155 -10.0425 -10.0418  -9.6389  -9.6375  -8.8010  -8.7995  -8.7977
    -8.7960  -7.2996  -7.2993  -7.2591  -7.2336  -7.2326  -7.2312  -7.2299
    -5.7851  -5.7847  -5.3018  -5.3017  -5.0563  -5.0554  -4.7965  -4.7963
    -4.7943  -4.7940  -4.6531  -4.6392  -4.6382  -4.6353  -4.6351  -4.6342
    -4.5512  -4.5499  -4.5498  -4.5488  -4.4228  -4.4197  -4.2594  -4.2580
    -4.2551  -4.2539  -3.9687  -3.9680  -3.9635  -3.9624  -3.9371  -3.9368
    -3.5153  -3.5145  -3.5130  -3.5122  -3.4120  -3.4119  -3.4116  -3.4115
    -3.2581  -3.2572  -3.2445  -3.2440  -3.2434  -3.2425  -2.8094  -2.7345
    -2.7340  -2.7328  -2.7294  -2.6546  -2.6539  -2.6527  -2.6523  -2.5887
    -2.5879  -2.3854  -2.3850  -2.3840  -2.3825  -2.2862  -2.2855  -2.2826
    -2.2810  -1.8716  -1.8716  -1.8709  -1.8708  -1.8687  -1.8686  -1.7386
    -1.7385  -1.7380  -1.7377  -1.6412  -1.6411  -1.6410  -1.6409  -1.5949
    -1.5945  -1.5929  -1.5926  -1.5324  -1.5315  -1.4910  -1.4908  -1.4764
    -1.4763  -1.4160  -1.4160  -1.4155  -1.4154  -1.3979  -1.3978  -1.3491
    -1.3490  -1.3457  -1.3455  -1.3388  -1.3376  -1.3368  -1.3362  -1.3307
    -1.3304  -1.3272  -1.3268  -1.3220  -1.3213  -1.2807  -1.2807  -1.2791
    -1.2788  -1.2587  -1.2586  -1.2581  -1.2581  -1.1942  -1.1942  -1.1733
    -1.1730  -1.1727  -1.1723  -1.1400  -1.1397  -1.1393  -1.1392  -1.1390
    -1.1389  -1.1385  -1.1384  -1.0969  -1.0969  -1.0959  -1.0958  -1.0773
    -1.0772  -1.0462  -1.0461  -0.9983  -0.9981  -0.9721  -0.9720  -0.9704
    -0.9702  -0.9407  -0.9404  -0.9400  -0.9400  -0.9329  -0.9326  -0.9319
    -0.9317  -0.9207  -0.9204  -0.9183  -0.9181  -0.8906  -0.8906  -0.8830
    -0.8820  -0.8295  -0.8294  -0.8268  -0.8267  -0.7832  -0.7830  -0.7023
    -0.7023  -0.7018  -0.7017  -0.6645  -0.6643  -0.6620  -0.6617  -0.6606
    -0.6605  -0.6514  -0.6493  -0.6436  -0.6422  -0.6199  -0.6195  -0.6175
    -0.6169  -0.6031  -0.6028  -0.5855  -0.5853  -0.5837  -0.5836  -0.4862
    -0.4851  -0.4845  -0.4839  -0.4552  -0.4544  -0.4531  -0.4523  -0.4437
    -0.4435  -0.3931  -0.3929  -0.3925  -0.3924  -0.3923  -0.3921  -0.3904
    -0.3902  -0.3608  -0.3607  -0.3545  -0.3543  -0.3540  -0.3540  -0.3172
    -0.3170  -0.3156  -0.3155  -0.2837  -0.2837  -0.2835  -0.2835  -0.2733
    -0.2733  -0.2396  -0.2396  -0.2380  -0.2379  -0.2200  -0.2199  -0.2195
    -0.2192  -0.1919  -0.1917  -0.1816  -0.1813  -0.1220  -0.1220  -0.1209
    -0.1208  -0.1153  -0.1153  -0.1142  -0.1142  -0.0756  -0.0754  -0.0733
    -0.0731  -0.0402  -0.0400  -0.0101  -0.0097  -0.0078  -0.0078  -0.0065
    -0.0065  -0.0062  -0.0060  -0.0057  -0.0055  -0.0051  -0.0050   0.0528
     0.0535   0.0739   0.0746   0.0795   0.0796   0.0814   0.0814   0.0831
     0.0832   0.0837   0.0837   0.0914   0.0916   0.0934   0.0934   0.0988
     0.1003   0.1062   0.1067   0.1181   0.1181   0.1321   0.1323   0.1332
     0.1333   0.1333   0.1334   0.1413   0.1414   0.1418   0.1418   0.1561
     0.1562   0.1686   0.1686   0.1688   0.1689   0.1719   0.1719   0.1951
     0.1952   0.2883   0.2939   0.3009   0.3009   0.3034   0.3035   0.3081
     0.3123   0.3325   0.3327   0.3341   0.3350   0.3474   0.3476   0.3522
     0.3524   0.3557   0.3560   0.3593   0.3595   0.3640   0.3642   0.3651
     0.3653   0.3668   0.3671   0.3796   0.3797   0.4007   0.4018   0.4019
     0.4022   0.4067   0.4073   0.4076   0.4082   0.4190   0.4192   0.4752
     0.4753   0.5044   0.5045   0.5079   0.5086   0.5189   0.5192   0.5376
     0.5379   0.5410   0.5411   0.5436   0.5436   0.5441   0.5444   0.5483
     0.5488   0.5496   0.5499   0.5511   0.5515   0.5597   0.5599   0.5603
     0.5604   0.5848   0.5849   0.5989   0.5991   0.6199   0.6203   0.6326
     0.6336   0.6374   0.6379   0.6382   0.6387   0.6444   0.6447   0.6454
     0.6455   0.6487   0.6490   0.6651   0.6652   0.6681   0.6682   0.6839
     0.6842   0.6849   0.6854   0.7194   0.7196   0.7206   0.7206   0.7223
     0.7227   0.7405   0.7406   0.7769   0.7771   0.7810   0.7817   0.7826
     0.7835   0.7835   0.7838   0.8303   0.8307   0.8523   0.8524   0.8549
     0.8551   0.8565   0.8565   0.8640   0.8643   0.8668   0.8669   0.8700
     0.8704   0.8805   0.8810   0.8999   0.9001   0.9017   0.9018   0.9198
     0.9200   0.9208   0.9210   0.9220   0.9223   0.9260   0.9265   0.9623
     0.9625   0.9634   0.9635   1.0263   1.0269   1.0280   1.0281   1.0289
     1.0289   1.0617   1.0617   1.0621   1.0622   1.0747   1.0748   1.0823
     1.0823   1.0924   1.0925   1.1083   1.1086   1.1186   1.1195   1.1298
     1.1301   1.1324   1.1327   1.1333   1.1337   1.1387   1.1388   1.1420
     1.1422   1.1508   1.1510   1.1521   1.1521   1.1528   1.1529   1.1567
     1.1568   1.1911   1.1912   1.1926   1.1928   1.2223   1.2226   1.2288
     1.2289   1.2289   1.2291   1.2343   1.2345   1.2469   1.2471   1.2567
     1.2568   1.2573   1.2575   1.2678   1.2680   1.2694   1.2695   1.2779
     1.2783   1.2967   1.2970   1.3016   1.3017   1.3149   1.3150   1.3294
     1.3295   1.3317   1.3318   1.3319   1.3321   1.3352   1.3353   1.3450
     1.3451   1.3455   1.3457   1.3481   1.3481   1.3495   1.3498   1.3576
     1.3578   1.3582   1.3586   1.3588   1.3589   1.3655   1.3656   1.3800
     1.3800   1.4023   1.4027   1.4049   1.4059   1.4077   1.4077   1.4093
     1.4094   1.4258   1.4258   1.4289   1.4289   1.4444   1.4445   1.4518
     1.4518   1.4648   1.4649   1.4652   1.4652   1.4845   1.4847   1.4884
     1.4885   1.4949   1.4949   1.4956   1.4958   1.4973   1.4975   1.5127
     1.5130   1.5151   1.5151   1.5293   1.5293   1.5297   1.5298   1.5415
     1.5419   1.5541   1.5543   1.5950   1.5951   1.6235   1.6235   1.6277
     1.6278   1.6676   1.6685   2.0517   2.0518   2.0522   2.0524   2.2498
     2.2499   2.2782   2.2787   2.2981   2.2982   2.3057   2.3058   2.6438
     2.6441   2.6458   2.6464   2.8464   2.8464   2.8516   2.8521   3.1962
     3.1969   3.2001   3.2009   3.4886   3.4888   3.7831   3.7842   3.7847
     3.7848   3.9382   3.9396   3.9426   3.9434   3.9798   3.9876   4.0845
     4.0864   4.0907   4.0923   4.2231   4.2243   4.4849   4.4862   4.6041
     4.6049   4.7844   4.7854   4.7889   4.7905   4.8374   4.8377   4.8886
     4.8888   5.0318   5.0324   5.0590   5.0592   5.0673   5.0685   5.0954
     5.0955   5.1174   5.1184   5.2080   5.2130   5.2255   5.2318   5.5666
     5.5672   5.5756   5.5762   5.7150   5.7160   5.9449   5.9456   6.0083
     6.0103   6.0205   6.0234   6.0705   6.0709   6.0815   6.0817   6.4757
     6.4771   6.5110   6.5150   6.5452   6.5473   6.5588   6.5606   7.1230
     7.1242   7.1382   7.1395   7.1573   7.1574   7.6151   7.6157   7.6173
     7.6175   7.6185   7.6186   7.6638   7.6641   7.8270   7.8270   7.9125
     7.9131   7.9153   7.9161   8.0815   8.0827   8.0881   8.0898   8.1677
     8.1698   8.1766   8.1785   8.2180   8.3479   8.7041   8.7107   8.7605
     8.8545   8.8548   8.8595   8.8603   8.9517   9.0281   9.0520   9.1049
     9.1055   9.1102   9.1111   9.2761   9.2763   9.5333   9.5343   9.5346
     9.5354   9.5376   9.5377   9.5390   9.5448   9.5545   9.5610   9.5614
     9.5690   9.5724   9.5728   9.6961   9.8126

          k =-0.5000-0.2165 0.0000 (256328 PWs)   bands (ev):

   -22.7649 -15.7511 -15.7490 -15.7435 -15.7421 -15.0107 -15.0097 -15.0089
   -15.0083 -13.5626 -13.5613 -13.5610 -13.5601 -11.9375 -11.9370 -11.9312
   -11.9307 -11.4954 -11.4938 -11.4926 -11.4916 -11.3158 -11.3145 -11.3116
   -11.3114  -9.6169  -9.6163  -9.6132  -9.6124  -8.6538  -8.6528  -8.6443
    -8.6438  -7.8859  -7.8856  -7.8824  -7.8822  -7.2590  -5.8092  -5.8083
    -5.8078  -5.8074  -5.1867  -5.1862  -5.1837  -5.1835  -5.1722  -5.1719
    -5.1715  -5.1712  -4.9599  -4.9581  -4.9465  -4.9447  -4.6526  -4.6348
    -4.3136  -4.3108  -4.2982  -4.2977  -4.1906  -4.1904  -4.1903  -4.1902
    -4.0850  -4.0842  -4.0839  -4.0831  -3.8354  -3.8333  -3.8286  -3.8277
    -3.5374  -3.5368  -3.5346  -3.5343  -3.5334  -3.5326  -3.5320  -3.5309
    -3.4218  -3.4206  -3.4197  -3.4184  -3.0194  -3.0154  -3.0151  -3.0142
    -2.7990  -2.5718  -2.5717  -2.5715  -2.5714  -2.5066  -2.5062  -2.5055
    -2.5045  -2.2108  -2.2100  -2.2085  -2.2082  -2.0844  -2.0842  -2.0842
    -2.0840  -2.0005  -1.9999  -1.9992  -1.9991  -1.9074  -1.9052  -1.9024
    -1.9000  -1.7953  -1.7952  -1.7939  -1.7937  -1.6906  -1.6896  -1.6892
    -1.6883  -1.4853  -1.4852  -1.4851  -1.4850  -1.4669  -1.4662  -1.4658
    -1.4655  -1.4421  -1.4415  -1.4384  -1.4383  -1.4228  -1.4227  -1.4203
    -1.4202  -1.3761  -1.3758  -1.3757  -1.3755  -1.3736  -1.3735  -1.3729
    -1.3725  -1.3488  -1.3487  -1.3484  -1.3483  -1.2978  -1.2973  -1.2968
    -1.2967  -1.2189  -1.2189  -1.2177  -1.2177  -1.1806  -1.1806  -1.1805
    -1.1803  -1.1621  -1.1621  -1.1619  -1.1617  -1.1097  -1.1096  -1.1095
    -1.1094  -1.1041  -1.1040  -1.1040  -1.1040  -1.0715  -1.0714  -1.0712
    -1.0711  -1.0482  -1.0482  -1.0472  -1.0468  -1.0311  -1.0311  -1.0301
    -1.0299  -1.0261  -1.0260  -1.0254  -1.0253  -0.9238  -0.9227  -0.9089
    -0.9075  -0.8711  -0.8710  -0.8702  -0.8700  -0.8439  -0.8439  -0.8434
    -0.8434  -0.7585  -0.7584  -0.7580  -0.7578  -0.7532  -0.7530  -0.7527
    -0.7526  -0.7499  -0.7498  -0.7495  -0.7493  -0.6898  -0.6897  -0.6895
    -0.6893  -0.6776  -0.6774  -0.6761  -0.6760  -0.6565  -0.6564  -0.6553
    -0.6550  -0.5604  -0.5603  -0.5598  -0.5598  -0.5549  -0.5549  -0.5537
    -0.5537  -0.4866  -0.4864  -0.4861  -0.4860  -0.4361  -0.4360  -0.4358
    -0.4356  -0.4153  -0.4152  -0.4149  -0.4146  -0.3887  -0.3885  -0.3867
    -0.3865  -0.3767  -0.3767  -0.3761  -0.3758  -0.3363  -0.3360  -0.3353
    -0.3350  -0.2632  -0.2631  -0.2619  -0.2618  -0.2457  -0.2457  -0.2450
    -0.2449  -0.2283  -0.2281  -0.2274  -0.2273  -0.1444  -0.1443  -0.1440
    -0.1439  -0.1402  -0.1402  -0.1396  -0.1394  -0.1373  -0.1372  -0.1369
    -0.1368  -0.0974  -0.0973  -0.0972  -0.0972  -0.0853  -0.0853  -0.0847
    -0.0846  -0.0828  -0.0828  -0.0826  -0.0826  -0.0131  -0.0130  -0.0120
    -0.0118   0.0112   0.0113   0.0121   0.0122   0.0635   0.0639   0.0684
     0.0685   0.0828   0.0838   0.0878   0.0881   0.0965   0.0967   0.0975
     0.0976   0.1021   0.1023   0.1043   0.1045   0.1048   0.1053   0.1067
     0.1067   0.1149   0.1149   0.1166   0.1167   0.1217   0.1218   0.1241
     0.1241   0.1375   0.1376   0.1381   0.1382   0.1664   0.1665   0.1669
     0.1670   0.1758   0.1759   0.1765   0.1766   0.2232   0.2234   0.2242
     0.2243   0.2563   0.2563   0.2563   0.2565   0.3268   0.3287   0.3327
     0.3330   0.3405   0.3406   0.3424   0.3425   0.3566   0.3571   0.3572
     0.3575   0.3722   0.3724   0.3743   0.3744   0.3749   0.3751   0.3769
     0.3773   0.3824   0.3831   0.3841   0.3843   0.3947   0.3963   0.3969
     0.3975   0.4186   0.4205   0.4227   0.4227   0.4690   0.4694   0.4698
     0.4703   0.4725   0.4726   0.4742   0.4744   0.4852   0.4852   0.4856
     0.4857   0.5214   0.5215   0.5232   0.5233   0.5235   0.5239   0.5246
     0.5246   0.5688   0.5691   0.5692   0.5695   0.5806   0.5807   0.5815
     0.5815   0.5875   0.5876   0.5887   0.5891   0.5898   0.5900   0.5901
     0.5907   0.6063   0.6065   0.6070   0.6072   0.6233   0.6234   0.6240
     0.6242   0.6918   0.6923   0.6944   0.6949   0.6959   0.6962   0.6967
     0.6976   0.7073   0.7074   0.7081   0.7084   0.7273   0.7277   0.7316
     0.7321   0.7439   0.7440   0.7449   0.7450   0.7467   0.7469   0.7472
     0.7472   0.7979   0.7982   0.7998   0.8000   0.8262   0.8266   0.8274
     0.8276   0.8534   0.8539   0.8555   0.8559   0.8619   0.8622   0.8627
     0.8627   0.8869   0.8873   0.8894   0.8896   0.9390   0.9392   0.9403
     0.9403   0.9732   0.9733   0.9744   0.9746   1.0265   1.0267   1.0277
     1.0278   1.0423   1.0426   1.0441   1.0449   1.0549   1.0551   1.0559
     1.0563   1.0599   1.0600   1.0604   1.0604   1.0634   1.0635   1.0648
     1.0650   1.0923   1.0926   1.0928   1.0929   1.0963   1.0965   1.0976
     1.0979   1.1006   1.1013   1.1016   1.1022   1.1154   1.1161   1.1163
     1.1170   1.1392   1.1393   1.1399   1.1402   1.1507   1.1513   1.1515
     1.1517   1.1603   1.1603   1.1605   1.1607   1.2091   1.2093   1.2106
     1.2109   1.2114   1.2114   1.2173   1.2176   1.2378   1.2379   1.2379
     1.2380   1.2540   1.2541   1.2584   1.2587   1.2770   1.2772   1.2774
     1.2774   1.2859   1.2861   1.2864   1.2864   1.2947   1.2949   1.2962
     1.2963   1.3029   1.3029   1.3032   1.3033   1.3683   1.3685   1.3692
     1.3692   1.3702   1.3702   1.3710   1.3710   1.3813   1.3814   1.3821
     1.3824   1.3895   1.3897   1.3908   1.3909   1.3979   1.3980   1.3989
     1.3990   1.4037   1.4039   1.4053   1.4056   1.4107   1.4107   1.4113
     1.4114   1.4233   1.4235   1.4248   1.4249   1.4317   1.4317   1.4328
     1.4328   1.4647   1.4648   1.4651   1.4651   1.4799   1.4799   1.4812
     1.4813   1.4954   1.4960   1.4971   1.4974   1.5171   1.5172   1.5173
     1.5173   1.5733   1.5734   1.5753   1.5756   1.5895   1.5896   1.5902
     1.5903   1.6199   1.6206   1.6217   1.6220   1.6295   1.6297   1.6302
     1.6303   1.6320   1.6322   1.6330   1.6334   1.8518   1.8519   1.8524
     1.8525   2.3660   2.3664   2.3698   2.3704   2.5716   2.5717   2.5741
     2.5741   2.8159   2.8160   2.8160   2.8161   3.1181   3.1187   3.1194
     3.1197   3.4652   3.4653   3.4658   3.4658   3.6578   3.6581   3.6605
     3.6607   3.9406   3.9407   3.9420   3.9421   3.9764   3.9877   4.2407
     4.2408   4.2440   4.2446   4.3665   4.3668   4.3741   4.3767   4.5835
     4.5844   4.5864   4.5870   4.6168   4.6173   4.6237   4.6245   4.9233
     4.9250   4.9263   4.9277   5.0918   5.0926   5.1187   5.1197   5.1955
     5.1959   5.2007   5.2009   5.3344   5.3382   5.3576   5.3605   5.3852
     5.3886   5.3891   5.3903   5.7590   5.7605   5.7611   5.7614   5.7758
     5.7765   5.7852   5.7859   5.9297   5.9311   5.9403   5.9433   6.7920
     6.7923   6.7980   6.7982   7.1458   7.1465   7.1492   7.1504   7.1803
     7.1804   7.1817   7.1818   7.3195   7.3206   7.3228   7.3269   7.3860
     7.3861   7.3865   7.3866   7.6519   7.6528   7.6568   7.6570   7.9986
     8.0030   8.0081   8.0086   8.0819   8.0838   8.0907   8.0937   8.2640
     8.2645   8.2715   8.2723   8.2809   8.3931   8.4281   8.5524   8.9210
     8.9211   8.9214   8.9218   8.9385   8.9400   8.9407   8.9477   8.9910
     8.9912   8.9914   8.9918   9.1457   9.1497   9.1625   9.1638   9.3113
     9.3476   9.3764   9.5639   9.5648   9.5852   9.5853   9.5916   9.6173
     9.6180   9.6192   9.6327   9.7752   9.8825

     the Fermi energy is     3.3377 ev

!    total energy              =  -12750.25075259 Ry
     Harris-Foulkes estimate   =  -12750.25075260 Ry
     estimated scf accuracy    <          4.8E-09 Ry

     The total energy is the sum of the following terms:

     one-electron contribution = -107937.27655607 Ry
     hartree contribution      =   55335.97369864 Ry
     xc contribution           =   -4458.00306265 Ry
     ewald contribution        =   44315.46833356 Ry
     Dispersion Correction     =      -3.00097539 Ry
     smearing contrib. (-TS)   =      -3.41219068 Ry

     convergence has been achieved in  44 iterations

     Writing output data file gc.save
 
     init_run     :    192.05s CPU    206.02s WALL (       1 calls)
     electrons    :  24181.88s CPU  25731.62s WALL (       1 calls)

     Called by init_run:
     wfcinit      :    189.00s CPU    202.46s WALL (       1 calls)
     potinit      :      1.00s CPU      1.04s WALL (       1 calls)

     Called by electrons:
     c_bands      :  22020.87s CPU  23408.33s WALL (      44 calls)
     sum_band     :   1747.53s CPU   1848.11s WALL (      44 calls)
     v_of_rho     :      5.61s CPU      7.10s WALL (      45 calls)
     newd         :     15.71s CPU     29.41s WALL (      45 calls)
     mix_rho      :    392.08s CPU    438.87s WALL (      44 calls)

     Called by c_bands:
     init_us_2    :     81.54s CPU     82.94s WALL (     534 calls)
     cegterg      :  21689.45s CPU  23063.72s WALL (     270 calls)

     Called by sum_band:
     sum_band:bec :      4.80s CPU      5.36s WALL (     264 calls)
     addusdens    :     22.21s CPU     34.52s WALL (      44 calls)

     Called by *egterg:
     h_psi        :   7931.32s CPU   8547.93s WALL (    1865 calls)
     s_psi        :   1956.45s CPU   1968.27s WALL (    1865 calls)
     g_psi        :     20.77s CPU     20.79s WALL (    1589 calls)
     cdiaghg      :   6177.72s CPU   6484.00s WALL (    1853 calls)

     Called by h_psi:
     add_vuspsi   :   1962.17s CPU   1976.88s WALL (    1865 calls)

     General routines
     calbec       :   2681.13s CPU   2701.83s WALL (    2129 calls)
     fft          :      4.59s CPU      5.59s WALL (     584 calls)
     ffts         :    172.74s CPU    206.59s WALL (   24553 calls)
     fftw         :   3962.82s CPU   4576.84s WALL ( 1288582 calls)
     davcio       :      0.39s CPU      8.53s WALL (       6 calls)
 
     Parallel routines
     fft_scatter  :   2056.58s CPU   2349.82s WALL ( 1313719 calls)
 
     PWSCF        :     6h46m CPU        7h12m WALL

 
   This run was terminated on:   0: 2:46   9Sep2017            

=------------------------------------------------------------------------------=
   JOB DONE.
=------------------------------------------------------------------------------=
