mpirun: INFO: switching to OpenMPI runtime version 1.10.2

     Program PWSCF v.5.4.0 starts on 30Jan2018 at 10:31:32 

     This program is part of the open-source Quantum ESPRESSO suite
     for quantum simulation of materials; please cite
         "P. Giannozzi et al., J. Phys.:Condens. Matter 21 395502 (2009);
          URL http://www.quantum-espresso.org", 
     in publications or presentations arising from this work. More details at
     http://www.quantum-espresso.org/quote

     Parallel version (MPI & OpenMP), running on      28 processor cores
     Number of MPI processes:                28
     Threads/MPI process:                     1
     R & G space division:  proc/nbgrp/npool/nimage =      28
     Waiting for input...
     Reading input from standard input
Warning: card &IONS ignored
Warning: card / ignored

     Current dimensions of program PWSCF are:
     Max number of different atomic species (ntypx) = 10
     Max number of k-points (npk) =  40000
     Max angular momentum in pseudopotentials (lmaxx) =  3

     -------------------------------------
     Parameters for Dispersion Correction:
     -------------------------------------
       atom      VdW radius       C_6     

        Cu         2.952        374.666
        C_h        2.744         60.710
        C          2.744         60.710

     Subspace diagonalization in iterative solution of the eigenvalue problem:
     one sub-group per band group will be used
     scalapack distributed-memory algorithm (size of sub-group:  3*  3 procs)

 
     Parallelization info
     --------------------
     sticks:   dense  smooth     PW     G-vecs:    dense   smooth      PW
     Min         408     408    108                73226    73226    9928
     Max         410     410    109                73231    73231    9931
     Sum       11433   11433   3039              2050409  2050409  278033
 


     bravais-lattice index     =            0
     lattice parameter (alat)  =      13.9425  a.u.
     unit-cell volume          =   21209.0878 (a.u.)^3
     number of atoms/cell      =          148
     number of atomic types    =            3
     number of electrons       =      1292.00
     number of Kohn-Sham states=          775
     kinetic-energy cutoff     =      80.0000  Ry
     charge density cutoff     =     320.0000  Ry
     convergence threshold     =      1.0E-08
     mixing beta               =       0.7000
     number of iterations used =            8  local-TF  mixing
     Exchange-correlation      =  SLA  PW   PBX  PBC ( 1  4  3  4 0 0)

     celldm(1)=  13.942539  celldm(2)=   0.000000  celldm(3)=   0.000000
     celldm(4)=   0.000000  celldm(5)=   0.000000  celldm(6)=   0.000000

     crystal axes: (cart. coord. in units of alat)
               a(1) = (   1.000000   0.000000   0.000000 )  
               a(2) = (   0.000000   2.309401   0.000000 )  
               a(3) = (   0.000000   0.000000   3.388418 )  

     reciprocal axes: (cart. coord. in units 2 pi/alat)
               b(1) = (  1.000000  0.000000  0.000000 )  
               b(2) = (  0.000000  0.433013  0.000000 )  
               b(3) = (  0.000000  0.000000  0.295123 )  


     PseudoPot. # 1 for Cu read from file:
     /home/549/hxw549/Short/pseudopotentials/Cu.pbe-n-van_ak.UPF
     MD5 check sum: 601f7c30f7467666bec936e0661ce3e1
     Pseudo is Ultrasoft + core correction, Zval = 11.0
     Generated by new atomic code, or converted to UPF format
     Using radial grid of  867 points,  6 beta functions with: 
                l(1) =   0
                l(2) =   0
                l(3) =   1
                l(4) =   1
                l(5) =   2
                l(6) =   2
     Q(r) pseudized with  8 coefficients,  rinner =    1.400   1.400   1.400
                                                       1.400   1.400

     PseudoPot. # 2 for C  read from file:
     /home/549/hxw549/Short/pseudopotentials/C.star1s-pbe-mt_gipaw.UPF
     MD5 check sum: ef0cb3dee31bd9e4ba2a832a2c716264
     Pseudo is Norm-conserving, Zval =  5.0
     Generated by new atomic code, or converted to UPF format
     Using radial grid of 1073 points,  1 beta functions with: 
                l(1) =   0

     PseudoPot. # 3 for C  read from file:
     /home/549/hxw549/Short/pseudopotentials/C.pbe-mt_gipaw.UPF
     MD5 check sum: 5ac2f21f2c440b14befe521540822c15
     Pseudo is Norm-conserving, Zval =  4.0
     Generated by new atomic code, or converted to UPF format
     Using radial grid of 1073 points,  1 beta functions with: 
                l(1) =   0

     atomic species   valence    mass     pseudopotential
        Cu            11.00    63.54600     Cu( 1.00)
        C_h            5.00    12.01070     C ( 1.00)
        C              4.00    12.01070     C ( 1.00)

      2 Sym. Ops. (no inversion) found



   Cartesian axes

     site n.     atom                  positions (alat units)
         1           Cu  tau(   1) = (   0.0000000   0.0000567   0.9971194  )
         2           Cu  tau(   2) = (   0.2499927   0.2309760   0.9972946  )
         3           Cu  tau(   3) = (   0.5000000   0.0000313   0.9971490  )
         4           Cu  tau(   4) = (   0.7500073   0.2309760   0.9972946  )
         5           Cu  tau(   5) = (   0.0000000   0.4618437   0.9973425  )
         6           Cu  tau(   6) = (   0.2499840   0.6927701   0.9971914  )
         7           Cu  tau(   7) = (   0.5000000   0.4618722   0.9973119  )
         8           Cu  tau(   8) = (   0.7500160   0.6927701   0.9971914  )
         9           Cu  tau(   9) = (   0.0000000   0.9237521   0.9970621  )
        10           Cu  tau(  10) = (   0.2500157   1.1547420   0.9971373  )
        11           Cu  tau(  11) = (   0.5000000   0.9237453   0.9970727  )
        12           Cu  tau(  12) = (   0.7499843   1.1547420   0.9971373  )
        13           Cu  tau(  13) = (   0.0000000   1.3856555   0.9972830  )
        14           Cu  tau(  14) = (   0.2500029   1.6165618   0.9973242  )
        15           Cu  tau(  15) = (   0.5000000   1.3857014   0.9973005  )
        16           Cu  tau(  16) = (   0.7499971   1.6165618   0.9973242  )
        17           Cu  tau(  17) = (   0.0000000   1.8474941   0.9971969  )
        18           Cu  tau(  18) = (   0.2500043   2.0784518   0.9970745  )
        19           Cu  tau(  19) = (   0.5000000   1.8474499   0.9971773  )
        20           Cu  tau(  20) = (   0.7499957   2.0784518   0.9970745  )
        21           Cu  tau(  21) = (   0.0000000   0.2308065   1.2457643  )
        22           Cu  tau(  22) = (   0.2499892  -0.0001010   1.2455764  )
        23           Cu  tau(  23) = (   0.5000000   0.2308938   1.2456746  )
        24           Cu  tau(  24) = (   0.7500108  -0.0001010   1.2455764  )
        25           Cu  tau(  25) = (   0.0000000   0.6929786   1.2456406  )
        26           Cu  tau(  26) = (   0.2499874   0.4619293   1.2457459  )
        27           Cu  tau(  27) = (   0.5000000   0.6929012   1.2456074  )
        28           Cu  tau(  28) = (   0.7500126   0.4619293   1.2457459  )
        29           Cu  tau(  29) = (   0.0000000   1.1546142   1.2455676  )
        30           Cu  tau(  30) = (   0.2499981   0.9237849   1.2455149  )
        31           Cu  tau(  31) = (   0.5000000   1.1545763   1.2455800  )
        32           Cu  tau(  32) = (   0.7500019   0.9237849   1.2455149  )
        33           Cu  tau(  33) = (   0.0000000   1.6166029   1.2456910  )
        34           Cu  tau(  34) = (   0.2500161   1.3855492   1.2457134  )
        35           Cu  tau(  35) = (   0.5000000   1.6166555   1.2458019  )
        36           Cu  tau(  36) = (   0.7499839   1.3855492   1.2457134  )
        37           Cu  tau(  37) = (   0.0000000   2.0784993   1.2455162  )
        38           Cu  tau(  38) = (   0.2500161   1.8476387   1.2456210  )
        39           Cu  tau(  39) = (   0.5000000   2.0784755   1.2455152  )
        40           Cu  tau(  40) = (   0.7499839   1.8476387   1.2456210  )
        41           Cu  tau(  41) = (   0.0000000  -0.0003182   1.4954305  )
        42           Cu  tau(  42) = (   0.2500224   0.2307186   1.4951678  )
        43           Cu  tau(  43) = (   0.5000000  -0.0002059   1.4952775  )
        44           Cu  tau(  44) = (   0.7499776   0.2307186   1.4951678  )
        45           Cu  tau(  45) = (   0.0000000   0.4620254   1.4950571  )
        46           Cu  tau(  46) = (   0.2500339   0.6931225   1.4952807  )
        47           Cu  tau(  47) = (   0.5000000   0.4619896   1.4952144  )
        48           Cu  tau(  48) = (   0.7499661   0.6931225   1.4952807  )
        49           Cu  tau(  49) = (   0.0000000   0.9238798   1.4954544  )
        50           Cu  tau(  50) = (   0.2499708   1.1544329   1.4953374  )
        51           Cu  tau(  51) = (   0.5000000   0.9237633   1.4954072  )
        52           Cu  tau(  52) = (   0.7500292   1.1544329   1.4953374  )
        53           Cu  tau(  53) = (   0.0000000   1.3854453   1.4952066  )
        54           Cu  tau(  54) = (   0.2499861   1.6167017   1.4951298  )
        55           Cu  tau(  55) = (   0.5000000   1.3853760   1.4951346  )
        56           Cu  tau(  56) = (   0.7500139   1.6167017   1.4951298  )
        57           Cu  tau(  57) = (   0.0000000   1.8477718   1.4952308  )
        58           Cu  tau(  58) = (   0.2499930   2.0785254   1.4954090  )
        59           Cu  tau(  59) = (   0.5000000   1.8478762   1.4953503  )
        60           Cu  tau(  60) = (   0.7500070   2.0785254   1.4954090  )
        61           Cu  tau(  61) = (   0.0000000   0.2310733   1.7440777  )
        62           Cu  tau(  62) = (   0.2501089  -0.0001294   1.7450479  )
        63           Cu  tau(  63) = (   0.5000000   0.2306045   1.7445985  )
        64           Cu  tau(  64) = (   0.7498911  -0.0001294   1.7450479  )
        65           Cu  tau(  65) = (   0.0000000   0.6927994   1.7446059  )
        66           Cu  tau(  66) = (   0.2502918   0.4619532   1.7441197  )
        67           Cu  tau(  67) = (   0.5000000   0.6931011   1.7451318  )
        68           Cu  tau(  68) = (   0.7497082   0.4619532   1.7441197  )
        69           Cu  tau(  69) = (   0.0000000   1.1545789   1.7453503  )
        70           Cu  tau(  70) = (   0.2500220   0.9237908   1.7453835  )
        71           Cu  tau(  71) = (   0.5000000   1.1545999   1.7449118  )
        72           Cu  tau(  72) = (   0.7499780   0.9237908   1.7453835  )
        73           Cu  tau(  73) = (   0.0000000   1.6167791   1.7444075  )
        74           Cu  tau(  74) = (   0.2497438   1.3855115   1.7442733  )
        75           Cu  tau(  75) = (   0.5000000   1.6164906   1.7439233  )
        76           Cu  tau(  76) = (   0.7502562   1.3855115   1.7442733  )
        77           Cu  tau(  77) = (   0.0000000   2.0782721   1.7455014  )
        78           Cu  tau(  78) = (   0.2498426   1.8476765   1.7447807  )
        79           Cu  tau(  79) = (   0.5000000   2.0787016   1.7454002  )
        80           Cu  tau(  80) = (   0.7501574   1.8476765   1.7447807  )
        81           Cu  tau(  81) = (   0.0000000   0.0010732   1.9906710  )
        82           Cu  tau(  82) = (   0.2503054   0.2314650   1.9904877  )
        83           Cu  tau(  83) = (   0.5000000   0.0001335   1.9924670  )
        84           Cu  tau(  84) = (   0.7496946   0.2314650   1.9904877  )
        85           Cu  tau(  85) = (   0.0000000   0.4618379   1.9901778  )
        86           Cu  tau(  86) = (   0.2508441   0.6921348   1.9910282  )
        87           Cu  tau(  87) = (   0.5000000   0.4613052   1.9913358  )
        88           Cu  tau(  88) = (   0.7491559   0.6921348   1.9910282  )
        89           Cu  tau(  89) = (   0.0000000   0.9224699   1.9915918  )
        90           Cu  tau(  90) = (   0.2491275   1.1552920   1.9912642  )
        91           Cu  tau(  91) = (   0.5000000   0.9247757   1.9920574  )
        92           Cu  tau(  92) = (   0.7508725   1.1552920   1.9912642  )
        93           Cu  tau(  93) = (   0.0000000   1.3865904   1.9916296  )
        94           Cu  tau(  94) = (   0.2499532   1.6162906   1.9903050  )
        95           Cu  tau(  95) = (   0.5000000   1.3858063   1.9901800  )
        96           Cu  tau(  96) = (   0.7500468   1.6162906   1.9903050  )
        97           Cu  tau(  97) = (   0.0000000   1.8468318   1.9923212  )
        98           Cu  tau(  98) = (   0.2497561   2.0783183   1.9915134  )
        99           Cu  tau(  99) = (   0.5000000   1.8467805   1.9903847  )
       100           Cu  tau( 100) = (   0.7502439   2.0783183   1.9915134  )
       101           C   tau( 101) = (   0.0000000   0.0962962   2.4368284  )
       102           C   tau( 102) = (   0.0000000   0.2886925   2.4379804  )
       103           C   tau( 103) = (   0.1666323   0.0000435   2.3878725  )
       104           C   tau( 104) = (   0.1664900   0.3848966   2.3886722  )
       105           C   tau( 105) = (   0.3331238   0.0962174   2.4339279  )
       106           C   tau( 106) = (   0.3331280   0.2886629   2.4336026  )
       107           C   tau( 107) = (   0.5000000  -0.0000818   2.3845247  )
       108           C   tau( 108) = (   0.5000000   0.3849277   2.3842266  )
       109           C   tau( 109) = (   0.6668762   0.0962174   2.4339279  )
       110           C   tau( 110) = (   0.6668720   0.2886629   2.4336026  )
       111           C   tau( 111) = (   0.8333677   0.0000435   2.3878725  )
       112           C   tau( 112) = (   0.8335100   0.3848966   2.3886722  )
       113           C   tau( 113) = (   0.0000000   0.6735163   2.3413021  )
       114           C   tau( 114) = (   0.0000000   0.8659398   2.4349851  )
       115           C   tau( 115) = (   0.1664759   0.5773226   2.3205108  )
       116           C   tau( 116) = (   0.1667428   0.9622141   2.4548005  )
       117           C   tau( 117) = (   0.3332094   0.6735984   2.3379001  )
       118           C   tau( 118) = (   0.3332031   0.8660537   2.4345514  )
       119           C   tau( 119) = (   0.5000000   0.5773685   2.3170817  )
       120           C_h tau( 120) = (   0.5000000   0.9623380   2.4538518  )
       121           C   tau( 121) = (   0.6667906   0.6735984   2.3379001  )
       122           C   tau( 122) = (   0.6667969   0.8660537   2.4345514  )
       123           C   tau( 123) = (   0.8335241   0.5773226   2.3205108  )
       124           C   tau( 124) = (   0.8332572   0.9622141   2.4548005  )
       125           C   tau( 125) = (   0.0000000   1.2508867   2.3373580  )
       126           C   tau( 126) = (   0.0000000   1.4433300   2.3361517  )
       127           C   tau( 127) = (   0.1667360   1.1546708   2.3859885  )
       128           C   tau( 128) = (   0.1668939   1.5396104   2.3857175  )
       129           C   tau( 129) = (   0.3335095   1.2509657   2.3399603  )
       130           C   tau( 130) = (   0.3334866   1.4433958   2.3407464  )
       131           C   tau( 131) = (   0.5000000   1.1547731   2.3885095  )
       132           C   tau( 132) = (   0.5000000   1.5396099   2.3901495  )
       133           C   tau( 133) = (   0.6664905   1.2509657   2.3399603  )
       134           C   tau( 134) = (   0.6665134   1.4433958   2.3407464  )
       135           C   tau( 135) = (   0.8332640   1.1546708   2.3859885  )
       136           C   tau( 136) = (   0.8331061   1.5396104   2.3857175  )
       137           C   tau( 137) = (   0.0000000   1.8283510   2.4320981  )
       138           C   tau( 138) = (   0.0000000   2.0207949   2.3383880  )
       139           C   tau( 139) = (   0.1668959   1.7320513   2.4536349  )
       140           C   tau( 140) = (   0.1666186   2.1169980   2.3187623  )
       141           C   tau( 141) = (   0.3334155   1.8282368   2.4361507  )
       142           C   tau( 142) = (   0.3334352   2.0206763   2.3390522  )
       143           C   tau( 143) = (   0.5000000   1.7319961   2.4573080  )
       144           C   tau( 144) = (   0.5000000   2.1168754   2.3192503  )
       145           C   tau( 145) = (   0.6665845   1.8282368   2.4361507  )
       146           C   tau( 146) = (   0.6665648   2.0206763   2.3390522  )
       147           C   tau( 147) = (   0.8331041   1.7320513   2.4536349  )
       148           C   tau( 148) = (   0.8333814   2.1169980   2.3187623  )

     number of k points=     6  gaussian smearing, width (Ry)=  0.1000
                       cart. coord. in units 2pi/alat
        k(    1) = (   0.0000000   0.0000000   0.0000000), wk =   0.2500000
        k(    2) = (   0.0000000  -0.2165064   0.0000000), wk =   0.2500000
        k(    3) = (   0.2500000   0.0000000   0.0000000), wk =   0.5000000
        k(    4) = (   0.2500000  -0.2165064   0.0000000), wk =   0.5000000
        k(    5) = (  -0.5000000   0.0000000   0.0000000), wk =   0.2500000
        k(    6) = (  -0.5000000  -0.2165064   0.0000000), wk =   0.2500000

     Dense  grid:  2050409 G-vectors     FFT dimensions: (  80, 192, 270)

     Largest allocated arrays     est. size (Mb)     dimensions
        Kohn-Sham Wavefunctions       108.45 Mb     (    9171,  775)
        NL pseudopotentials           258.61 Mb     (    9171, 1848)
        Each V/rho on FFT grid          2.34 Mb     (  153600)
        Each G-vector array             0.56 Mb     (   73230)
        G-vector shells                 0.27 Mb     (   35784)
     Largest temporary arrays     est. size (Mb)     dimensions
        Auxiliary wavefunctions       433.81 Mb     (    9171, 3100)
        Each subspace H/S matrix       16.28 Mb     (    1033, 1033)
        Each <psi_i|beta_j> matrix     21.85 Mb     (    1848,  775)
        Arrays for rho mixing          18.75 Mb     (  153600,    8)

     Initial potential from superposition of free atoms
     Check: negative starting charge=   -0.001798

     starting charge 1266.81751, renormalised to 1292.00000

     negative rho (up, down):  1.834E-03 0.000E+00
     Starting wfc are 1284 randomized atomic wfcs

     total cpu time spent up to now is      198.1 secs

     Self-consistent Calculation

     iteration #  1     ecut=    80.00 Ry     beta=0.70
     Davidson diagonalization with overlap
     c_bands:  1 eigenvalues not converged
     c_bands:  1 eigenvalues not converged
     ethr =  1.00E-04,  avg # of iterations = 34.8

     negative rho (up, down):  2.777E+01 0.000E+00

     total cpu time spent up to now is     4017.7 secs

     total energy              =   -9522.56178576 Ry
     Harris-Foulkes estimate   =  -17291.24191474 Ry
     estimated scf accuracy    <  180099.15542568 Ry

     iteration #  2     ecut=    80.00 Ry     beta=0.70
     Davidson diagonalization with overlap
     ethr =  1.00E-02,  avg # of iterations = 12.8

     negative rho (up, down):  3.116E+01 0.000E+00

     total cpu time spent up to now is     5826.2 secs

     total energy              =  -12182.87095416 Ry
     Harris-Foulkes estimate   =  -13659.47707917 Ry
     estimated scf accuracy    <   24114.21074920 Ry

     iteration #  3     ecut=    80.00 Ry     beta=0.70
     Davidson diagonalization with overlap
     ethr =  1.00E-02,  avg # of iterations =  7.2

     negative rho (up, down):  3.114E+01 0.000E+00

     total cpu time spent up to now is     6901.9 secs

     total energy              =  -12455.42361301 Ry
     Harris-Foulkes estimate   =  -13403.13901418 Ry
     estimated scf accuracy    <    5771.69408636 Ry

     iteration #  4     ecut=    80.00 Ry     beta=0.70
     Davidson diagonalization with overlap
     ethr =  1.00E-02,  avg # of iterations =  5.7

     negative rho (up, down):  2.229E+01 0.000E+00

     total cpu time spent up to now is     7854.5 secs

     total energy              =  -12843.58145607 Ry
     Harris-Foulkes estimate   =  -13076.58505900 Ry
     estimated scf accuracy    <    1721.16678985 Ry

     iteration #  5     ecut=    80.00 Ry     beta=0.70
     Davidson diagonalization with overlap
     ethr =  1.00E-02,  avg # of iterations =  4.0

     negative rho (up, down):  1.705E+01 0.000E+00

     total cpu time spent up to now is     8399.8 secs

     total energy              =  -12838.17461725 Ry
     Harris-Foulkes estimate   =  -12947.98807039 Ry
     estimated scf accuracy    <    1190.44858279 Ry

     iteration #  6     ecut=    80.00 Ry     beta=0.70
     Davidson diagonalization with overlap
     ethr =  1.00E-02,  avg # of iterations =  3.0

     negative rho (up, down):  1.179E+01 0.000E+00

     total cpu time spent up to now is     8785.0 secs

     total energy              =  -12825.58052682 Ry
     Harris-Foulkes estimate   =  -12895.62803725 Ry
     estimated scf accuracy    <     550.15742705 Ry

     iteration #  7     ecut=    80.00 Ry     beta=0.70
     Davidson diagonalization with overlap
     ethr =  1.00E-02,  avg # of iterations =  2.0

     negative rho (up, down):  8.394E+00 0.000E+00

     total cpu time spent up to now is     9131.4 secs

     total energy              =  -12798.39536868 Ry
     Harris-Foulkes estimate   =  -12842.66348661 Ry
     estimated scf accuracy    <     432.93797558 Ry

     iteration #  8     ecut=    80.00 Ry     beta=0.70
     Davidson diagonalization with overlap
     ethr =  1.00E-02,  avg # of iterations =  2.0

     negative rho (up, down):  6.897E+00 0.000E+00

     total cpu time spent up to now is     9472.3 secs

     total energy              =  -12783.98043936 Ry
     Harris-Foulkes estimate   =  -12813.95019837 Ry
     estimated scf accuracy    <     467.86247860 Ry

     iteration #  9     ecut=    80.00 Ry     beta=0.70
     Davidson diagonalization with overlap
     ethr =  1.00E-02,  avg # of iterations =  2.2

     negative rho (up, down):  5.970E+00 0.000E+00

     total cpu time spent up to now is     9812.4 secs

     total energy              =  -12783.03730773 Ry
     Harris-Foulkes estimate   =  -12795.41432667 Ry
     estimated scf accuracy    <     203.70523883 Ry

     iteration # 10     ecut=    80.00 Ry     beta=0.70
     Davidson diagonalization with overlap
     ethr =  1.00E-02,  avg # of iterations =  1.0

     negative rho (up, down):  1.243E+00 0.000E+00

     total cpu time spent up to now is    10130.1 secs

     total energy              =  -12736.66754613 Ry
     Harris-Foulkes estimate   =  -12785.25423628 Ry
     estimated scf accuracy    <     168.92652255 Ry

     iteration # 11     ecut=    80.00 Ry     beta=0.70
     Davidson diagonalization with overlap
     ethr =  1.00E-02,  avg # of iterations =  3.2

     negative rho (up, down):  7.113E-01 0.000E+00

     total cpu time spent up to now is    10496.8 secs

     total energy              =  -12722.40014496 Ry
     Harris-Foulkes estimate   =  -12749.87461434 Ry
     estimated scf accuracy    <     544.91862678 Ry

     iteration # 12     ecut=    80.00 Ry     beta=0.70
     Davidson diagonalization with overlap
     ethr =  1.00E-02,  avg # of iterations =  2.0

     negative rho (up, down):  4.710E-01 0.000E+00

     total cpu time spent up to now is    10833.5 secs

     total energy              =  -12727.07239553 Ry
     Harris-Foulkes estimate   =  -12739.54643153 Ry
     estimated scf accuracy    <     300.29358290 Ry

     iteration # 13     ecut=    80.00 Ry     beta=0.70
     Davidson diagonalization with overlap
     ethr =  1.00E-02,  avg # of iterations =  1.0

     negative rho (up, down):  1.640E+00 0.000E+00

     total cpu time spent up to now is    11149.4 secs

     total energy              =  -12717.16847295 Ry
     Harris-Foulkes estimate   =  -12736.02483092 Ry
     estimated scf accuracy    <      80.05932709 Ry

     iteration # 14     ecut=    80.00 Ry     beta=0.70
     Davidson diagonalization with overlap
     ethr =  6.20E-03,  avg # of iterations =  2.0

     negative rho (up, down):  4.690E+00 0.000E+00

     total cpu time spent up to now is    11492.2 secs

     total energy              =  -12714.40042489 Ry
     Harris-Foulkes estimate   =  -12726.10600827 Ry
     estimated scf accuracy    <      69.72878793 Ry

     iteration # 15     ecut=    80.00 Ry     beta=0.70
     Davidson diagonalization with overlap
     ethr =  5.40E-03,  avg # of iterations =  1.3

     negative rho (up, down):  5.523E+00 0.000E+00

     total cpu time spent up to now is    11815.6 secs

     total energy              =  -12714.82085758 Ry
     Harris-Foulkes estimate   =  -12718.07898996 Ry
     estimated scf accuracy    <      31.28152332 Ry

     iteration # 16     ecut=    80.00 Ry     beta=0.70
     Davidson diagonalization with overlap
     ethr =  2.42E-03,  avg # of iterations =  5.2

     negative rho (up, down):  4.929E+00 0.000E+00

     total cpu time spent up to now is    12222.7 secs

     total energy              =  -12713.49816520 Ry
     Harris-Foulkes estimate   =  -12715.67568572 Ry
     estimated scf accuracy    <      20.34934758 Ry

     iteration # 17     ecut=    80.00 Ry     beta=0.70
     Davidson diagonalization with overlap
     ethr =  1.58E-03,  avg # of iterations =  3.0

     negative rho (up, down):  3.869E+00 0.000E+00

     total cpu time spent up to now is    12584.5 secs

     total energy              =  -12712.48823764 Ry
     Harris-Foulkes estimate   =  -12713.95297467 Ry
     estimated scf accuracy    <      13.49545761 Ry

     iteration # 18     ecut=    80.00 Ry     beta=0.70
     Davidson diagonalization with overlap
     ethr =  1.04E-03,  avg # of iterations =  2.8

     negative rho (up, down):  2.999E+00 0.000E+00

     total cpu time spent up to now is    12936.3 secs

     total energy              =  -12711.21242545 Ry
     Harris-Foulkes estimate   =  -12712.72064752 Ry
     estimated scf accuracy    <       9.55652339 Ry

     iteration # 19     ecut=    80.00 Ry     beta=0.70
     Davidson diagonalization with overlap
     ethr =  7.40E-04,  avg # of iterations =  4.7

     negative rho (up, down):  2.654E+00 0.000E+00

     total cpu time spent up to now is    13330.2 secs

     total energy              =  -12710.49415532 Ry
     Harris-Foulkes estimate   =  -12711.51176075 Ry
     estimated scf accuracy    <       9.06766157 Ry

     iteration # 20     ecut=    80.00 Ry     beta=0.70
     Davidson diagonalization with overlap
     ethr =  7.02E-04,  avg # of iterations =  3.5

     negative rho (up, down):  2.237E+00 0.000E+00

     total cpu time spent up to now is    13700.9 secs

     total energy              =  -12710.48165806 Ry
     Harris-Foulkes estimate   =  -12710.69345494 Ry
     estimated scf accuracy    <       9.42107060 Ry

     iteration # 21     ecut=    80.00 Ry     beta=0.70
     Davidson diagonalization with overlap
     ethr =  7.02E-04,  avg # of iterations =  2.0

     negative rho (up, down):  2.136E+00 0.000E+00

     total cpu time spent up to now is    14039.2 secs

     total energy              =  -12710.07498837 Ry
     Harris-Foulkes estimate   =  -12710.65591259 Ry
     estimated scf accuracy    <       7.24768988 Ry

     iteration # 22     ecut=    80.00 Ry     beta=0.70
     Davidson diagonalization with overlap
     ethr =  5.61E-04,  avg # of iterations =  1.3

     negative rho (up, down):  1.350E+00 0.000E+00

     total cpu time spent up to now is    14361.2 secs

     total energy              =  -12709.05515023 Ry
     Harris-Foulkes estimate   =  -12710.32951943 Ry
     estimated scf accuracy    <       6.90996472 Ry

     iteration # 23     ecut=    80.00 Ry     beta=0.70
     Davidson diagonalization with overlap
     ethr =  5.35E-04,  avg # of iterations =  1.0

     negative rho (up, down):  3.067E-01 0.000E+00

     total cpu time spent up to now is    14679.5 secs

     total energy              =  -12706.92911500 Ry
     Harris-Foulkes estimate   =  -12709.18103180 Ry
     estimated scf accuracy    <       5.60924725 Ry

     iteration # 24     ecut=    80.00 Ry     beta=0.70
     Davidson diagonalization with overlap
     ethr =  4.34E-04,  avg # of iterations =  5.0

     negative rho (up, down):  1.400E-01 0.000E+00

     total cpu time spent up to now is    15080.3 secs

     total energy              =  -12706.54040295 Ry
     Harris-Foulkes estimate   =  -12707.06930694 Ry
     estimated scf accuracy    <       4.84944112 Ry

     iteration # 25     ecut=    80.00 Ry     beta=0.70
     Davidson diagonalization with overlap
     ethr =  3.75E-04,  avg # of iterations =  3.2

     negative rho (up, down):  4.536E-01 0.000E+00

     total cpu time spent up to now is    15441.8 secs

     total energy              =  -12706.37193907 Ry
     Harris-Foulkes estimate   =  -12706.77894679 Ry
     estimated scf accuracy    <       1.90978274 Ry

     iteration # 26     ecut=    80.00 Ry     beta=0.70
     Davidson diagonalization with overlap
     ethr =  1.48E-04,  avg # of iterations =  5.8

     negative rho (up, down):  3.438E-01 0.000E+00

     total cpu time spent up to now is    15864.6 secs

     total energy              =  -12706.21468930 Ry
     Harris-Foulkes estimate   =  -12706.42693097 Ry
     estimated scf accuracy    <       1.24948140 Ry

     iteration # 27     ecut=    80.00 Ry     beta=0.70
     Davidson diagonalization with overlap
     ethr =  9.67E-05,  avg # of iterations = 10.5

     negative rho (up, down):  3.948E-01 0.000E+00

     total cpu time spent up to now is    16386.3 secs

     total energy              =  -12706.00180208 Ry
     Harris-Foulkes estimate   =  -12706.24898385 Ry
     estimated scf accuracy    <       0.84534512 Ry

     iteration # 28     ecut=    80.00 Ry     beta=0.70
     Davidson diagonalization with overlap
     ethr =  6.54E-05,  avg # of iterations =  7.7

     negative rho (up, down):  2.561E-01 0.000E+00

     total cpu time spent up to now is    16929.2 secs

     total energy              =  -12706.03413330 Ry
     Harris-Foulkes estimate   =  -12706.05711614 Ry
     estimated scf accuracy    <       0.23270595 Ry

     iteration # 29     ecut=    80.00 Ry     beta=0.70
     Davidson diagonalization with overlap
     ethr =  1.80E-05,  avg # of iterations =  3.5

     negative rho (up, down):  8.493E-02 0.000E+00

     total cpu time spent up to now is    17307.1 secs

     total energy              =  -12706.04563377 Ry
     Harris-Foulkes estimate   =  -12706.04700962 Ry
     estimated scf accuracy    <       0.05608194 Ry

     iteration # 30     ecut=    80.00 Ry     beta=0.70
     Davidson diagonalization with overlap
     ethr =  4.34E-06,  avg # of iterations = 10.3

     negative rho (up, down):  3.992E-02 0.000E+00

     total cpu time spent up to now is    17898.7 secs

     total energy              =  -12706.04893673 Ry
     Harris-Foulkes estimate   =  -12706.05141147 Ry
     estimated scf accuracy    <       0.02588144 Ry

     iteration # 31     ecut=    80.00 Ry     beta=0.70
     Davidson diagonalization with overlap
     c_bands:  1 eigenvalues not converged
     c_bands:  1 eigenvalues not converged
     ethr =  2.00E-06,  avg # of iterations = 12.0

     negative rho (up, down):  4.048E-02 0.000E+00

     total cpu time spent up to now is    18499.3 secs

     total energy              =  -12706.05111515 Ry
     Harris-Foulkes estimate   =  -12706.05129998 Ry
     estimated scf accuracy    <       0.00322225 Ry

     iteration # 32     ecut=    80.00 Ry     beta=0.70
     Davidson diagonalization with overlap
     ethr =  2.49E-07,  avg # of iterations =  7.5

     negative rho (up, down):  3.236E-02 0.000E+00

     total cpu time spent up to now is    18990.3 secs

     total energy              =  -12706.05135761 Ry
     Harris-Foulkes estimate   =  -12706.05142834 Ry
     estimated scf accuracy    <       0.00085439 Ry

     iteration # 33     ecut=    80.00 Ry     beta=0.70
     Davidson diagonalization with overlap
     ethr =  6.61E-08,  avg # of iterations =  8.5

     negative rho (up, down):  2.160E-02 0.000E+00

     total cpu time spent up to now is    19489.3 secs

     total energy              =  -12706.05131444 Ry
     Harris-Foulkes estimate   =  -12706.05141277 Ry
     estimated scf accuracy    <       0.00037123 Ry

     iteration # 34     ecut=    80.00 Ry     beta=0.70
     Davidson diagonalization with overlap
     ethr =  2.87E-08,  avg # of iterations = 10.7

     negative rho (up, down):  1.781E-02 0.000E+00

     total cpu time spent up to now is    20056.8 secs

     total energy              =  -12706.05129771 Ry
     Harris-Foulkes estimate   =  -12706.05134470 Ry
     estimated scf accuracy    <       0.00019304 Ry

     iteration # 35     ecut=    80.00 Ry     beta=0.70
     Davidson diagonalization with overlap
     ethr =  1.49E-08,  avg # of iterations =  7.2

     negative rho (up, down):  1.068E-02 0.000E+00

     total cpu time spent up to now is    20526.1 secs

     total energy              =  -12706.05117695 Ry
     Harris-Foulkes estimate   =  -12706.05131466 Ry
     estimated scf accuracy    <       0.00006398 Ry

     iteration # 36     ecut=    80.00 Ry     beta=0.70
     Davidson diagonalization with overlap
     c_bands:  1 eigenvalues not converged
     c_bands:  1 eigenvalues not converged
     ethr =  4.95E-09,  avg # of iterations = 11.0

     negative rho (up, down):  5.425E-03 0.000E+00

     total cpu time spent up to now is    21087.7 secs

     total energy              =  -12706.05108183 Ry
     Harris-Foulkes estimate   =  -12706.05118050 Ry
     estimated scf accuracy    <       0.00002770 Ry

     iteration # 37     ecut=    80.00 Ry     beta=0.70
     Davidson diagonalization with overlap
     ethr =  2.14E-09,  avg # of iterations =  7.8

     negative rho (up, down):  3.379E-03 0.000E+00

     total cpu time spent up to now is    21592.6 secs

     total energy              =  -12706.05105919 Ry
     Harris-Foulkes estimate   =  -12706.05108432 Ry
     estimated scf accuracy    <       0.00001138 Ry

     iteration # 38     ecut=    80.00 Ry     beta=0.70
     Davidson diagonalization with overlap
     ethr =  8.81E-10,  avg # of iterations =  4.7

     negative rho (up, down):  2.802E-03 0.000E+00

     total cpu time spent up to now is    22002.6 secs

     total energy              =  -12706.05105629 Ry
     Harris-Foulkes estimate   =  -12706.05106015 Ry
     estimated scf accuracy    <       0.00000362 Ry

     iteration # 39     ecut=    80.00 Ry     beta=0.70
     Davidson diagonalization with overlap
     ethr =  2.80E-10,  avg # of iterations =  2.0

     negative rho (up, down):  2.361E-03 0.000E+00

     total cpu time spent up to now is    22351.2 secs

     total energy              =  -12706.05105629 Ry
     Harris-Foulkes estimate   =  -12706.05105665 Ry
     estimated scf accuracy    <       0.00000219 Ry

     iteration # 40     ecut=    80.00 Ry     beta=0.70
     Davidson diagonalization with overlap
     ethr =  1.69E-10,  avg # of iterations =  2.3

     negative rho (up, down):  2.179E-03 0.000E+00

     total cpu time spent up to now is    22708.7 secs

     total energy              =  -12706.05105658 Ry
     Harris-Foulkes estimate   =  -12706.05105647 Ry
     estimated scf accuracy    <       0.00000096 Ry

     iteration # 41     ecut=    80.00 Ry     beta=0.70
     Davidson diagonalization with overlap
     ethr =  7.44E-11,  avg # of iterations =  2.0

     negative rho (up, down):  2.027E-03 0.000E+00

     total cpu time spent up to now is    23072.3 secs

     total energy              =  -12706.05105693 Ry
     Harris-Foulkes estimate   =  -12706.05105666 Ry
     estimated scf accuracy    <       0.00000037 Ry

     iteration # 42     ecut=    80.00 Ry     beta=0.70
     Davidson diagonalization with overlap
     ethr =  2.90E-11,  avg # of iterations =  2.7

     negative rho (up, down):  2.030E-03 0.000E+00

     total cpu time spent up to now is    23450.5 secs

     total energy              =  -12706.05105702 Ry
     Harris-Foulkes estimate   =  -12706.05105696 Ry
     estimated scf accuracy    <       0.00000009 Ry

     iteration # 43     ecut=    80.00 Ry     beta=0.70
     Davidson diagonalization with overlap
     ethr =  6.79E-12,  avg # of iterations =  2.3

     negative rho (up, down):  2.025E-03 0.000E+00

     total cpu time spent up to now is    23828.1 secs

     total energy              =  -12706.05105705 Ry
     Harris-Foulkes estimate   =  -12706.05105703 Ry
     estimated scf accuracy    <       0.00000004 Ry

     iteration # 44     ecut=    80.00 Ry     beta=0.70
     Davidson diagonalization with overlap
     ethr =  3.12E-12,  avg # of iterations =  2.3

     negative rho (up, down):  2.029E-03 0.000E+00

     total cpu time spent up to now is    24170.3 secs

     End of self-consistent calculation

          k = 0.0000 0.0000 0.0000 (256287 PWs)   bands (ev):

   -16.5579 -15.7357 -15.6368 -15.0010 -14.5387 -14.2195 -14.0765 -13.7396
   -13.7019 -13.6564 -13.5896 -13.3162 -12.8342 -12.7207 -12.6293 -12.5962
   -12.4620 -11.6062 -11.4760 -11.3088 -10.6694 -10.6146  -9.6296  -9.6114
    -9.4709  -8.9452  -8.9346  -8.3394  -8.2229  -8.1633  -8.0497  -7.8362
    -7.4225  -7.3655  -7.2704  -7.1097  -7.0400  -6.8110  -6.7237  -6.2224
    -6.2216  -6.1121  -5.8821  -5.6624  -5.5843  -5.5800  -5.5410  -5.4866
    -5.2380  -5.1499  -5.1430  -5.0771  -5.0165  -4.6933  -4.6299  -4.5492
    -4.5306  -4.3985  -4.0888  -4.0788  -3.9802  -3.8017  -3.7932  -3.7390
    -3.6730  -3.5516  -3.5030  -3.4976  -3.4417  -3.2492  -3.1642  -3.1512
    -3.1038  -3.1009  -3.0977  -3.0949  -3.0728  -3.0388  -2.9170  -2.8449
    -2.8290  -2.7819  -2.7802  -2.7351  -2.6954  -2.6814  -2.5880  -2.5496
    -2.4480  -2.4318  -2.4223  -2.4143  -2.3836  -2.3140  -2.2817  -2.2792
    -2.2471  -2.2463  -2.2460  -2.2452  -2.2042  -2.1698  -2.1230  -2.1163
    -2.1161  -2.1134  -2.1112  -1.9774  -1.9473  -1.9322  -1.9307  -1.9209
    -1.8834  -1.8686  -1.8406  -1.8342  -1.8210  -1.8174  -1.8007  -1.7736
    -1.7568  -1.7525  -1.7409  -1.7352  -1.6957  -1.6725  -1.6623  -1.6526
    -1.6391  -1.6246  -1.6109  -1.6092  -1.6067  -1.5904  -1.5828  -1.5672
    -1.5200  -1.5153  -1.5074  -1.4986  -1.4983  -1.4480  -1.4237  -1.4179
    -1.4018  -1.4011  -1.3940  -1.3700  -1.3558  -1.3554  -1.3456  -1.3070
    -1.3065  -1.2869  -1.2850  -1.2581  -1.2572  -1.1667  -1.1503  -1.1492
    -1.1461  -1.1445  -1.1433  -1.1407  -1.1239  -1.1190  -1.1119  -1.1101
    -1.1087  -1.1057  -1.1037  -1.1008  -1.0973  -1.0877  -1.0756  -1.0502
    -1.0346  -1.0331  -1.0303  -1.0251  -1.0173  -1.0154  -0.9587  -0.9581
    -0.9553  -0.9509  -0.9494  -0.9486  -0.9485  -0.9457  -0.9457  -0.9446
    -0.9435  -0.9432  -0.9430  -0.9373  -0.9370  -0.9225  -0.9179  -0.8886
    -0.8240  -0.8021  -0.7876  -0.7872  -0.7807  -0.7772  -0.7578  -0.7554
    -0.7410  -0.7404  -0.7201  -0.7182  -0.6982  -0.6939  -0.6921  -0.6880
    -0.6699  -0.6588  -0.6560  -0.6552  -0.6547  -0.6544  -0.6491  -0.6472
    -0.6434  -0.5926  -0.5923  -0.5847  -0.5571  -0.5437  -0.5341  -0.5312
    -0.5297  -0.5253  -0.5221  -0.5204  -0.5044  -0.5035  -0.5002  -0.4998
    -0.4984  -0.4980  -0.4974  -0.4969  -0.4816  -0.4815  -0.4800  -0.4505
    -0.4475  -0.4276  -0.4097  -0.4046  -0.4005  -0.3952  -0.3926  -0.3872
    -0.3870  -0.3827  -0.3593  -0.3591  -0.3583  -0.3581  -0.3559  -0.3533
    -0.3381  -0.3371  -0.3181  -0.3171  -0.3168  -0.3136  -0.3129  -0.3125
    -0.3010  -0.2994  -0.2987  -0.2978  -0.2888  -0.2885  -0.2864  -0.2834
    -0.2719  -0.2694  -0.2626  -0.2238  -0.2210  -0.2178  -0.2175  -0.2138
    -0.1852  -0.1827  -0.1798  -0.1792  -0.1740  -0.1700  -0.1614  -0.1568
    -0.1566  -0.1558  -0.1213  -0.1100  -0.1067  -0.1051  -0.0945  -0.0793
    -0.0737  -0.0732  -0.0715  -0.0705  -0.0671  -0.0624  -0.0566  -0.0520
    -0.0496  -0.0485  -0.0476  -0.0435  -0.0423  -0.0401  -0.0319  -0.0314
    -0.0188  -0.0159  -0.0094  -0.0089  -0.0031   0.0061   0.0353   0.0364
     0.0455   0.0812   0.0878   0.0925   0.0953   0.1065   0.1161   0.1380
     0.1389   0.1420   0.1423   0.1442   0.1460   0.1475   0.1571   0.1654
     0.1687   0.1720   0.1792   0.1799   0.2118   0.2307   0.2430   0.2440
     0.2466   0.2474   0.2495   0.2740   0.2777   0.2780   0.2811   0.2827
     0.2850   0.2952   0.3206   0.3244   0.3249   0.3285   0.3409   0.3464
     0.3565   0.3566   0.3649   0.3773   0.3812   0.3948   0.3962   0.3977
     0.4001   0.4013   0.4016   0.4027   0.4079   0.4085   0.4249   0.4290
     0.4312   0.4346   0.4384   0.4406   0.4470   0.4483   0.4504   0.4528
     0.4611   0.4639   0.4684   0.4688   0.4752   0.4853   0.4911   0.4948
     0.5039   0.5084   0.5096   0.5104   0.5188   0.5386   0.5401   0.5494
     0.5551   0.5562   0.5565   0.5573   0.5595   0.5683   0.5726   0.5752
     0.5776   0.5817   0.5902   0.5930   0.5955   0.6024   0.6140   0.6250
     0.6318   0.6356   0.6390   0.6421   0.6469   0.6479   0.6482   0.6502
     0.6540   0.6541   0.6553   0.6640   0.6744   0.6781   0.6843   0.7045
     0.7072   0.7138   0.7160   0.7239   0.7250   0.7398   0.7451   0.7533
     0.7561   0.7806   0.7808   0.7856   0.7870   0.7892   0.7920   0.7996
     0.8016   0.8042   0.8109   0.8149   0.8183   0.8208   0.8225   0.8372
     0.8377   0.8389   0.8416   0.8438   0.8478   0.8591   0.8659   0.8740
     0.8879   0.8891   0.8905   0.8916   0.8978   0.9022   0.9024   0.9090
     0.9091   0.9127   0.9181   0.9207   0.9277   0.9292   0.9333   0.9338
     0.9432   0.9487   0.9494   0.9567   0.9644   0.9706   0.9717   0.9831
     0.9839   0.9869   0.9904   0.9941   0.9988   1.0053   1.0108   1.0126
     1.0180   1.0206   1.0223   1.0321   1.0360   1.0378   1.0401   1.0401
     1.0440   1.0481   1.0522   1.0750   1.0882   1.0926   1.0968   1.0979
     1.1069   1.1075   1.1095   1.1106   1.1323   1.1361   1.1386   1.1418
     1.1425   1.1467   1.1471   1.1577   1.1603   1.1654   1.1674   1.1693
     1.1701   1.1734   1.1764   1.1776   1.1802   1.1806   1.1807   1.1896
     1.1924   1.1946   1.1985   1.1985   1.2025   1.2057   1.2120   1.2132
     1.2156   1.2172   1.2183   1.2216   1.2369   1.2438   1.2490   1.2526
     1.2566   1.2611   1.2649   1.2738   1.2794   1.2807   1.2895   1.2897
     1.2922   1.3067   1.3098   1.3117   1.3175   1.3176   1.3236   1.3247
     1.3256   1.3261   1.3341   1.3380   1.3382   1.3385   1.3392   1.3420
     1.3461   1.3507   1.3532   1.3543   1.3618   1.3641   1.3661   1.3696
     1.3710   1.3815   1.3864   1.3940   1.4020   1.4075   1.4259   1.4562
     1.4597   1.4686   1.4786   1.4801   1.4856   1.5007   1.5114   1.5306
     1.5340   1.5380   1.5395   1.5409   1.5473   1.5479   1.5490   1.5787
     1.6183   1.6790   1.7296   1.7308   1.7760   1.8614   1.9781   2.0024
     2.0967   2.1038   2.1116   2.1158   2.1161   2.1168   2.1281   2.1598
     2.1672   2.2534   2.2566   2.3305   2.3573   2.3604   2.3749   2.3824
     2.3872   2.4032   2.6202   2.6225   2.6290   2.6658   2.8015   2.8129
     2.9196   3.0716   3.2470   3.3198   3.3663   3.5990   3.6753   3.6877
     3.7026   3.7050   3.7130   3.7226   3.8565   3.8772   3.8887   3.8919
     3.8967   3.8969   4.0264   4.0294   4.1528   4.1845   4.2410   4.2940
     4.3354   4.3424   4.4221   4.5125   4.5727   4.5750   4.6161   4.6642
     4.6728   5.1676   5.1825   5.2984   5.4960   5.5674   5.5879   5.6799
     5.6874   5.7285   5.8582   5.9034   5.9081   5.9211   6.0108   6.2205
     6.3189   6.3555   6.3745   6.4641   6.4645   6.4794   6.4863   6.5125
     6.5409   6.6698   6.6747   6.6878   6.6902   6.7687   6.8887   6.9244
     6.9754   6.9937   7.1072   7.1312   7.2266   7.2358   7.2379   7.2773
     7.3021   7.3029   7.6081   7.6276   7.6283   7.6636   7.7102   7.7694
     7.7834   7.8022   7.9762   8.0750   8.1978   8.2322   8.2357   8.2639
     8.2804   8.2951   8.3063   8.3367   8.3562   8.3794   8.4503   8.5001
     8.5510   8.5574   8.5904   8.6142   8.6327   8.6620   8.7526   8.7722
     8.7933   8.8113   8.8204   8.8868   8.8909   8.9421   9.0956   9.1275
     9.1300   9.2137   9.2501   9.2710   9.2838   9.2894   9.4613   9.4695
     9.5118   9.5156   9.5560   9.7305   9.7391   9.8006   9.8484

          k = 0.0000-0.2165 0.0000 (256176 PWs)   bands (ev):

   -16.5568 -15.8179 -15.4429 -15.2041 -14.5047 -14.0557 -13.8777 -13.8398
   -13.8343 -13.7927 -13.3266 -13.2771 -13.2340 -13.1813 -12.2489 -12.0238
   -11.9924 -11.9307 -11.8527 -11.7709 -10.2391 -10.1698 -10.0784 -10.0098
    -9.0038  -8.8405  -8.7153  -8.6014  -8.4830  -8.4030  -7.8702  -7.7902
    -7.6596  -7.6423  -6.9259  -6.7924  -6.6927  -6.5255  -6.4485  -6.3954
    -6.2818  -6.2622  -6.2313  -6.1877  -5.9774  -5.9638  -5.2099  -5.0436
    -5.0048  -4.9519  -4.9432  -4.9211  -4.8958  -4.8196  -4.6764  -4.5790
    -4.5370  -4.4670  -4.3772  -4.2579  -4.1456  -4.0282  -3.8632  -3.7645
    -3.4565  -3.3996  -3.3978  -3.3951  -3.3858  -3.2192  -3.1586  -3.1240
    -3.1189  -3.1118  -3.0294  -2.9885  -2.9842  -2.9403  -2.8468  -2.8334
    -2.7963  -2.7064  -2.6767  -2.6679  -2.6671  -2.6609  -2.6589  -2.6424
    -2.6126  -2.5844  -2.5641  -2.5067  -2.4638  -2.3845  -2.3075  -2.2636
    -2.2541  -2.2397  -2.2244  -2.2221  -2.2174  -2.1502  -2.1438  -2.1142
    -2.0833  -2.0799  -2.0570  -2.0535  -2.0271  -2.0003  -1.9945  -1.9380
    -1.9268  -1.9141  -1.8540  -1.8489  -1.8407  -1.8396  -1.8371  -1.8362
    -1.8252  -1.8200  -1.8146  -1.8138  -1.7711  -1.7691  -1.7405  -1.7400
    -1.5691  -1.5598  -1.5399  -1.5201  -1.5111  -1.4863  -1.4705  -1.4647
    -1.4642  -1.4544  -1.4119  -1.4118  -1.3910  -1.3825  -1.3714  -1.3698
    -1.3676  -1.3674  -1.3670  -1.3614  -1.3478  -1.3328  -1.3245  -1.3237
    -1.3164  -1.3143  -1.3087  -1.2856  -1.2299  -1.2215  -1.1843  -1.1826
    -1.1798  -1.1635  -1.1550  -1.1486  -1.1465  -1.1452  -1.1435  -1.1417
    -1.1168  -1.1080  -1.0814  -1.0807  -1.0769  -1.0767  -1.0763  -1.0741
    -1.0291  -1.0255  -1.0177  -1.0164  -1.0140  -1.0109  -1.0066  -0.9906
    -0.9856  -0.9821  -0.9820  -0.9375  -0.9289  -0.9279  -0.9262  -0.9200
    -0.9135  -0.9028  -0.8995  -0.8915  -0.8816  -0.8612  -0.8589  -0.8581
    -0.8503  -0.8487  -0.8402  -0.7901  -0.7516  -0.7512  -0.7486  -0.7484
    -0.7276  -0.7271  -0.7143  -0.7037  -0.7032  -0.6998  -0.6962  -0.6956
    -0.6951  -0.6797  -0.6786  -0.6491  -0.6445  -0.6442  -0.6427  -0.6406
    -0.6377  -0.6374  -0.6342  -0.6295  -0.6112  -0.5994  -0.5785  -0.5785
    -0.5763  -0.5525  -0.5524  -0.5496  -0.5426  -0.5392  -0.5344  -0.5313
    -0.5302  -0.5296  -0.5085  -0.4821  -0.4548  -0.4545  -0.4529  -0.4527
    -0.4337  -0.4182  -0.4001  -0.3992  -0.3980  -0.3974  -0.3865  -0.3854
    -0.3773  -0.3667  -0.3655  -0.3646  -0.3519  -0.3493  -0.3467  -0.3439
    -0.3408  -0.3403  -0.3397  -0.3373  -0.3369  -0.3275  -0.3026  -0.3013
    -0.3000  -0.2988  -0.2879  -0.2805  -0.2564  -0.2380  -0.2338  -0.2310
    -0.2242  -0.2233  -0.2215  -0.2155  -0.2072  -0.2011  -0.2005  -0.1952
    -0.1926  -0.1875  -0.1873  -0.1799  -0.1788  -0.1766  -0.1725  -0.1704
    -0.1568  -0.1311  -0.1261  -0.1243  -0.1215  -0.1190  -0.1042  -0.0992
    -0.0870  -0.0856  -0.0851  -0.0750  -0.0743  -0.0726  -0.0701  -0.0680
    -0.0412  -0.0395  -0.0292  -0.0263  -0.0217  -0.0195  -0.0172  -0.0112
    -0.0018   0.0018   0.0131   0.0166   0.0214   0.0241   0.0266   0.0292
     0.0363   0.0370   0.0648   0.0754   0.0804   0.0814   0.0851   0.0913
     0.0975   0.1006   0.1073   0.1073   0.1279   0.1314   0.1591   0.1697
     0.1779   0.1916   0.1955   0.2039   0.2041   0.2127   0.2254   0.2796
     0.2834   0.2868   0.2871   0.2933   0.2979   0.3018   0.3024   0.3067
     0.3104   0.3160   0.3318   0.3411   0.3475   0.3527   0.3528   0.3545
     0.3594   0.3626   0.3681   0.3697   0.3709   0.3729   0.3784   0.3796
     0.3904   0.4119   0.4126   0.4191   0.4222   0.4228   0.4259   0.4265
     0.4273   0.4314   0.4414   0.4414   0.4443   0.4445   0.4534   0.4549
     0.4598   0.4690   0.4772   0.4775   0.4816   0.4825   0.4842   0.4864
     0.4865   0.4869   0.4880   0.4939   0.4999   0.5053   0.5113   0.5329
     0.5445   0.5516   0.5599   0.5624   0.5635   0.5656   0.5694   0.5739
     0.5748   0.5756   0.5771   0.5802   0.5973   0.6018   0.6049   0.6163
     0.6187   0.6253   0.6305   0.6376   0.6394   0.6433   0.6439   0.6464
     0.6482   0.6543   0.6589   0.6641   0.6677   0.6770   0.6826   0.6845
     0.7016   0.7022   0.7352   0.7368   0.7538   0.7619   0.7730   0.7795
     0.7813   0.7920   0.7966   0.7980   0.7988   0.8051   0.8112   0.8114
     0.8128   0.8153   0.8193   0.8204   0.8231   0.8241   0.8255   0.8299
     0.8464   0.8508   0.8551   0.8580   0.8593   0.8618   0.8674   0.8682
     0.8693   0.8719   0.8720   0.8721   0.8814   0.8819   0.8944   0.8946
     0.8952   0.8959   0.9094   0.9142   0.9144   0.9145   0.9209   0.9245
     0.9317   0.9361   0.9369   0.9385   0.9393   0.9393   0.9402   0.9423
     0.9424   0.9432   0.9653   0.9763   1.0070   1.0085   1.0326   1.0329
     1.0329   1.0383   1.0384   1.0528   1.0567   1.0602   1.0628   1.0631
     1.0776   1.0796   1.0821   1.0836   1.0870   1.0923   1.0965   1.0967
     1.1030   1.1050   1.1070   1.1117   1.1125   1.1153   1.1185   1.1248
     1.1281   1.1288   1.1326   1.1370   1.1393   1.1412   1.1506   1.1511
     1.1541   1.1550   1.1555   1.1683   1.1700   1.1774   1.1793   1.1800
     1.1925   1.1929   1.1969   1.2048   1.2076   1.2092   1.2160   1.2175
     1.2194   1.2200   1.2258   1.2285   1.2304   1.2306   1.2356   1.2440
     1.2483   1.2514   1.2543   1.2564   1.2821   1.2836   1.2847   1.2863
     1.2918   1.2955   1.2985   1.2987   1.3029   1.3059   1.3126   1.3159
     1.3244   1.3321   1.3467   1.3478   1.3487   1.3496   1.3509   1.3524
     1.3531   1.3550   1.3551   1.3723   1.3790   1.3823   1.3855   1.3979
     1.4021   1.4044   1.4108   1.4263   1.4273   1.4311   1.4322   1.4337
     1.4346   1.4347   1.4463   1.4464   1.5030   1.5031   1.5187   1.5315
     1.5729   1.6239   1.6403   1.6459   1.6462   1.6506   1.6716   1.6728
     1.6774   1.7041   1.7087   1.7185   1.7251   1.7284   1.7580   1.7580
     1.7999   1.8450   2.0696   2.0862   2.1207   2.1380   2.3593   2.3886
     2.4037   2.4066   2.4370   2.4713   2.4892   2.4900   2.5028   2.5244
     2.5338   2.5354   2.6060   2.6109   2.6126   2.6225   2.7058   2.7711
     2.8265   2.8266   3.0666   3.0753   3.0756   3.0796   3.3097   3.4618
     3.4722   3.5283   3.5582   3.5736   3.5819   3.6039   4.0355   4.0848
     4.1033   4.1057   4.1120   4.1467   4.3374   4.3627   4.3696   4.4289
     4.4466   4.4766   4.8096   4.9159   4.9278   4.9882   5.0005   5.0018
     5.0383   5.1287   5.2063   5.2416   5.2758   5.2780   5.2991   5.3092
     5.3265   5.3711   5.5181   5.5218   5.9994   6.0569   6.1456   6.2295
     6.2748   6.3403   6.3920   6.4232   6.4646   6.4707   6.5105   6.5443
     6.5821   6.6307   6.6994   6.8076   6.9212   6.9413   6.9443   6.9699
     7.0180   7.0291   7.0617   7.0775   7.0830   7.0910   7.1536   7.2502
     7.2687   7.3192   7.3530   7.4440   7.4758   7.5370   7.5401   7.6502
     7.6669   7.8664   7.8736   7.9106   8.0348   8.0904   8.2542   8.2790
     8.3736   8.4120   8.4382   8.4488   8.4819   8.4949   8.5094   8.5251
     8.5893   8.6097   8.6494   8.6835   8.7068   8.7105   8.7270   8.7298
     8.9454   9.0016   9.0435   9.1496   9.1718   9.2399   9.2734   9.2888
     9.2889   9.3076   9.3366   9.3631   9.4044   9.4168   9.4453   9.4550
     9.4666   9.6201   9.6787   9.6912   9.7018   9.7731   9.7928

          k = 0.2500 0.0000 0.0000 (256240 PWs)   bands (ev):

   -16.4968 -15.6268 -15.5184 -15.1053 -14.6886 -14.5528 -14.4102 -14.4071
   -13.7108 -13.4411 -13.2787 -13.0043 -12.6256 -12.5482 -12.3757 -12.2952
   -11.7723 -11.5690 -11.4430 -11.2139 -10.6987 -10.4326 -10.2953  -9.9455
    -9.5372  -9.3821  -9.2939  -8.8554  -8.6915  -8.6254  -8.5509  -7.7804
    -7.7197  -7.3833  -7.2177  -6.9187  -6.8218  -6.3921  -6.3088  -6.0837
    -5.9328  -5.7204  -5.6426  -5.5426  -5.4381  -5.4086  -5.4034  -5.2005
    -5.0648  -4.9757  -4.9221  -4.7763  -4.5603  -4.5180  -4.4309  -4.4055
    -4.2717  -4.2622  -4.1021  -4.0970  -4.0045  -3.9628  -3.9328  -3.9299
    -3.7131  -3.6941  -3.6877  -3.6382  -3.5745  -3.4975  -3.3846  -3.3635
    -3.3106  -3.2538  -3.2301  -3.1258  -3.0905  -3.0540  -3.0420  -2.9697
    -2.9484  -2.8925  -2.8922  -2.8745  -2.8068  -2.7022  -2.6841  -2.6775
    -2.6459  -2.6098  -2.4952  -2.4889  -2.4095  -2.4029  -2.3418  -2.2398
    -2.1917  -2.1874  -2.1771  -2.1748  -2.1227  -2.0727  -2.0530  -1.9775
    -1.9519  -1.9322  -1.9152  -1.9066  -1.8976  -1.8971  -1.8962  -1.8890
    -1.8878  -1.8868  -1.8689  -1.8412  -1.8201  -1.7441  -1.7421  -1.7335
    -1.7091  -1.6881  -1.6780  -1.6758  -1.6756  -1.6741  -1.6617  -1.6197
    -1.6052  -1.5999  -1.5983  -1.5925  -1.5859  -1.5731  -1.5460  -1.4691
    -1.4663  -1.4493  -1.4328  -1.4266  -1.4083  -1.3657  -1.3624  -1.3389
    -1.3375  -1.3333  -1.3284  -1.3033  -1.2979  -1.2913  -1.2866  -1.2801
    -1.2786  -1.2729  -1.2405  -1.2364  -1.2309  -1.2292  -1.2158  -1.2155
    -1.2073  -1.2046  -1.2017  -1.1857  -1.1708  -1.1547  -1.1459  -1.1419
    -1.1343  -1.1299  -1.1228  -1.1131  -1.1074  -1.1064  -1.0984  -1.0946
    -1.0923  -1.0782  -1.0772  -1.0750  -1.0743  -1.0728  -1.0722  -1.0672
    -1.0657  -1.0627  -1.0450  -1.0079  -1.0032  -0.9977  -0.9652  -0.9517
    -0.9507  -0.9256  -0.9154  -0.9097  -0.9052  -0.8847  -0.8805  -0.8743
    -0.8699  -0.8665  -0.8560  -0.8528  -0.8500  -0.8465  -0.8426  -0.8393
    -0.8289  -0.8207  -0.7021  -0.6952  -0.6927  -0.6821  -0.6714  -0.6681
    -0.6660  -0.6538  -0.6476  -0.6429  -0.6424  -0.6409  -0.6403  -0.6253
    -0.6247  -0.6026  -0.5996  -0.5885  -0.5856  -0.5818  -0.5799  -0.5638
    -0.5567  -0.5560  -0.5560  -0.5367  -0.5082  -0.4987  -0.4963  -0.4957
    -0.4944  -0.4894  -0.4888  -0.4869  -0.4779  -0.4573  -0.4563  -0.4354
    -0.4294  -0.4286  -0.4264  -0.4008  -0.3902  -0.3897  -0.3880  -0.3874
    -0.3850  -0.3730  -0.3694  -0.3594  -0.3563  -0.3454  -0.3440  -0.3362
    -0.3338  -0.3177  -0.3098  -0.3027  -0.3002  -0.2986  -0.2890  -0.2809
    -0.2804  -0.2718  -0.2628  -0.2488  -0.2474  -0.2416  -0.2339  -0.2326
    -0.2142  -0.2128  -0.2111  -0.2077  -0.1864  -0.1660  -0.1636  -0.1587
    -0.1578  -0.1492  -0.1458  -0.1437  -0.1354  -0.1270  -0.1220  -0.1133
    -0.1072  -0.1061  -0.1023  -0.0999  -0.0981  -0.0964  -0.0933  -0.0918
    -0.0915  -0.0901  -0.0857  -0.0748  -0.0668  -0.0632  -0.0609  -0.0535
    -0.0517  -0.0484  -0.0382  -0.0344  -0.0198  -0.0110   0.0042   0.0084
     0.0134   0.0162   0.0176   0.0218   0.0384   0.0419   0.0432   0.0445
     0.0467   0.0483   0.0588   0.0854   0.0939   0.1358   0.1405   0.1475
     0.1510   0.1548   0.1584   0.1659   0.1684   0.1711   0.1750   0.1782
     0.1848   0.1856   0.1876   0.1902   0.1923   0.1929   0.2073   0.2098
     0.2150   0.2178   0.2219   0.2300   0.2322   0.2383   0.2404   0.2413
     0.2510   0.2604   0.2630   0.2852   0.3014   0.3063   0.3087   0.3137
     0.3159   0.3407   0.3440   0.3461   0.3483   0.3514   0.3614   0.3664
     0.3754   0.3796   0.3825   0.3839   0.3844   0.3866   0.3894   0.3933
     0.3990   0.4003   0.4119   0.4146   0.4179   0.4238   0.4378   0.4423
     0.4428   0.4479   0.4516   0.4546   0.4553   0.4599   0.4699   0.4738
     0.4779   0.4785   0.4879   0.4946   0.4976   0.5025   0.5036   0.5116
     0.5124   0.5167   0.5183   0.5363   0.5385   0.5591   0.5602   0.5631
     0.5662   0.5708   0.5733   0.5817   0.5983   0.6020   0.6064   0.6074
     0.6204   0.6250   0.6340   0.6370   0.6431   0.6462   0.6485   0.6511
     0.6587   0.6691   0.6728   0.6766   0.6814   0.6901   0.6946   0.7030
     0.7113   0.7133   0.7214   0.7219   0.7301   0.7388   0.7512   0.7567
     0.7600   0.7635   0.7730   0.7774   0.7815   0.7838   0.7891   0.7910
     0.7929   0.7992   0.8040   0.8065   0.8071   0.8095   0.8168   0.8276
     0.8468   0.8500   0.8532   0.8578   0.8667   0.8710   0.8746   0.8752
     0.8852   0.8919   0.8928   0.8950   0.8978   0.9067   0.9071   0.9114
     0.9130   0.9161   0.9203   0.9213   0.9232   0.9241   0.9291   0.9310
     0.9351   0.9387   0.9423   0.9505   0.9572   0.9624   0.9649   0.9686
     0.9687   0.9701   0.9735   0.9745   0.9802   0.9813   0.9886   0.9918
     0.9926   1.0068   1.0098   1.0114   1.0121   1.0214   1.0262   1.0267
     1.0382   1.0408   1.0455   1.0510   1.0540   1.0577   1.0767   1.0845
     1.0864   1.0904   1.0926   1.0966   1.0984   1.1029   1.1209   1.1317
     1.1434   1.1445   1.1463   1.1510   1.1541   1.1572   1.1617   1.1661
     1.1695   1.1794   1.1799   1.1851   1.1856   1.1872   1.1942   1.1959
     1.2001   1.2018   1.2022   1.2048   1.2053   1.2086   1.2101   1.2124
     1.2141   1.2161   1.2193   1.2403   1.2426   1.2500   1.2579   1.2587
     1.2608   1.2664   1.2691   1.2714   1.2732   1.2786   1.2812   1.2870
     1.2928   1.2944   1.3017   1.3077   1.3144   1.3176   1.3210   1.3246
     1.3256   1.3272   1.3277   1.3283   1.3322   1.3331   1.3383   1.3406
     1.3418   1.3481   1.3529   1.3555   1.3635   1.3712   1.3735   1.3785
     1.3825   1.3860   1.3864   1.3906   1.3922   1.4031   1.4099   1.4149
     1.4174   1.4197   1.4227   1.4338   1.4456   1.4582   1.4788   1.4834
     1.5061   1.5200   1.5239   1.5280   1.5343   1.5801   1.6057   1.6243
     1.6601   1.6628   1.6678   1.7141   1.7417   1.7629   1.7819   1.8418
     1.9314   1.9325   1.9759   1.9837   1.9946   2.0102   2.0356   2.1564
     2.1960   2.2307   2.4504   2.4646   2.4675   2.4732   2.4883   2.8784
     2.8790   3.0051   3.0783   3.0921   3.0954   3.1232   3.1239   3.2555
     3.3704   3.3804   3.4085   3.4257   3.4899   3.5099   3.5192   3.5812
     3.5864   3.5950   3.6562   3.6979   3.7647   3.7902   3.8207   3.8350
     3.8585   3.8839   4.0314   4.1526   4.1698   4.1947   4.3534   4.4511
     4.6480   4.6693   4.7125   4.7431   4.8479   4.8938   4.9414   5.0024
     5.0470   5.2189   5.2295   5.3272   5.3612   5.3803   5.3927   5.4143
     5.4517   5.4775   5.4833   5.6036   5.6615   5.6759   5.6975   5.7791
     5.8905   5.9127   5.9207   5.9284   6.0338   6.0783   6.1704   6.2685
     6.3042   6.4455   6.5475   6.6257   6.6363   6.7159   6.7475   6.7606
     6.8947   6.9060   6.9212   6.9612   6.9657   7.0035   7.1871   7.2609
     7.2783   7.3425   7.3668   7.4224   7.5277   7.5672   7.6580   7.7346
     7.7945   7.8551   7.9005   7.9169   7.9390   7.9537   7.9817   7.9911
     8.0790   8.1435   8.2269   8.2470   8.3076   8.3441   8.3694   8.4299
     8.4655   8.5358   8.5568   8.5695   8.6592   8.7025   8.7809   8.8406
     8.8921   8.9277   8.9431   8.9812   9.0099   9.0166   9.0690   9.1053
     9.1674   9.1816   9.2417   9.2673   9.3241   9.3715   9.4072   9.4337
     9.4479   9.4925   9.5928   9.5983   9.6179   9.6637   9.6852

          k = 0.2500-0.2165 0.0000 (256316 PWs)   bands (ev):

   -16.4960 -15.6928 -15.3949 -15.0881 -14.8778 -14.6910 -14.2568 -14.0943
   -13.8289 -13.7042 -13.1060 -12.8780 -12.7565 -12.7339 -12.2664 -12.1582
   -11.8425 -11.6781 -11.1523 -10.9642 -10.9486 -10.7828 -10.3542  -9.9758
    -9.3252  -9.2858  -9.0442  -8.9105  -8.7856  -8.5567  -8.2382  -8.1668
    -8.0091  -7.9483  -6.6877  -6.5858  -6.4271  -6.2989  -6.2150  -6.1242
    -6.0164  -5.8848  -5.8405  -5.7994  -5.7851  -5.7135  -5.1660  -4.8951
    -4.8519  -4.8301  -4.7852  -4.7844  -4.7636  -4.7571  -4.4426  -4.4415
    -4.3384  -4.2969  -4.1393  -4.1156  -3.9868  -3.9453  -3.8508  -3.7697
    -3.7176  -3.6491  -3.6148  -3.5818  -3.5615  -3.5444  -3.5136  -3.3749
    -3.3151  -3.1413  -3.1313  -3.0706  -3.0178  -3.0028  -2.9961  -2.9873
    -2.9781  -2.9630  -2.9483  -2.9102  -2.8363  -2.7919  -2.7836  -2.7095
    -2.5775  -2.5525  -2.4156  -2.4090  -2.3964  -2.3449  -2.3133  -2.2637
    -2.2626  -2.2540  -2.2136  -2.1632  -2.1155  -2.1039  -2.0920  -2.0903
    -2.0367  -2.0271  -2.0016  -1.9946  -1.9077  -1.9072  -1.8237  -1.8210
    -1.8147  -1.8134  -1.8047  -1.8043  -1.8021  -1.7876  -1.7832  -1.7747
    -1.7716  -1.7671  -1.7651  -1.7591  -1.7572  -1.7398  -1.6768  -1.6766
    -1.6228  -1.5684  -1.5609  -1.5045  -1.4921  -1.4369  -1.4258  -1.4241
    -1.4101  -1.4031  -1.3755  -1.3733  -1.3608  -1.3593  -1.3580  -1.3425
    -1.3414  -1.3332  -1.3260  -1.3211  -1.3125  -1.3086  -1.3083  -1.3027
    -1.2973  -1.2942  -1.2833  -1.2828  -1.2801  -1.2503  -1.2322  -1.2252
    -1.2207  -1.2188  -1.2104  -1.2078  -1.1883  -1.1695  -1.1632  -1.1382
    -1.1353  -1.1347  -1.1326  -1.1178  -1.1115  -1.1053  -1.0961  -1.0928
    -1.0889  -1.0865  -1.0828  -1.0598  -1.0572  -1.0557  -1.0551  -1.0449
    -1.0287  -1.0275  -1.0232  -1.0203  -1.0195  -0.9709  -0.9638  -0.9618
    -0.9584  -0.9563  -0.8792  -0.8785  -0.8757  -0.8713  -0.8697  -0.8688
    -0.8421  -0.8360  -0.8111  -0.8109  -0.8017  -0.7987  -0.7955  -0.7942
    -0.7747  -0.7590  -0.7519  -0.7497  -0.7450  -0.7084  -0.6907  -0.6687
    -0.6652  -0.6644  -0.6569  -0.6465  -0.6379  -0.6357  -0.6350  -0.6169
    -0.6143  -0.6020  -0.5972  -0.5930  -0.5863  -0.5839  -0.5549  -0.5472
    -0.5412  -0.5406  -0.5344  -0.5295  -0.5129  -0.5097  -0.5051  -0.4986
    -0.4941  -0.4928  -0.4656  -0.4642  -0.4623  -0.4603  -0.4587  -0.4561
    -0.4513  -0.4466  -0.4327  -0.4324  -0.4317  -0.4283  -0.4159  -0.4141
    -0.3968  -0.3789  -0.3782  -0.3671  -0.3499  -0.3431  -0.3394  -0.3348
    -0.3290  -0.3235  -0.3220  -0.3163  -0.3138  -0.3098  -0.3026  -0.2904
    -0.2841  -0.2586  -0.2492  -0.2483  -0.2159  -0.2103  -0.2057  -0.2046
    -0.2043  -0.2002  -0.1889  -0.1833  -0.1818  -0.1662  -0.1623  -0.1564
    -0.1552  -0.1514  -0.1461  -0.1454  -0.1444  -0.1400  -0.1386  -0.1375
    -0.1196  -0.1152  -0.1129  -0.1074  -0.1011  -0.0988  -0.0983  -0.0926
    -0.0915  -0.0835  -0.0833  -0.0827  -0.0773  -0.0750  -0.0701  -0.0672
    -0.0659  -0.0627  -0.0452  -0.0381  -0.0342  -0.0247  -0.0214  -0.0052
     0.0040   0.0159   0.0279   0.0360   0.0396   0.0452   0.0469   0.0494
     0.0551   0.0588   0.0601   0.0654   0.0685   0.0691   0.0827   0.0882
     0.1147   0.1202   0.1613   0.1689   0.1805   0.1825   0.1827   0.1835
     0.1852   0.1857   0.1897   0.1912   0.1943   0.2027   0.2176   0.2204
     0.2205   0.2209   0.2295   0.2348   0.2384   0.2458   0.2479   0.2518
     0.2579   0.2616   0.2677   0.2684   0.2737   0.2782   0.2878   0.2929
     0.3063   0.3104   0.3225   0.3474   0.3578   0.3579   0.3608   0.3625
     0.3693   0.3729   0.3759   0.3776   0.3789   0.3841   0.3851   0.3880
     0.3953   0.4075   0.4097   0.4230   0.4305   0.4357   0.4491   0.4604
     0.4656   0.4681   0.4754   0.4865   0.4944   0.5014   0.5024   0.5060
     0.5071   0.5154   0.5174   0.5176   0.5273   0.5323   0.5383   0.5420
     0.5445   0.5524   0.5533   0.5553   0.5621   0.5680   0.5715   0.5731
     0.5741   0.5755   0.5797   0.5871   0.5893   0.5933   0.5959   0.5991
     0.6019   0.6038   0.6102   0.6114   0.6146   0.6178   0.6200   0.6243
     0.6291   0.6322   0.6552   0.6570   0.6634   0.6722   0.6787   0.6952
     0.7096   0.7105   0.7155   0.7185   0.7214   0.7253   0.7292   0.7303
     0.7438   0.7480   0.7515   0.7537   0.7582   0.7593   0.7637   0.7695
     0.7796   0.7839   0.7865   0.7895   0.7926   0.7938   0.7985   0.8027
     0.8091   0.8244   0.8264   0.8279   0.8356   0.8385   0.8534   0.8652
     0.8680   0.8685   0.8693   0.8760   0.8780   0.8965   0.9012   0.9060
     0.9117   0.9129   0.9228   0.9332   0.9361   0.9438   0.9574   0.9609
     0.9707   0.9722   0.9743   0.9871   0.9892   0.9914   0.9924   0.9929
     0.9940   0.9946   0.9961   1.0038   1.0045   1.0051   1.0082   1.0147
     1.0190   1.0228   1.0336   1.0405   1.0419   1.0528   1.0562   1.0630
     1.0665   1.0742   1.0773   1.0786   1.0830   1.0852   1.0895   1.0906
     1.0930   1.0953   1.0976   1.1005   1.1047   1.1077   1.1110   1.1169
     1.1173   1.1216   1.1253   1.1303   1.1310   1.1338   1.1477   1.1486
     1.1590   1.1645   1.1676   1.1718   1.1773   1.1804   1.1810   1.1885
     1.1936   1.1962   1.2131   1.2140   1.2215   1.2267   1.2273   1.2315
     1.2329   1.2345   1.2366   1.2375   1.2400   1.2497   1.2509   1.2530
     1.2557   1.2571   1.2702   1.2710   1.2744   1.2819   1.2822   1.2844
     1.2864   1.2927   1.2945   1.2948   1.2972   1.2978   1.3001   1.3004
     1.3194   1.3275   1.3341   1.3360   1.3364   1.3377   1.3383   1.3423
     1.3437   1.3483   1.3493   1.3521   1.3566   1.3609   1.3736   1.3803
     1.3808   1.3833   1.3911   1.3916   1.3988   1.4037   1.4055   1.4164
     1.4212   1.4248   1.4267   1.4382   1.4507   1.4509   1.4681   1.4791
     1.5129   1.5200   1.5402   1.5511   1.5559   1.5625   1.6065   1.6305
     1.6572   1.6578   1.6677   1.6761   1.7105   1.7284   1.8279   1.9375
     1.9608   1.9736   1.9909   2.0309   2.0376   2.0411   2.0718   2.0873
     2.2296   2.2449   2.4837   2.4876   2.6212   2.6368   2.6737   2.6856
     2.7068   2.7189   2.7264   2.8483   2.8578   2.8894   3.0919   3.1128
     3.3169   3.3368   3.4157   3.4864   3.5592   3.6707   3.6771   3.6942
     3.7419   3.7752   3.8097   3.8425   3.8811   3.9024   3.9587   3.9985
     4.0359   4.0517   4.0805   4.2070   4.2464   4.2688   4.3072   4.3431
     4.4054   4.4461   4.4668   4.5073   4.6120   4.6448   4.9998   5.0921
     5.1036   5.1514   5.1963   5.2616   5.3345   5.3448   5.3658   5.4140
     5.4210   5.4284   5.4499   5.4815   5.6218   5.6484   5.7493   5.8010
     5.8354   5.8411   5.9589   5.9973   6.0734   6.1048   6.2213   6.2616
     6.4784   6.5116   6.7084   6.7186   6.7401   6.7642   6.9493   6.9732
     7.0173   7.0387   7.0648   7.1101   7.1464   7.1883   7.2022   7.2281
     7.2410   7.2853   7.3500   7.3675   7.3785   7.4165   7.4602   7.5793
     7.5993   7.6290   7.6847   7.7421   7.9166   8.0367   8.0718   8.0922
     8.1179   8.1332   8.1796   8.2365   8.3238   8.3511   8.4980   8.5873
     8.5926   8.6125   8.6222   8.6653   8.7067   8.7341   8.7488   8.7769
     8.8062   8.8533   8.9060   8.9529   8.9902   9.0310   9.0445   9.0496
     9.0792   9.1547   9.1751   9.2059   9.2435   9.2603   9.2855   9.3333
     9.3642   9.4080   9.4240   9.4508   9.4608   9.5787   9.5856

          k =-0.5000 0.0000 0.0000 (256496 PWs)   bands (ev):

   -16.4206 -15.4730 -15.2464 -15.1617 -15.1572 -15.0047 -14.4547 -14.0733
   -14.0707 -14.0110 -13.0664 -12.7642 -12.0891 -11.9481 -11.8824 -11.8146
   -11.4354 -11.3664 -11.2445 -11.2210 -10.9770 -10.8324 -10.7242 -10.6750
    -9.9058  -9.7962  -9.1991  -9.1272  -8.9943  -8.8804  -8.3387  -8.1544
    -7.6565  -7.4470  -7.4405  -7.3694  -7.0880  -6.8545  -5.5866  -5.5567
    -5.4047  -5.4034  -5.1589  -5.0338  -4.9410  -4.9240  -4.9037  -4.8842
    -4.8687  -4.8295  -4.6928  -4.6043  -4.4643  -4.4254  -4.3900  -4.3615
    -4.2942  -4.2515  -4.1021  -4.0671  -4.0198  -3.9709  -3.9702  -3.9498
    -3.9253  -3.9098  -3.8753  -3.7288  -3.5490  -3.5235  -3.5163  -3.5161
    -3.5127  -3.4204  -3.3970  -3.3572  -3.3379  -3.2673  -3.2475  -3.1967
    -3.1353  -3.0930  -3.0856  -2.9984  -2.9769  -2.7926  -2.7506  -2.7479
    -2.7301  -2.6806  -2.6553  -2.6507  -2.3791  -2.3614  -2.3427  -2.3095
    -2.2901  -2.2439  -2.0362  -1.9779  -1.9743  -1.9733  -1.9728  -1.9718
    -1.9717  -1.9559  -1.9529  -1.9267  -1.8503  -1.7931  -1.7757  -1.7457
    -1.7456  -1.7423  -1.7405  -1.7056  -1.6982  -1.6976  -1.6971  -1.6959
    -1.6069  -1.5834  -1.5833  -1.5663  -1.5605  -1.5193  -1.5189  -1.5139
    -1.5138  -1.5132  -1.4974  -1.4921  -1.4615  -1.4539  -1.4524  -1.4524
    -1.4437  -1.4392  -1.4386  -1.4327  -1.4185  -1.4157  -1.4012  -1.4008
    -1.3854  -1.3843  -1.3797  -1.3761  -1.3646  -1.3629  -1.3628  -1.3617
    -1.2996  -1.2995  -1.2894  -1.2819  -1.2776  -1.2776  -1.2722  -1.2697
    -1.2337  -1.2297  -1.2273  -1.2255  -1.2180  -1.2046  -1.2039  -1.2032
    -1.2025  -1.1920  -1.1817  -1.1814  -1.1709  -1.1516  -1.1511  -1.1502
    -1.1086  -1.1085  -1.0766  -1.0765  -1.0752  -1.0750  -1.0437  -1.0369
    -1.0340  -1.0289  -1.0248  -1.0228  -1.0225  -1.0207  -1.0193  -1.0132
    -1.0114  -1.0039  -1.0033  -1.0025  -0.9445  -0.9441  -0.9434  -0.9427
    -0.8934  -0.8934  -0.8080  -0.8045  -0.8036  -0.8032  -0.7728  -0.7728
    -0.7719  -0.7715  -0.7696  -0.7690  -0.7592  -0.7468  -0.7438  -0.7291
    -0.7205  -0.7202  -0.7193  -0.7183  -0.7173  -0.7168  -0.6729  -0.6720
    -0.6702  -0.6690  -0.6030  -0.5918  -0.5809  -0.5673  -0.5586  -0.5585
    -0.5353  -0.5327  -0.5323  -0.5309  -0.5067  -0.5038  -0.5032  -0.5017
    -0.4784  -0.4774  -0.4638  -0.4630  -0.4615  -0.4613  -0.4325  -0.4323
    -0.4307  -0.4297  -0.4208  -0.4109  -0.4074  -0.4035  -0.3936  -0.3932
    -0.3921  -0.3921  -0.3817  -0.3815  -0.3474  -0.3471  -0.3461  -0.3459
    -0.3235  -0.3235  -0.3110  -0.3068  -0.2864  -0.2362  -0.2356  -0.2339
    -0.2327  -0.2264  -0.2258  -0.2245  -0.2174  -0.1914  -0.1911  -0.1892
    -0.1889  -0.1600  -0.1579  -0.1529  -0.1315  -0.1224  -0.1222  -0.1210
    -0.1207  -0.1199  -0.1182  -0.1173  -0.1159  -0.1155  -0.1147  -0.1130
    -0.0920  -0.0660  -0.0521  -0.0396  -0.0394  -0.0328  -0.0304  -0.0289
    -0.0288  -0.0286  -0.0276  -0.0232  -0.0224  -0.0209  -0.0149  -0.0141
    -0.0122   0.0048   0.0062   0.0069   0.0069   0.0095   0.0216   0.0216
     0.0219   0.0219   0.0291   0.0295   0.0301   0.0301   0.0345   0.0399
     0.0429   0.0491   0.0545   0.0555   0.0556   0.0590   0.0600   0.0731
     0.0778   0.1754   0.1756   0.1785   0.1793   0.1850   0.1890   0.2046
     0.2073   0.2182   0.2186   0.2223   0.2263   0.2270   0.2319   0.2366
     0.2368   0.2408   0.2410   0.2454   0.2460   0.2478   0.2505   0.2523
     0.2536   0.2537   0.2565   0.2629   0.2716   0.2728   0.2744   0.2911
     0.2931   0.2943   0.2970   0.2983   0.3244   0.3284   0.3344   0.3370
     0.3381   0.3686   0.3781   0.3891   0.3953   0.3953   0.4020   0.4146
     0.4163   0.4252   0.4281   0.4288   0.4297   0.4302   0.4344   0.4360
     0.4362   0.4364   0.4395   0.4416   0.4423   0.4440   0.4534   0.4581
     0.4640   0.4696   0.4774   0.4954   0.4989   0.5057   0.5090   0.5161
     0.5191   0.5301   0.5305   0.5325   0.5326   0.5338   0.5350   0.5360
     0.5361   0.5393   0.5508   0.5539   0.5566   0.5598   0.5612   0.5640
     0.5680   0.5776   0.5840   0.5996   0.6067   0.6068   0.6091   0.6104
     0.6111   0.6131   0.6222   0.6235   0.6316   0.6367   0.6532   0.6571
     0.6572   0.6613   0.6707   0.6708   0.6962   0.7059   0.7317   0.7333
     0.7400   0.7439   0.7441   0.7442   0.7458   0.7502   0.7503   0.7653
     0.7704   0.7729   0.7792   0.7862   0.7864   0.7879   0.7881   0.7883
     0.7960   0.7992   0.8008   0.8017   0.8076   0.8116   0.8119   0.8225
     0.8363   0.8402   0.8505   0.8517   0.8846   0.8854   0.9097   0.9100
     0.9157   0.9166   0.9365   0.9391   0.9396   0.9418   0.9489   0.9612
     0.9651   0.9765   0.9828   0.9831   0.9884   0.9923   0.9979   0.9987
     1.0050   1.0112   1.0123   1.0177   1.0196   1.0205   1.0222   1.0226
     1.0266   1.0284   1.0329   1.0334   1.0343   1.0360   1.0392   1.0394
     1.0594   1.0599   1.0666   1.0728   1.0808   1.0808   1.0957   1.0965
     1.1037   1.1082   1.1109   1.1113   1.1164   1.1188   1.1269   1.1282
     1.1339   1.1354   1.1436   1.1441   1.1456   1.1457   1.1530   1.1558
     1.1661   1.1667   1.1737   1.1916   1.1923   1.2049   1.2139   1.2154
     1.2171   1.2181   1.2204   1.2204   1.2233   1.2277   1.2283   1.2289
     1.2301   1.2333   1.2340   1.2365   1.2370   1.2377   1.2400   1.2418
     1.2425   1.2431   1.2460   1.2485   1.2494   1.2617   1.2629   1.2659
     1.2660   1.2756   1.2773   1.2784   1.2835   1.2855   1.2870   1.2990
     1.3047   1.3059   1.3093   1.3149   1.3175   1.3181   1.3197   1.3261
     1.3290   1.3325   1.3463   1.3480   1.3549   1.3562   1.3599   1.3627
     1.3643   1.3719   1.3737   1.3752   1.3757   1.3861   1.3932   1.3978
     1.4093   1.4166   1.4167   1.4170   1.4175   1.4175   1.4177   1.4177
     1.4415   1.4484   1.4602   1.4718   1.4872   1.5023   1.5056   1.5060
     1.5116   1.5116   1.5352   1.5718   1.8522   1.9303   1.9399   1.9404
     1.9414   1.9516   2.1528   2.1531   2.1777   2.1824   2.1930   2.1972
     2.2830   2.2878   2.5210   2.5307   2.7248   2.7303   2.7341   2.7374
     2.7805   2.8027   3.0828   3.0857   3.0909   3.0918   3.3315   3.3651
     3.4613   3.5474   3.5962   3.6136   3.7347   3.7820   3.8160   3.8306
     3.8322   3.8943   3.9395   3.9688   3.9697   4.0414   4.1123   4.2165
     4.2554   4.2832   4.2851   4.4277   4.5319   4.6209   4.7196   4.7207
     4.7465   4.7604   4.7653   4.7882   4.8664   4.8682   4.8725   4.8967
     4.9110   4.9217   4.9444   4.9477   4.9592   4.9688   5.0294   5.0300
     5.0416   5.0861   5.0978   5.1080   5.3914   5.3989   5.4581   5.4868
     5.5059   5.5268   5.8347   5.8441   5.8802   5.8859   5.8969   5.9033
     6.1329   6.1673   6.3948   6.4129   6.5034   6.5669   6.6449   6.6525
     6.7042   6.7759   6.7953   6.8289   7.0709   7.0809   7.2095   7.2467
     7.2594   7.2622   7.5206   7.5247   7.5295   7.5300   7.6609   7.7002
     7.7034   7.7127   7.7407   7.7853   7.7926   7.8252   7.8438   7.8550
     7.8889   7.8925   7.9361   7.9568   8.2528   8.2665   8.3258   8.3263
     8.3975   8.4356   8.6809   8.7362   8.7827   8.8016   8.8580   8.8688
     8.8786   8.8890   8.9054   8.9744   8.9783   9.0088   9.0270   9.0735
     9.1367   9.1527   9.1697   9.1999   9.2083   9.2652   9.2760   9.2949
     9.3378   9.3725   9.4861   9.4899   9.4904   9.4959   9.4976

          k =-0.5000-0.2165 0.0000 (256328 PWs)   bands (ev):

   -16.4204 -15.4352 -15.3276 -15.3021 -14.9581 -14.7271 -14.7000 -14.5722
   -13.7231 -13.3821 -13.3536 -13.2925 -11.9838 -11.8139 -11.6016 -11.5015
   -11.4298 -11.3896 -11.3466 -11.3035 -11.0955 -11.0202 -10.8966 -10.8156
    -9.7143  -9.5596  -9.3533  -9.3479  -8.7727  -8.3361  -8.3088  -8.2464
    -7.9243  -7.8678  -7.7292  -7.6609  -6.3178  -6.0662  -5.9254  -5.9052
    -5.4855  -5.2780  -5.2750  -5.2747  -5.2665  -5.1542  -4.9357  -4.7899
    -4.7139  -4.5698  -4.3857  -4.3803  -4.3757  -4.3390  -4.3095  -4.3041
    -4.2941  -4.2863  -4.2799  -4.2796  -4.1145  -4.0283  -3.9885  -3.8594
    -3.8580  -3.8038  -3.7970  -3.7085  -3.6932  -3.6808  -3.5981  -3.5902
    -3.5221  -3.4975  -3.4094  -3.4021  -3.3916  -3.3740  -3.3572  -3.3520
    -3.0164  -2.9363  -2.9153  -2.7286  -2.6744  -2.6701  -2.6685  -2.6684
    -2.6339  -2.5942  -2.5909  -2.5652  -2.5366  -2.5235  -2.4232  -2.3555
    -2.2517  -2.1928  -2.1877  -2.1720  -2.1619  -2.0934  -2.0488  -2.0135
    -2.0120  -2.0020  -1.9881  -1.9441  -1.8981  -1.8980  -1.8973  -1.8955
    -1.6904  -1.6887  -1.6829  -1.6803  -1.6038  -1.5898  -1.5885  -1.5873
    -1.5870  -1.5849  -1.5396  -1.5393  -1.5296  -1.5290  -1.5280  -1.5278
    -1.5147  -1.4832  -1.4825  -1.4824  -1.4808  -1.4802  -1.4770  -1.4768
    -1.4748  -1.4627  -1.4535  -1.4535  -1.4530  -1.4530  -1.4083  -1.4076
    -1.4069  -1.4018  -1.3596  -1.3374  -1.3299  -1.3185  -1.2943  -1.2923
    -1.2857  -1.2856  -1.2855  -1.2855  -1.2725  -1.2660  -1.2608  -1.2602
    -1.2421  -1.2385  -1.2372  -1.2357  -1.2172  -1.2164  -1.2100  -1.2099
    -1.2081  -1.2064  -1.2038  -1.2021  -1.1524  -1.1523  -1.1522  -1.1518
    -1.1355  -1.1355  -1.1353  -1.1351  -1.1342  -1.1341  -1.1339  -1.1336
    -0.9871  -0.9865  -0.9859  -0.9848  -0.9500  -0.9492  -0.9463  -0.9463
    -0.9314  -0.9278  -0.9238  -0.9079  -0.8734  -0.8720  -0.8686  -0.8685
    -0.8680  -0.8678  -0.8573  -0.8563  -0.8046  -0.8012  -0.7998  -0.7982
    -0.7892  -0.7817  -0.7815  -0.7802  -0.7731  -0.7728  -0.7712  -0.7675
    -0.7417  -0.7216  -0.7076  -0.6760  -0.6719  -0.6654  -0.6623  -0.6560
    -0.6541  -0.6242  -0.6033  -0.5994  -0.5938  -0.5923  -0.5867  -0.5519
    -0.5486  -0.5475  -0.5425  -0.5306  -0.5302  -0.5297  -0.5293  -0.5196
    -0.5103  -0.4957  -0.4902  -0.4890  -0.4886  -0.4874  -0.4873  -0.4749
    -0.4643  -0.4278  -0.4228  -0.4219  -0.3710  -0.3709  -0.3706  -0.3705
    -0.3551  -0.3550  -0.3543  -0.3543  -0.3413  -0.3411  -0.3323  -0.3322
    -0.2757  -0.2582  -0.2575  -0.2537  -0.2525  -0.2508  -0.2507  -0.2486
    -0.2465  -0.2264  -0.2251  -0.2185  -0.2072  -0.2071  -0.2064  -0.2060
    -0.1979  -0.1978  -0.1953  -0.1949  -0.1921  -0.1920  -0.1917  -0.1917
    -0.1579  -0.1389  -0.1320  -0.1256  -0.1180  -0.1030  -0.1004  -0.1000
    -0.0956  -0.0915  -0.0694  -0.0590  -0.0560  -0.0552  -0.0278  -0.0195
    -0.0190  -0.0182  -0.0166  -0.0163  -0.0153  -0.0072  -0.0059  -0.0052
    -0.0016  -0.0002   0.0014   0.0043   0.0063   0.0084   0.0117   0.0119
     0.0123   0.0125   0.0224   0.0255   0.0277   0.0289   0.0398   0.0519
     0.0520   0.0554   0.0556   0.0574   0.0600   0.0636   0.0643   0.0771
     0.1042   0.1147   0.1152   0.1155   0.1172   0.1448   0.1485   0.1488
     0.1538   0.1958   0.2075   0.2148   0.2233   0.2252   0.2262   0.2272
     0.2491   0.2497   0.2501   0.2532   0.2619   0.2624   0.2634   0.2647
     0.2656   0.2659   0.2675   0.2686   0.2690   0.2714   0.2786   0.2900
     0.3048   0.3153   0.3451   0.3460   0.3466   0.3474   0.3558   0.3711
     0.3720   0.3725   0.3726   0.3751   0.3791   0.3823   0.3827   0.3880
     0.3916   0.4024   0.4054   0.4082   0.4108   0.4109   0.4168   0.4261
     0.4269   0.4493   0.4498   0.4522   0.4575   0.4648   0.4677   0.4685
     0.4696   0.4703   0.4750   0.4768   0.4777   0.4798   0.4811   0.4842
     0.4846   0.4915   0.4942   0.5030   0.5046   0.5224   0.5232   0.5285
     0.5349   0.5570   0.5640   0.5667   0.5693   0.5717   0.5815   0.5838
     0.5854   0.5884   0.5886   0.5951   0.6014   0.6047   0.6218   0.6221
     0.6257   0.6287   0.6298   0.6305   0.6341   0.6345   0.6410   0.6435
     0.6787   0.6885   0.6944   0.6969   0.7060   0.7132   0.7133   0.7140
     0.7142   0.7224   0.7275   0.7477   0.7478   0.7484   0.7491   0.7628
     0.7678   0.7704   0.7955   0.8057   0.8199   0.8199   0.8269   0.8270
     0.8306   0.8407   0.8482   0.8489   0.8509   0.8516   0.8567   0.8575
     0.8908   0.8996   0.9132   0.9138   0.9150   0.9181   0.9267   0.9283
     0.9287   0.9354   0.9395   0.9399   0.9441   0.9449   0.9457   0.9464
     0.9480   0.9481   0.9488   0.9489   0.9560   0.9719   0.9728   0.9758
     0.9770   0.9814   0.9957   0.9967   1.0025   1.0052   1.0073   1.0090
     1.0185   1.0273   1.0364   1.0372   1.0400   1.0405   1.0431   1.0447
     1.0449   1.0479   1.0525   1.0597   1.0605   1.0817   1.0871   1.0879
     1.0918   1.0930   1.0990   1.1064   1.1099   1.1120   1.1126   1.1149
     1.1251   1.1276   1.1283   1.1331   1.1606   1.1607   1.1619   1.1642
     1.1650   1.1785   1.1833   1.1843   1.1855   1.1862   1.1880   1.1883
     1.1920   1.1950   1.1977   1.1980   1.2024   1.2191   1.2425   1.2429
     1.2466   1.2490   1.2494   1.2515   1.2517   1.2521   1.2542   1.2557
     1.2584   1.2684   1.2726   1.2801   1.2802   1.2839   1.2851   1.2854
     1.2883   1.2906   1.2921   1.2938   1.2939   1.2966   1.2983   1.3042
     1.3067   1.3068   1.3094   1.3136   1.3156   1.3196   1.3304   1.3329
     1.3331   1.3378   1.3421   1.3434   1.3528   1.3541   1.3600   1.3624
     1.3753   1.3813   1.3928   1.4038   1.4124   1.4164   1.4190   1.4191
     1.4326   1.4352   1.4570   1.4643   1.4685   1.4730   1.4745   1.4751
     1.4806   1.4844   1.4994   1.5010   1.5013   1.5088   1.5088   1.5177
     1.5246   1.5303   1.5513   1.5765   1.6227   1.6919   1.7274   1.7280
     1.7432   1.7535   1.7569   1.7610   2.3789   2.3947   2.4022   2.4111
     2.4563   2.4571   2.4769   2.4793   2.6521   2.6659   2.7371   2.7421
     2.8850   2.9053   3.0849   3.0961   3.3478   3.3507   3.3587   3.3598
     3.4664   3.5021   3.5503   3.5560   3.7550   3.8244   3.8280   3.8286
     3.8332   4.0796   4.0834   4.1074   4.1079   4.1354   4.1628   4.2099
     4.2247   4.2777   4.2829   4.3058   4.3482   4.3872   4.4266   4.4295
     4.4607   4.4772   4.5471   4.5538   4.6241   4.6254   4.6775   4.7151
     4.7318   4.8545   4.9514   5.0436   5.0773   5.0790   5.1298   5.1409
     5.1803   5.1967   5.2300   5.2978   5.4525   5.4826   5.5344   5.5504
     5.6203   5.6326   5.6862   5.6917   5.9916   6.0074   6.0482   6.0495
     6.2573   6.3111   6.3227   6.4222   6.6812   6.6888   6.6915   6.6937
     6.9480   6.9679   7.0089   7.0532   7.0917   7.0962   7.1009   7.1085
     7.2607   7.2660   7.2758   7.2866   7.2914   7.3003   7.4760   7.5170
     7.5301   7.5682   7.7001   7.7611   7.8111   7.8707   7.9363   7.9444
     8.0967   8.1048   8.1286   8.1379   8.3550   8.4126   8.4172   8.4791
     8.5318   8.5601   8.6225   8.6323   8.7549   8.7955   8.8355   8.8400
     8.8548   8.8568   8.8610   8.8622   8.8936   8.8952   8.9105   8.9162
     9.0647   9.1022   9.1070   9.1123   9.1148   9.2047   9.2199   9.2525
     9.3098   9.4069   9.4802   9.5070   9.5644   9.5926   9.6765

     the Fermi energy is     3.2259 ev

!    total energy              =  -12706.05105703 Ry
     Harris-Foulkes estimate   =  -12706.05105706 Ry
     estimated scf accuracy    <          4.8E-09 Ry

     The total energy is the sum of the following terms:

     one-electron contribution = -109191.64628401 Ry
     hartree contribution      =   55954.33811791 Ry
     xc contribution           =   -4445.12196613 Ry
     ewald contribution        =   44982.84522999 Ry
     Dispersion Correction     =      -2.97802109 Ry
     smearing contrib. (-TS)   =      -3.48813370 Ry

     convergence has been achieved in  44 iterations

     Writing output data file gc.save
 
     init_run     :    183.94s CPU    197.30s WALL (       1 calls)
     electrons    :  22505.77s CPU  23972.42s WALL (       1 calls)

     Called by init_run:
     wfcinit      :    181.27s CPU    193.84s WALL (       1 calls)
     potinit      :      0.93s CPU      1.02s WALL (       1 calls)

     Called by electrons:
     c_bands      :  20457.60s CPU  21754.65s WALL (      44 calls)
     sum_band     :   1657.22s CPU   1770.91s WALL (      44 calls)
     v_of_rho     :      5.20s CPU      6.69s WALL (      45 calls)
     newd         :     14.04s CPU     25.65s WALL (      45 calls)
     mix_rho      :    371.66s CPU    414.64s WALL (      44 calls)

     Called by c_bands:
     init_us_2    :     81.61s CPU     82.74s WALL (     534 calls)
     cegterg      :  20124.66s CPU  21408.34s WALL (     270 calls)

     Called by sum_band:
     sum_band:bec :      4.51s CPU      5.21s WALL (     264 calls)
     addusdens    :     20.10s CPU     30.35s WALL (      44 calls)

     Called by *egterg:
     h_psi        :   7496.40s CPU   8081.94s WALL (    1696 calls)
     s_psi        :   1849.30s CPU   1861.27s WALL (    1696 calls)
     g_psi        :     20.36s CPU     20.45s WALL (    1420 calls)
     cdiaghg      :   5433.73s CPU   5704.69s WALL (    1684 calls)

     Called by h_psi:
     add_vuspsi   :   1854.20s CPU   1868.02s WALL (    1696 calls)

     General routines
     calbec       :   2540.95s CPU   2560.76s WALL (    1960 calls)
     fft          :      4.40s CPU      5.31s WALL (     584 calls)
     ffts         :    156.46s CPU    186.56s WALL (   23995 calls)
     fftw         :   3684.32s CPU   4203.97s WALL ( 1275898 calls)
     davcio       :      0.25s CPU      8.66s WALL (       6 calls)
 
     Parallel routines
     fft_scatter  :   1822.98s CPU   2111.33s WALL ( 1300477 calls)
 
     PWSCF        :     6h18m CPU        6h43m WALL

 
   This run was terminated on:  17:14:33  30Jan2018            

=------------------------------------------------------------------------------=
   JOB DONE.
=------------------------------------------------------------------------------=
