
     Program POST-PROC v.5.4.0 starts on  7Feb2018 at 17:51:29 

     This program is part of the open-source Quantum ESPRESSO suite
     for quantum simulation of materials; please cite
         "P. Giannozzi et al., J. Phys.:Condens. Matter 21 395502 (2009);
          URL http://www.quantum-espresso.org", 
     in publications or presentations arising from this work. More details at
     http://www.quantum-espresso.org/quote

     Parallel version (MPI & OpenMP), running on       1 processor cores
     Number of MPI processes:                 1
     Threads/MPI process:                     1

   Info: using nr1, nr2, nr3 values from input

   Info: using nr1, nr2, nr3 values from input

     IMPORTANT: XC functional enforced from input :
     Exchange-correlation      =  SLA  PZ   NOGX NOGC ( 1  1  0  0 0 0)
     Any further DFT definition will be discarded
     Please, verify this is what you really want

 
     G-vector sticks info
     --------------------
     sticks:   dense  smooth     PW     G-vecs:    dense   smooth      PW
     Sum         253     253     85                 2733     2733     531
 

     Calling punch_plot, plot_num =   0
     Writing data to file  sicharge
     Reading data from file  sicharge

     Writing data to be plotted to file si.rho_new.dat
     Min, Max, imaginary charge:     0.001411    0.087392    0.000000
     Plot Type: 2D contour             Output format: gnuplot x,y,f
 
     POST-PROC    :     0.16s CPU         0.65s WALL

 
   This run was terminated on:  17:51:30   7Feb2018            

=------------------------------------------------------------------------------=
   JOB DONE.
=------------------------------------------------------------------------------=
