
     Program PWSCF v.5.4.0 starts on 17Jan2017 at 21:41:29 

     This program is part of the open-source Quantum ESPRESSO suite
     for quantum simulation of materials; please cite
         "P. Giannozzi et al., J. Phys.:Condens. Matter 21 395502 (2009);
          URL http://www.quantum-espresso.org", 
     in publications or presentations arising from this work. More details at
     http://www.quantum-espresso.org/quote

     Parallel version (MPI & OpenMP), running on      56 processor cores
     Number of MPI processes:                56
     Threads/MPI process:                     1
     R & G space division:  proc/nbgrp/npool/nimage =      56
     Waiting for input...
     Reading input from standard input

     Current dimensions of program PWSCF are:
     Max number of different atomic species (ntypx) = 10
     Max number of k-points (npk) =  40000
     Max angular momentum in pseudopotentials (lmaxx) =  3
     WARNING: atomic wfc #  2 for atom type 3 has zero norm
     WARNING: atomic wfc #  4 for atom type 3 has zero norm
     WARNING: atomic wfc #  5 for atom type 3 has zero norm

     -------------------------------------
     Parameters for Dispersion Correction:
     -------------------------------------
       atom      VdW radius       C_6     

        Cu         2.952        374.666
        C          2.744         60.710
        O          2.536         24.284

     Subspace diagonalization in iterative solution of the eigenvalue problem:
     one sub-group per band group will be used
     scalapack distributed-memory algorithm (size of sub-group:  5*  5 procs)

 
     Parallelization info
     --------------------
     sticks:   dense  smooth     PW     G-vecs:    dense   smooth      PW
     Min         204     204     54                36612    36612    4962
     Max         205     205     55                36617    36617    4968
     Sum       11433   11433   3039              2050409  2050409  278033
 


     bravais-lattice index     =            0
     lattice parameter (alat)  =      13.9425  a.u.
     unit-cell volume          =   21209.0878 (a.u.)^3
     number of atoms/cell      =          150
     number of atomic types    =            3
     number of electrons       =      1304.00
     number of Kohn-Sham states=          782
     kinetic-energy cutoff     =      80.0000  Ry
     charge density cutoff     =     320.0000  Ry
     convergence threshold     =      1.0E-08
     mixing beta               =       0.7000
     number of iterations used =            8  local-TF  mixing
     Exchange-correlation      =  SLA  PW   PBX  PBC ( 1  4  3  4 0 0)
     nstep                     =           50


     celldm(1)=  13.942539  celldm(2)=   0.000000  celldm(3)=   0.000000
     celldm(4)=   0.000000  celldm(5)=   0.000000  celldm(6)=   0.000000

     crystal axes: (cart. coord. in units of alat)
               a(1) = (   1.000000   0.000000   0.000000 )  
               a(2) = (   0.000000   2.309401   0.000000 )  
               a(3) = (   0.000000   0.000000   3.388418 )  

     reciprocal axes: (cart. coord. in units 2 pi/alat)
               b(1) = (  1.000000  0.000000  0.000000 )  
               b(2) = (  0.000000  0.433013  0.000000 )  
               b(3) = (  0.000000  0.000000  0.295123 )  


     PseudoPot. # 1 for Cu read from file:
     /home/549/hxw549/Short/pseudopotentials/Cu.pbe-n-van_ak.UPF
     MD5 check sum: 601f7c30f7467666bec936e0661ce3e1
     Pseudo is Ultrasoft + core correction, Zval = 11.0
     Generated by new atomic code, or converted to UPF format
     Using radial grid of  867 points,  6 beta functions with: 
                l(1) =   0
                l(2) =   0
                l(3) =   1
                l(4) =   1
                l(5) =   2
                l(6) =   2
     Q(r) pseudized with  8 coefficients,  rinner =    1.400   1.400   1.400
                                                       1.400   1.400

     PseudoPot. # 2 for C  read from file:
     /home/549/hxw549/Short/pseudopotentials/C.pbe-mt_gipaw.UPF
     MD5 check sum: 5ac2f21f2c440b14befe521540822c15
     Pseudo is Norm-conserving, Zval =  4.0
     Generated by new atomic code, or converted to UPF format
     Using radial grid of 1073 points,  1 beta functions with: 
                l(1) =   0

     PseudoPot. # 3 for O  read from file:
     /home/549/hxw549/Short/pseudopotentials/O.pbe-van_gipaw.UPF
     MD5 check sum: 5ce2a047509d4f331db576c963e74b29
     Pseudo is Ultrasoft, Zval =  6.0
     Generated by new atomic code, or converted to UPF format
     Using radial grid of 1095 points,  4 beta functions with: 
                l(1) =   0
                l(2) =   0
                l(3) =   1
                l(4) =   1
     Q(r) pseudized with 0 coefficients 


     atomic species   valence    mass     pseudopotential
        Cu            11.00    63.54600     Cu( 1.00)
        C              4.00    12.01070     C ( 1.00)
        O              6.00    15.99940     O ( 1.00)

     No symmetry found



   Cartesian axes

     site n.     atom                  positions (alat units)
         1           Cu  tau(   1) = (  -0.0000081   0.0001634   0.9978611  )
         2           Cu  tau(   2) = (   0.2499603   0.2308283   0.9974647  )
         3           Cu  tau(   3) = (   0.4999608  -0.0000844   0.9975769  )
         4           Cu  tau(   4) = (   0.7500001   0.2308382   0.9975417  )
         5           Cu  tau(   5) = (  -0.0000014   0.4616908   0.9973503  )
         6           Cu  tau(   6) = (   0.2501027   0.6927721   0.9973783  )
         7           Cu  tau(   7) = (   0.4999946   0.4618506   0.9975724  )
         8           Cu  tau(   8) = (   0.7499844   0.6927910   0.9974721  )
         9           Cu  tau(   9) = (  -0.0000234   0.9237236   0.9972586  )
        10           Cu  tau(  10) = (   0.2501357   1.1546412   0.9974124  )
        11           Cu  tau(  11) = (   0.4999866   0.9237023   0.9975526  )
        12           Cu  tau(  12) = (   0.7499395   1.1546225   0.9975023  )
        13           Cu  tau(  13) = (  -0.0000076   1.3857023   0.9973616  )
        14           Cu  tau(  14) = (   0.2499537   1.6165878   0.9975801  )
        15           Cu  tau(  15) = (   0.4999978   1.3855696   0.9977238  )
        16           Cu  tau(  16) = (   0.7500038   1.6166281   0.9976115  )
        17           Cu  tau(  17) = (   0.0000099   1.8473350   0.9979274  )
        18           Cu  tau(  18) = (   0.2499132   2.0785162   0.9979250  )
        19           Cu  tau(  19) = (   0.4999414   1.8475949   0.9976049  )
        20           Cu  tau(  20) = (   0.7500361   2.0784540   0.9976750  )
        21           Cu  tau(  21) = (   0.0000930   0.2309087   1.2462392  )
        22           Cu  tau(  22) = (   0.2498566   0.0003319   1.2464328  )
        23           Cu  tau(  23) = (   0.4998974   0.2299242   1.2449315  )
        24           Cu  tau(  24) = (   0.7500971  -0.0000910   1.2459364  )
        25           Cu  tau(  25) = (   0.0002960   0.6922586   1.2447203  )
        26           Cu  tau(  26) = (   0.2497813   0.4611677   1.2449395  )
        27           Cu  tau(  27) = (   0.5001330   0.6926932   1.2455483  )
        28           Cu  tau(  28) = (   0.7503386   0.4610531   1.2448013  )
        29           Cu  tau(  29) = (   0.0002616   1.1551417   1.2446448  )
        30           Cu  tau(  30) = (   0.2502934   0.9236408   1.2451495  )
        31           Cu  tau(  31) = (   0.5001301   1.1545731   1.2456550  )
        32           Cu  tau(  32) = (   0.7500138   0.9236700   1.2454914  )
        33           Cu  tau(  33) = (   0.0000902   1.6164026   1.2463056  )
        34           Cu  tau(  34) = (   0.2497426   1.3861909   1.2449494  )
        35           Cu  tau(  35) = (   0.4999002   1.6177118   1.2448689  )
        36           Cu  tau(  36) = (   0.7503896   1.3863292   1.2448074  )
        37           Cu  tau(  37) = (   0.0000478   2.0784842   1.2460031  )
        38           Cu  tau(  38) = (   0.2498399   1.8472705   1.2463712  )
        39           Cu  tau(  39) = (   0.4998978   2.0784532   1.2457893  )
        40           Cu  tau(  40) = (   0.7501098   1.8475913   1.2459788  )
        41           Cu  tau(  41) = (   0.0001856  -0.0003195   1.4955457  )
        42           Cu  tau(  42) = (   0.2495352   0.2314793   1.4966494  )
        43           Cu  tau(  43) = (   0.4998331  -0.0003710   1.4950432  )
        44           Cu  tau(  44) = (   0.7505940   0.2299782   1.4948838  )
        45           Cu  tau(  45) = (   0.0005256   0.4612344   1.4952314  )
        46           Cu  tau(  46) = (   0.2503108   0.6899119   1.4924605  )
        47           Cu  tau(  47) = (   0.5000260   0.4580973   1.4912988  )
        48           Cu  tau(  48) = (   0.7516067   0.6899774   1.4918151  )
        49           Cu  tau(  49) = (   0.0018591   0.9238388   1.4913338  )
        50           Cu  tau(  50) = (   0.2500089   1.1575445   1.4922149  )
        51           Cu  tau(  51) = (   0.5016592   0.9235919   1.4944828  )
        52           Cu  tau(  52) = (   0.7517748   1.1574098   1.4918533  )
        53           Cu  tau(  53) = (   0.0006584   1.3858178   1.4957876  )
        54           Cu  tau(  54) = (   0.2494128   1.6157970   1.4967299  )
        55           Cu  tau(  55) = (   0.5000120   1.3896209   1.4907901  )
        56           Cu  tau(  56) = (   0.7507705   1.6172705   1.4950216  )
        57           Cu  tau(  57) = (   0.0001170   1.8476690   1.4954541  )
        58           Cu  tau(  58) = (   0.2499559   2.0784858   1.4955799  )
        59           Cu  tau(  59) = (   0.4998978   1.8478462   1.4952188  )
        60           Cu  tau(  60) = (   0.7500210   2.0784781   1.4955159  )
        61           Cu  tau(  61) = (   0.0007946   0.2300320   1.7438686  )
        62           Cu  tau(  62) = (   0.2501940  -0.0004364   1.7450082  )
        63           Cu  tau(  63) = (   0.4999517   0.2297727   1.7433026  )
        64           Cu  tau(  64) = (   0.7500662  -0.0003413   1.7448356  )
        65           Cu  tau(  65) = (   0.0042122   0.6914945   1.7435736  )
        66           Cu  tau(  66) = (   0.2507788   0.4613690   1.7463007  )
        67           Cu  tau(  67) = (   0.5027604   0.6881950   1.7365463  )
        68           Cu  tau(  68) = (   0.7518720   0.4592074   1.7422222  )
        69           Cu  tau(  69) = (   0.0055308   1.1556792   1.7463164  )
        70           Cu  tau(  70) = (   0.2512957   0.9237410   1.7299832  )
        71           Cu  tau(  71) = (   0.5021808   1.1596468   1.7355543  )
        72           Cu  tau(  72) = (   0.7603529   0.9240923   1.7347932  )
        73           Cu  tau(  73) = (   0.0009270   1.6171148   1.7446571  )
        74           Cu  tau(  74) = (   0.2499777   1.3832367   1.7498057  )
        75           Cu  tau(  75) = (   0.5000412   1.6166888   1.7430851  )
        76           Cu  tau(  76) = (   0.7529031   1.3874316   1.7428651  )
        77           Cu  tau(  77) = (   0.0000804   2.0782178   1.7452477  )
        78           Cu  tau(  78) = (   0.2499937   1.8478049   1.7446450  )
        79           Cu  tau(  79) = (   0.5000811   2.0785855   1.7452683  )
        80           Cu  tau(  80) = (   0.7503369   1.8475970   1.7447595  )
        81           Cu  tau(  81) = (   0.0004509   0.0001296   1.9905407  )
        82           Cu  tau(  82) = (   0.2511864   0.2293995   1.9909008  )
        83           Cu  tau(  83) = (   0.5005876   0.0001976   1.9920923  )
        84           Cu  tau(  84) = (   0.7519731   0.2307674   1.9899190  )
        85           Cu  tau(  85) = (   0.0045069   0.4583020   1.9902508  )
        86           Cu  tau(  86) = (   0.2491139   0.6808004   1.9910164  )
        87           Cu  tau(  87) = (   0.5024785   0.4573844   1.9900265  )
        88           Cu  tau(  88) = (   0.7570901   0.6816718   1.9879195  )
        89           Cu  tau(  89) = (  -0.0102675   0.9218760   1.9927100  )
        90           Cu  tau(  90) = (   0.2537906   1.1553815   1.9971949  )
        91           Cu  tau(  91) = (   0.5393300   0.9254001   1.9709594  )
        92           Cu  tau(  92) = (   0.7598418   1.1658442   1.9899533  )
        93           Cu  tau(  93) = (   0.0083264   1.3872563   1.9936961  )
        94           Cu  tau(  94) = (   0.2511942   1.6183421   1.9905376  )
        95           Cu  tau(  95) = (   0.5011905   1.3872377   1.9889098  )
        96           Cu  tau(  96) = (   0.7522387   1.6157143   1.9900791  )
        97           Cu  tau(  97) = (   0.0001639   1.8475130   1.9920757  )
        98           Cu  tau(  98) = (   0.2503744   2.0780833   1.9914896  )
        99           Cu  tau(  99) = (   0.5009107   1.8465106   1.9901791  )
       100           Cu  tau( 100) = (   0.7501924   2.0783533   1.9913752  )
       101           C   tau( 101) = (  -0.0002924   0.0969937   2.3854660  )
       102           C   tau( 102) = (   0.0000098   0.2896521   2.3841964  )
       103           C   tau( 103) = (   0.1663791   0.0007536   2.3866907  )
       104           C   tau( 104) = (   0.1664553   0.3859546   2.3870162  )
       105           C   tau( 105) = (   0.3328529   0.0969479   2.3836697  )
       106           C   tau( 106) = (   0.3331954   0.2896293   2.3860532  )
       107           C   tau( 107) = (   0.4996894   0.0005723   2.3839658  )
       108           C   tau( 108) = (   0.4999072   0.3859882   2.3860857  )
       109           C   tau( 109) = (   0.6665649   0.0970071   2.3831236  )
       110           C   tau( 110) = (   0.6667176   0.2897298   2.3808174  )
       111           C   tau( 111) = (   0.8330193   0.0007170   2.3862628  )
       112           C   tau( 112) = (   0.8334304   0.3860396   2.3809915  )
       113           C   tau( 113) = (   0.0002326   0.6745071   2.3936841  )
       114           C   tau( 114) = (   0.0004101   0.8669874   2.3963803  )
       115           C   tau( 115) = (   0.1670591   0.5786799   2.3921562  )
       116           C   tau( 116) = (   0.1664716   0.9627690   2.4130982  )
       117           C   tau( 117) = (   0.3334246   0.6743834   2.4084049  )
       118           C   tau( 118) = (   0.3332758   0.8663451   2.4203144  )
       119           C   tau( 119) = (   0.4997656   0.5786400   2.3938556  )
       120           C   tau( 120) = (   0.4997301   0.9624188   2.4145037  )
       121           O   tau( 121) = (   0.3009901   0.9189763   2.0822518  )
       122           O   tau( 122) = (   0.4649896   0.9189763   2.0822518  )
       123           C   tau( 123) = (   0.6668103   0.6747554   2.3940492  )
       124           C   tau( 124) = (   0.6663170   0.8668645   2.4038203  )
       125           C   tau( 125) = (   0.8336803   0.5786724   2.3879795  )
       126           C   tau( 126) = (   0.8329808   0.9628350   2.3949976  )
       127           C   tau( 127) = (   0.0002716   1.2507357   2.3877300  )
       128           C   tau( 128) = (   0.0002848   1.4429545   2.3776873  )
       129           C   tau( 129) = (   0.1668984   1.1543747   2.3987677  )
       130           C   tau( 130) = (   0.1669505   1.5395933   2.3815343  )
       131           C   tau( 131) = (   0.3336537   1.2510353   2.4002906  )
       132           C   tau( 132) = (   0.3337240   1.4432847   2.3918861  )
       133           C   tau( 133) = (   0.4999100   1.1544416   2.4067025  )
       134           C   tau( 134) = (   0.5001505   1.5397080   2.3899454  )
       135           C   tau( 135) = (   0.6661853   1.2506276   2.3925093  )
       136           C   tau( 136) = (   0.6663679   1.4428858   2.3869154  )
       137           C   tau( 137) = (   0.8333508   1.1549057   2.3929345  )
       138           C   tau( 138) = (   0.8329703   1.5392929   2.3793910  )
       139           C   tau( 139) = (  -0.0001549   1.8284168   2.3825987  )
       140           C   tau( 140) = (  -0.0003498   2.0212270   2.3880416  )
       141           C   tau( 141) = (   0.1668275   1.7321956   2.3830011  )
       142           C   tau( 142) = (   0.1664164   2.1174087   2.3883288  )
       143           C   tau( 143) = (   0.3333189   1.8283245   2.3877965  )
       144           C   tau( 144) = (   0.3331995   2.0210739   2.3887166  )
       145           C   tau( 145) = (   0.5000524   1.7321500   2.3873007  )
       146           C   tau( 146) = (   0.4997004   2.1172826   2.3887600  )
       147           C   tau( 147) = (   0.6665697   1.8283077   2.3871378  )
       148           C   tau( 148) = (   0.6663708   2.0211625   2.3887760  )
       149           C   tau( 149) = (   0.8329818   1.7320388   2.3821176  )
       150           C   tau( 150) = (   0.8331890   2.1175337   2.3881764  )

     number of k points=     6  gaussian smearing, width (Ry)=  0.1000
                       cart. coord. in units 2pi/alat
        k(    1) = (   0.0000000   0.0000000   0.0000000), wk =   0.2500000
        k(    2) = (   0.0000000  -0.2165064   0.0000000), wk =   0.2500000
        k(    3) = (   0.2500000   0.0000000   0.0000000), wk =   0.5000000
        k(    4) = (   0.2500000  -0.2165064   0.0000000), wk =   0.5000000
        k(    5) = (  -0.5000000   0.0000000   0.0000000), wk =   0.2500000
        k(    6) = (  -0.5000000  -0.2165064   0.0000000), wk =   0.2500000

     Dense  grid:  2050409 G-vectors     FFT dimensions: (  80, 192, 270)

     Largest allocated arrays     est. size (Mb)     dimensions
        Kohn-Sham Wavefunctions        54.94 Mb     (    4604,  782)
        NL pseudopotentials           130.95 Mb     (    4604, 1864)
        Each V/rho on FFT grid          1.17 Mb     (   76800)
        Each G-vector array             0.28 Mb     (   36616)
        G-vector shells                 0.14 Mb     (   17932)
     Largest temporary arrays     est. size (Mb)     dimensions
        Auxiliary wavefunctions       219.75 Mb     (    4604, 3128)
        Each subspace H/S matrix        5.96 Mb     (     625,  625)
        Each <psi_i|beta_j> matrix     22.24 Mb     (    1864,  782)
        Arrays for rho mixing           9.38 Mb     (   76800,    8)

     Initial potential from superposition of free atoms
     Check: negative starting charge=   -0.001806

     starting charge 1278.81751, renormalised to 1304.00000

     negative rho (up, down):  1.841E-03 0.000E+00
     Starting wfc are 1292 randomized atomic wfcs

     total cpu time spent up to now is      107.7 secs

     Self-consistent Calculation

     iteration #  1     ecut=    80.00 Ry     beta=0.70
     Davidson diagonalization with overlap
     c_bands:  5 eigenvalues not converged
     ethr =  1.00E-04,  avg # of iterations = 20.8

     negative rho (up, down):  2.961E+01 0.000E+00

     total cpu time spent up to now is     1897.8 secs

     total energy              =   -9206.30914888 Ry
     Harris-Foulkes estimate   =  -17171.46667637 Ry
     estimated scf accuracy    <  180643.30972053 Ry

     iteration #  2     ecut=    80.00 Ry     beta=0.70
     Davidson diagonalization with overlap
     ethr =  1.00E-02,  avg # of iterations = 12.5

     negative rho (up, down):  3.090E+01 0.000E+00

     total cpu time spent up to now is     2827.8 secs

     total energy              =  -12423.46834328 Ry
     Harris-Foulkes estimate   =  -13681.94030420 Ry
     estimated scf accuracy    <   16370.66715603 Ry

     iteration #  3     ecut=    80.00 Ry     beta=0.70
     Davidson diagonalization with overlap
     ethr =  1.00E-02,  avg # of iterations =  6.0

     negative rho (up, down):  3.315E+01 0.000E+00

     total cpu time spent up to now is     3373.0 secs

     total energy              =  -12570.79304130 Ry
     Harris-Foulkes estimate   =  -13391.02543402 Ry
     estimated scf accuracy    <    6312.97172876 Ry

     iteration #  4     ecut=    80.00 Ry     beta=0.70
     Davidson diagonalization with overlap
     ethr =  1.00E-02,  avg # of iterations =  6.0

     negative rho (up, down):  3.010E+01 0.000E+00

     total cpu time spent up to now is     3852.0 secs

     total energy              =  -12913.86425785 Ry
     Harris-Foulkes estimate   =  -13227.93003253 Ry
     estimated scf accuracy    <    6696.03073244 Ry

     iteration #  5     ecut=    80.00 Ry     beta=0.70
     Davidson diagonalization with overlap
     ethr =  1.00E-02,  avg # of iterations =  5.0

     negative rho (up, down):  2.091E+01 0.000E+00

     total cpu time spent up to now is     4278.0 secs

     total energy              =  -12927.14257787 Ry
     Harris-Foulkes estimate   =  -13112.42065600 Ry
     estimated scf accuracy    <    1056.07969284 Ry

     iteration #  6     ecut=    80.00 Ry     beta=0.70
     Davidson diagonalization with overlap
     ethr =  1.00E-02,  avg # of iterations =  2.8

     negative rho (up, down):  1.225E+01 0.000E+00

     total cpu time spent up to now is     4521.7 secs

     total energy              =  -12907.73870850 Ry
     Harris-Foulkes estimate   =  -12989.28696992 Ry
     estimated scf accuracy    <     767.84186866 Ry

     iteration #  7     ecut=    80.00 Ry     beta=0.70
     Davidson diagonalization with overlap
     ethr =  1.00E-02,  avg # of iterations =  2.0

     negative rho (up, down):  9.510E+00 0.000E+00

     total cpu time spent up to now is     4707.0 secs

     total energy              =  -12888.30404071 Ry
     Harris-Foulkes estimate   =  -12918.54812459 Ry
     estimated scf accuracy    <     731.06037901 Ry

     iteration #  8     ecut=    80.00 Ry     beta=0.70
     Davidson diagonalization with overlap
     ethr =  1.00E-02,  avg # of iterations =  1.0

     negative rho (up, down):  8.480E+00 0.000E+00

     total cpu time spent up to now is     4875.9 secs

     total energy              =  -12876.48644353 Ry
     Harris-Foulkes estimate   =  -12893.91096094 Ry
     estimated scf accuracy    <     512.06480652 Ry

     iteration #  9     ecut=    80.00 Ry     beta=0.70
     Davidson diagonalization with overlap
     ethr =  1.00E-02,  avg # of iterations =  1.0

     negative rho (up, down):  5.557E+00 0.000E+00

     total cpu time spent up to now is     5044.8 secs

     total energy              =  -12844.68295474 Ry
     Harris-Foulkes estimate   =  -12881.13805265 Ry
     estimated scf accuracy    <     327.61773226 Ry

     iteration # 10     ecut=    80.00 Ry     beta=0.70
     Davidson diagonalization with overlap
     ethr =  1.00E-02,  avg # of iterations =  1.8

     negative rho (up, down):  1.397E+00 0.000E+00

     total cpu time spent up to now is     5223.2 secs

     total energy              =  -12790.68841340 Ry
     Harris-Foulkes estimate   =  -12852.94475290 Ry
     estimated scf accuracy    <     547.16342557 Ry

     iteration # 11     ecut=    80.00 Ry     beta=0.70
     Davidson diagonalization with overlap
     ethr =  1.00E-02,  avg # of iterations =  3.8

     negative rho (up, down):  1.017E+00 0.000E+00

     total cpu time spent up to now is     5430.5 secs

     total energy              =  -12786.67497685 Ry
     Harris-Foulkes estimate   =  -12811.49862739 Ry
     estimated scf accuracy    <     223.25119460 Ry

     iteration # 12     ecut=    80.00 Ry     beta=0.70
     Davidson diagonalization with overlap
     ethr =  1.00E-02,  avg # of iterations =  2.3

     negative rho (up, down):  2.200E+00 0.000E+00

     total cpu time spent up to now is     5617.3 secs

     total energy              =  -12781.91246520 Ry
     Harris-Foulkes estimate   =  -12804.53271095 Ry
     estimated scf accuracy    <     108.29805746 Ry

     iteration # 13     ecut=    80.00 Ry     beta=0.70
     Davidson diagonalization with overlap
     ethr =  8.31E-03,  avg # of iterations =  2.3

     negative rho (up, down):  1.708E+00 0.000E+00

     total cpu time spent up to now is     5801.8 secs

     total energy              =  -12774.78102649 Ry
     Harris-Foulkes estimate   =  -12788.87253054 Ry
     estimated scf accuracy    <     141.93715369 Ry

     iteration # 14     ecut=    80.00 Ry     beta=0.70
     Davidson diagonalization with overlap
     ethr =  8.31E-03,  avg # of iterations =  1.0

     negative rho (up, down):  3.586E+00 0.000E+00

     total cpu time spent up to now is     5970.8 secs

     total energy              =  -12774.88688654 Ry
     Harris-Foulkes estimate   =  -12784.13250584 Ry
     estimated scf accuracy    <      65.25866425 Ry

     iteration # 15     ecut=    80.00 Ry     beta=0.70
     Davidson diagonalization with overlap
     ethr =  5.00E-03,  avg # of iterations =  1.0

     negative rho (up, down):  4.564E+00 0.000E+00

     total cpu time spent up to now is     6140.3 secs

     total energy              =  -12769.41824913 Ry
     Harris-Foulkes estimate   =  -12776.85878512 Ry
     estimated scf accuracy    <      51.33823466 Ry

     iteration # 16     ecut=    80.00 Ry     beta=0.70
     Davidson diagonalization with overlap
     ethr =  3.94E-03,  avg # of iterations =  2.0

     negative rho (up, down):  5.107E+00 0.000E+00

     total cpu time spent up to now is     6320.0 secs

     total energy              =  -12767.08183694 Ry
     Harris-Foulkes estimate   =  -12771.28076849 Ry
     estimated scf accuracy    <      47.45125313 Ry

     iteration # 17     ecut=    80.00 Ry     beta=0.70
     Davidson diagonalization with overlap
     ethr =  3.64E-03,  avg # of iterations =  1.3

     negative rho (up, down):  4.640E+00 0.000E+00

     total cpu time spent up to now is     6491.9 secs

     total energy              =  -12768.08698122 Ry
     Harris-Foulkes estimate   =  -12769.36314312 Ry
     estimated scf accuracy    <      20.56789508 Ry

     iteration # 18     ecut=    80.00 Ry     beta=0.70
     Davidson diagonalization with overlap
     ethr =  1.58E-03,  avg # of iterations =  4.2

     negative rho (up, down):  2.608E+00 0.000E+00

     total cpu time spent up to now is     6699.7 secs

     total energy              =  -12766.21905752 Ry
     Harris-Foulkes estimate   =  -12768.44802938 Ry
     estimated scf accuracy    <      15.04000243 Ry

     iteration # 19     ecut=    80.00 Ry     beta=0.70
     Davidson diagonalization with overlap
     ethr =  1.15E-03,  avg # of iterations =  4.8

     negative rho (up, down):  1.756E+00 0.000E+00

     total cpu time spent up to now is     6916.6 secs

     total energy              =  -12764.29948123 Ry
     Harris-Foulkes estimate   =  -12766.58100028 Ry
     estimated scf accuracy    <      10.67832009 Ry

     iteration # 20     ecut=    80.00 Ry     beta=0.70
     Davidson diagonalization with overlap
     ethr =  8.19E-04,  avg # of iterations =  7.2

     negative rho (up, down):  1.938E+00 0.000E+00

     total cpu time spent up to now is     7163.4 secs

     total energy              =  -12764.46758421 Ry
     Harris-Foulkes estimate   =  -12764.99641061 Ry
     estimated scf accuracy    <      30.30104606 Ry

     iteration # 21     ecut=    80.00 Ry     beta=0.70
     Davidson diagonalization with overlap
     ethr =  8.19E-04,  avg # of iterations =  1.0

     negative rho (up, down):  1.538E+00 0.000E+00

     total cpu time spent up to now is     7332.3 secs

     total energy              =  -12764.25125404 Ry
     Harris-Foulkes estimate   =  -12765.01558744 Ry
     estimated scf accuracy    <       9.10863275 Ry

     iteration # 22     ecut=    80.00 Ry     beta=0.70
     Davidson diagonalization with overlap
     ethr =  6.99E-04,  avg # of iterations =  2.0

     negative rho (up, down):  1.168E+00 0.000E+00

     total cpu time spent up to now is     7513.1 secs

     total energy              =  -12763.65225556 Ry
     Harris-Foulkes estimate   =  -12764.54240223 Ry
     estimated scf accuracy    <      23.30503498 Ry

     iteration # 23     ecut=    80.00 Ry     beta=0.70
     Davidson diagonalization with overlap
     ethr =  6.99E-04,  avg # of iterations =  1.8

     negative rho (up, down):  1.169E+00 0.000E+00

     total cpu time spent up to now is     7691.8 secs

     total energy              =  -12762.96137292 Ry
     Harris-Foulkes estimate   =  -12764.30963709 Ry
     estimated scf accuracy    <      61.85698783 Ry

     iteration # 24     ecut=    80.00 Ry     beta=0.70
     Davidson diagonalization with overlap
     ethr =  6.99E-04,  avg # of iterations =  1.7

     negative rho (up, down):  1.381E+00 0.000E+00

     total cpu time spent up to now is     7868.8 secs

     total energy              =  -12761.77969207 Ry
     Harris-Foulkes estimate   =  -12763.51965151 Ry
     estimated scf accuracy    <      34.36944244 Ry

     iteration # 25     ecut=    80.00 Ry     beta=0.70
     Davidson diagonalization with overlap
     ethr =  6.99E-04,  avg # of iterations =  5.5

     negative rho (up, down):  1.423E+00 0.000E+00

     total cpu time spent up to now is     8094.8 secs

     total energy              =  -12760.60126173 Ry
     Harris-Foulkes estimate   =  -12762.43508642 Ry
     estimated scf accuracy    <      41.18521277 Ry

     iteration # 26     ecut=    80.00 Ry     beta=0.70
     Davidson diagonalization with overlap
     ethr =  6.99E-04,  avg # of iterations =  3.8

     negative rho (up, down):  8.134E-01 0.000E+00

     total cpu time spent up to now is     8298.4 secs

     total energy              =  -12760.16788825 Ry
     Harris-Foulkes estimate   =  -12762.31834164 Ry
     estimated scf accuracy    <       5.25640781 Ry

     iteration # 27     ecut=    80.00 Ry     beta=0.70
     Davidson diagonalization with overlap
     ethr =  4.03E-04,  avg # of iterations =  4.7

     negative rho (up, down):  7.185E-01 0.000E+00

     total cpu time spent up to now is     8512.5 secs

     total energy              =  -12760.01881392 Ry
     Harris-Foulkes estimate   =  -12760.42315008 Ry
     estimated scf accuracy    <       1.28521226 Ry

     iteration # 28     ecut=    80.00 Ry     beta=0.70
     Davidson diagonalization with overlap
     ethr =  9.86E-05,  avg # of iterations = 10.3

     negative rho (up, down):  1.158E+00 0.000E+00

     total cpu time spent up to now is     8807.8 secs

     total energy              =  -12759.89109124 Ry
     Harris-Foulkes estimate   =  -12760.11256865 Ry
     estimated scf accuracy    <       1.82862525 Ry

     iteration # 29     ecut=    80.00 Ry     beta=0.70
     Davidson diagonalization with overlap
     ethr =  9.86E-05,  avg # of iterations =  7.2

     negative rho (up, down):  9.321E-01 0.000E+00

     total cpu time spent up to now is     9078.9 secs

     total energy              =  -12759.84612663 Ry
     Harris-Foulkes estimate   =  -12759.94921812 Ry
     estimated scf accuracy    <       0.72788606 Ry

     iteration # 30     ecut=    80.00 Ry     beta=0.70
     Davidson diagonalization with overlap
     ethr =  5.58E-05,  avg # of iterations =  2.2

     negative rho (up, down):  1.008E+00 0.000E+00

     total cpu time spent up to now is     9262.1 secs

     total energy              =  -12759.84862203 Ry
     Harris-Foulkes estimate   =  -12759.90853898 Ry
     estimated scf accuracy    <       0.53178628 Ry

     iteration # 31     ecut=    80.00 Ry     beta=0.70
     Davidson diagonalization with overlap
     ethr =  4.08E-05,  avg # of iterations =  6.5

     negative rho (up, down):  5.832E-01 0.000E+00

     total cpu time spent up to now is     9516.7 secs

     total energy              =  -12759.81585835 Ry
     Harris-Foulkes estimate   =  -12759.87861401 Ry
     estimated scf accuracy    <       0.18214704 Ry

     iteration # 32     ecut=    80.00 Ry     beta=0.70
     Davidson diagonalization with overlap
     c_bands:  1 eigenvalues not converged
     c_bands:  1 eigenvalues not converged
     c_bands:  2 eigenvalues not converged
     ethr =  1.40E-05,  avg # of iterations = 18.5

     negative rho (up, down):  6.277E-02 0.000E+00

     total cpu time spent up to now is     9931.5 secs

     total energy              =  -12759.79993421 Ry
     Harris-Foulkes estimate   =  -12759.83293567 Ry
     estimated scf accuracy    <       0.10997443 Ry

     iteration # 33     ecut=    80.00 Ry     beta=0.70
     Davidson diagonalization with overlap
     c_bands:  1 eigenvalues not converged
     ethr =  8.43E-06,  avg # of iterations = 18.8

     negative rho (up, down):  4.658E-02 0.000E+00

     total cpu time spent up to now is    10373.4 secs

     total energy              =  -12759.80400631 Ry
     Harris-Foulkes estimate   =  -12759.80617267 Ry
     estimated scf accuracy    <       0.01553599 Ry

     iteration # 34     ecut=    80.00 Ry     beta=0.70
     Davidson diagonalization with overlap
     ethr =  1.19E-06,  avg # of iterations = 11.7

     negative rho (up, down):  3.380E-02 0.000E+00

     total cpu time spent up to now is    10713.8 secs

     total energy              =  -12759.80470663 Ry
     Harris-Foulkes estimate   =  -12759.80588967 Ry
     estimated scf accuracy    <       0.00866137 Ry

     iteration # 35     ecut=    80.00 Ry     beta=0.70
     Davidson diagonalization with overlap
     c_bands:  1 eigenvalues not converged
     c_bands:  5 eigenvalues not converged
     ethr =  6.64E-07,  avg # of iterations = 13.5

     negative rho (up, down):  2.165E-02 0.000E+00

     total cpu time spent up to now is    11044.6 secs

     total energy              =  -12759.80469884 Ry
     Harris-Foulkes estimate   =  -12759.80536169 Ry
     estimated scf accuracy    <       0.00214420 Ry

     iteration # 36     ecut=    80.00 Ry     beta=0.70
     Davidson diagonalization with overlap
     c_bands:  1 eigenvalues not converged
     ethr =  1.64E-07,  avg # of iterations = 12.2

     negative rho (up, down):  1.370E-02 0.000E+00

     total cpu time spent up to now is    11387.3 secs

     total energy              =  -12759.80465913 Ry
     Harris-Foulkes estimate   =  -12759.80506968 Ry
     estimated scf accuracy    <       0.00147502 Ry

     iteration # 37     ecut=    80.00 Ry     beta=0.70
     Davidson diagonalization with overlap
     ethr =  1.13E-07,  avg # of iterations =  9.5

     negative rho (up, down):  5.854E-03 0.000E+00

     total cpu time spent up to now is    11684.9 secs

     total energy              =  -12759.80464286 Ry
     Harris-Foulkes estimate   =  -12759.80481652 Ry
     estimated scf accuracy    <       0.00030413 Ry

     iteration # 38     ecut=    80.00 Ry     beta=0.70
     Davidson diagonalization with overlap
     c_bands:  1 eigenvalues not converged
     ethr =  2.33E-08,  avg # of iterations = 12.8

     negative rho (up, down):  3.463E-03 0.000E+00

     total cpu time spent up to now is    12013.9 secs

     total energy              =  -12759.80461519 Ry
     Harris-Foulkes estimate   =  -12759.80466565 Ry
     estimated scf accuracy    <       0.00008083 Ry

     iteration # 39     ecut=    80.00 Ry     beta=0.70
     Davidson diagonalization with overlap
     ethr =  6.20E-09,  avg # of iterations = 10.7

     negative rho (up, down):  2.381E-03 0.000E+00

     total cpu time spent up to now is    12318.9 secs

     total energy              =  -12759.80461080 Ry
     Harris-Foulkes estimate   =  -12759.80462503 Ry
     estimated scf accuracy    <       0.00002901 Ry

     iteration # 40     ecut=    80.00 Ry     beta=0.70
     Davidson diagonalization with overlap
     ethr =  2.22E-09,  avg # of iterations =  2.5

     negative rho (up, down):  1.635E-03 0.000E+00

     total cpu time spent up to now is    12515.8 secs

     total energy              =  -12759.80460908 Ry
     Harris-Foulkes estimate   =  -12759.80461388 Ry
     estimated scf accuracy    <       0.00001331 Ry

     iteration # 41     ecut=    80.00 Ry     beta=0.70
     Davidson diagonalization with overlap
     ethr =  1.02E-09,  avg # of iterations =  2.0

     negative rho (up, down):  1.889E-03 0.000E+00

     total cpu time spent up to now is    12711.5 secs

     total energy              =  -12759.80461403 Ry
     Harris-Foulkes estimate   =  -12759.80461029 Ry
     estimated scf accuracy    <       0.00000713 Ry

     iteration # 42     ecut=    80.00 Ry     beta=0.70
     Davidson diagonalization with overlap
     ethr =  5.47E-10,  avg # of iterations =  3.0

     negative rho (up, down):  1.820E-03 0.000E+00

     total cpu time spent up to now is    12916.8 secs

     total energy              =  -12759.80461445 Ry
     Harris-Foulkes estimate   =  -12759.80461471 Ry
     estimated scf accuracy    <       0.00000486 Ry

     iteration # 43     ecut=    80.00 Ry     beta=0.70
     Davidson diagonalization with overlap
     ethr =  3.73E-10,  avg # of iterations =  2.0

     negative rho (up, down):  2.037E-03 0.000E+00

     total cpu time spent up to now is    13101.9 secs

     total energy              =  -12759.80461415 Ry
     Harris-Foulkes estimate   =  -12759.80461475 Ry
     estimated scf accuracy    <       0.00000212 Ry

     iteration # 44     ecut=    80.00 Ry     beta=0.70
     Davidson diagonalization with overlap
     ethr =  1.63E-10,  avg # of iterations =  2.2

     negative rho (up, down):  2.109E-03 0.000E+00

     total cpu time spent up to now is    13291.3 secs

     total energy              =  -12759.80461415 Ry
     Harris-Foulkes estimate   =  -12759.80461435 Ry
     estimated scf accuracy    <       0.00000093 Ry

     iteration # 45     ecut=    80.00 Ry     beta=0.70
     Davidson diagonalization with overlap
     ethr =  7.11E-11,  avg # of iterations =  2.0

     negative rho (up, down):  2.018E-03 0.000E+00

     total cpu time spent up to now is    13477.1 secs

     total energy              =  -12759.80461441 Ry
     Harris-Foulkes estimate   =  -12759.80461424 Ry
     estimated scf accuracy    <       0.00000035 Ry

     iteration # 46     ecut=    80.00 Ry     beta=0.70
     Davidson diagonalization with overlap
     ethr =  2.71E-11,  avg # of iterations =  3.0

     negative rho (up, down):  1.914E-03 0.000E+00

     total cpu time spent up to now is    13682.5 secs

     total energy              =  -12759.80461461 Ry
     Harris-Foulkes estimate   =  -12759.80461445 Ry
     estimated scf accuracy    <       0.00000009 Ry

     iteration # 47     ecut=    80.00 Ry     beta=0.70
     Davidson diagonalization with overlap
     ethr =  7.05E-12,  avg # of iterations =  3.0

     negative rho (up, down):  1.916E-03 0.000E+00

     total cpu time spent up to now is    13903.2 secs

     total energy              =  -12759.80461462 Ry
     Harris-Foulkes estimate   =  -12759.80461462 Ry
     estimated scf accuracy    <       0.00000006 Ry

     iteration # 48     ecut=    80.00 Ry     beta=0.70
     Davidson diagonalization with overlap
     ethr =  4.56E-12,  avg # of iterations =  2.0

     negative rho (up, down):  1.890E-03 0.000E+00

     total cpu time spent up to now is    14092.3 secs

     total energy              =  -12759.80461468 Ry
     Harris-Foulkes estimate   =  -12759.80461463 Ry
     estimated scf accuracy    <       0.00000001 Ry

     iteration # 49     ecut=    80.00 Ry     beta=0.70
     Davidson diagonalization with overlap
     ethr =  7.85E-13,  avg # of iterations =  3.0

     negative rho (up, down):  1.892E-03 0.000E+00

     total cpu time spent up to now is    14303.5 secs

     End of self-consistent calculation

          k = 0.0000 0.0000 0.0000 (256287 PWs)   bands (ev):

   -26.2526 -16.5375 -15.9997 -15.6309 -15.6244 -14.5240 -14.5209 -14.0390
   -14.0317 -13.6789 -13.6761 -13.6746 -13.6620 -12.7289 -12.7217 -12.6127
   -12.6086 -12.6025 -12.5982 -11.6775 -10.9550 -10.9138 -10.9098 -10.9034
   -10.7602 -10.6083  -9.7017  -9.5894  -9.0256  -9.0236  -9.0204  -9.0125
    -8.1476  -8.1438  -8.1434  -8.1359  -7.1575  -7.1530  -7.0826  -7.0803
    -7.0776  -7.0740  -7.0610  -7.0584  -5.6841  -5.5330  -5.5239  -5.5207
    -5.5164  -5.3653  -5.3599  -5.3577  -5.3551  -5.1849  -5.1586  -4.7793
    -4.5842  -4.5479  -4.2208  -4.2200  -4.1847  -4.1521  -4.1067  -3.8874
    -3.8816  -3.7620  -3.6671  -3.5904  -3.5563  -3.1083  -3.0818  -3.0714
    -3.0703  -3.0673  -3.0425  -2.9640  -2.9217  -2.9199  -2.9074  -2.9033
    -2.8803  -2.7335  -2.7192  -2.6518  -2.6360  -2.6246  -2.6078  -2.5586
    -2.5558  -2.4617  -2.4594  -2.3687  -2.3172  -2.2701  -2.2586  -2.2541
    -2.2458  -2.2400  -2.2268  -2.0282  -2.0040  -1.9961  -1.9930  -1.9313
    -1.8937  -1.8347  -1.8320  -1.8117  -1.7989  -1.7960  -1.7859  -1.7592
    -1.6914  -1.6850  -1.6724  -1.6686  -1.6488  -1.6374  -1.6088  -1.5541
    -1.5445  -1.5284  -1.5025  -1.4248  -1.4043  -1.3929  -1.3642  -1.3602
    -1.3454  -1.3162  -1.3084  -1.2968  -1.2923  -1.2840  -1.2455  -1.2210
    -1.2170  -1.1987  -1.1983  -1.1756  -1.1675  -1.1608  -1.1534  -1.1419
    -1.1161  -1.0838  -1.0475  -1.0202  -0.9987  -0.9920  -0.9867  -0.9673
    -0.9581  -0.9312  -0.9112  -0.8963  -0.8929  -0.8822  -0.8743  -0.8521
    -0.8399  -0.8226  -0.8211  -0.8182  -0.7967  -0.7925  -0.7522  -0.7275
    -0.7227  -0.7185  -0.7043  -0.6917  -0.6908  -0.6741  -0.6693  -0.6631
    -0.6549  -0.6539  -0.6530  -0.6397  -0.6343  -0.6314  -0.6201  -0.5977
    -0.5931  -0.5822  -0.5758  -0.5731  -0.5599  -0.5554  -0.5380  -0.5319
    -0.5092  -0.4986  -0.4965  -0.4938  -0.4901  -0.4878  -0.4865  -0.4854
    -0.4823  -0.4811  -0.4802  -0.4737  -0.4725  -0.4714  -0.4611  -0.4558
    -0.4447  -0.4348  -0.4101  -0.3961  -0.3908  -0.3501  -0.3266  -0.3193
    -0.3141  -0.3078  -0.3000  -0.2863  -0.2754  -0.2640  -0.2615  -0.2606
    -0.2437  -0.2415  -0.2317  -0.2276  -0.2250  -0.2131  -0.2022  -0.1993
    -0.1957  -0.1905  -0.1863  -0.1809  -0.1572  -0.1522  -0.1459  -0.1210
    -0.1034  -0.0839  -0.0694  -0.0648  -0.0632  -0.0552  -0.0451  -0.0432
    -0.0386  -0.0365  -0.0321  -0.0301  -0.0286  -0.0260  -0.0183  -0.0121
    -0.0057  -0.0025  -0.0004   0.0020   0.0228   0.0403   0.0470   0.0516
     0.0630   0.0773   0.0792   0.0844   0.0912   0.1016   0.1083   0.1118
     0.1123   0.1133   0.1200   0.1304   0.1344   0.1444   0.1470   0.1532
     0.1548   0.1606   0.1608   0.1643   0.1677   0.1705   0.1783   0.1821
     0.1834   0.1872   0.2015   0.2061   0.2111   0.2454   0.2507   0.2579
     0.2645   0.2753   0.2830   0.2882   0.3023   0.3048   0.3097   0.3108
     0.3180   0.3217   0.3239   0.3365   0.3400   0.3529   0.3653   0.3703
     0.3754   0.3802   0.3803   0.3910   0.3931   0.3957   0.4003   0.4021
     0.4095   0.4185   0.4190   0.4209   0.4244   0.4262   0.4307   0.4329
     0.4449   0.4551   0.4592   0.4602   0.4687   0.4719   0.4738   0.4763
     0.4852   0.4998   0.5026   0.5141   0.5298   0.5362   0.5453   0.5588
     0.5694   0.5741   0.5854   0.5929   0.5996   0.6186   0.6190   0.6204
     0.6220   0.6227   0.6375   0.6440   0.6480   0.6556   0.6705   0.6964
     0.7025   0.7072   0.7142   0.7201   0.7235   0.7275   0.7315   0.7378
     0.7417   0.7511   0.7546   0.7650   0.7712   0.7753   0.7815   0.7914
     0.7931   0.8041   0.8101   0.8205   0.8227   0.8346   0.8431   0.8456
     0.8473   0.8599   0.8679   0.8713   0.8761   0.8782   0.8791   0.8837
     0.8992   0.9041   0.9050   0.9134   0.9158   0.9192   0.9219   0.9259
     0.9299   0.9329   0.9379   0.9407   0.9510   0.9577   0.9641   0.9741
     0.9750   0.9851   0.9891   0.9956   0.9966   1.0088   1.0105   1.0169
     1.0233   1.0257   1.0388   1.0414   1.0456   1.0473   1.0488   1.0558
     1.0563   1.0608   1.0651   1.0715   1.0753   1.0762   1.0785   1.0816
     1.0883   1.0949   1.0994   1.1154   1.1191   1.1201   1.1216   1.1244
     1.1296   1.1300   1.1318   1.1324   1.1343   1.1450   1.1557   1.1578
     1.1639   1.1723   1.1770   1.1824   1.1937   1.1994   1.2009   1.2101
     1.2135   1.2227   1.2331   1.2417   1.2477   1.2564   1.2592   1.2641
     1.2727   1.2734   1.2771   1.2836   1.2873   1.2926   1.2940   1.3051
     1.3106   1.3133   1.3193   1.3201   1.3223   1.3247   1.3328   1.3402
     1.3453   1.3497   1.3535   1.3608   1.3631   1.3681   1.3747   1.3759
     1.3834   1.3873   1.3924   1.3959   1.3991   1.4026   1.4036   1.4080
     1.4120   1.4180   1.4200   1.4253   1.4279   1.4341   1.4434   1.4490
     1.4506   1.4529   1.4713   1.4778   1.4794   1.4854   1.4883   1.4906
     1.4922   1.4955   1.4990   1.4996   1.5024   1.5044   1.5125   1.5146
     1.5208   1.5331   1.5395   1.5453   1.5557   1.5571   1.5679   1.5726
     1.5749   1.5758   1.5794   1.5826   1.5875   1.5925   1.5932   1.5966
     1.6021   1.6072   1.6089   1.6127   1.6178   1.6211   1.6248   1.6361
     1.6386   1.6403   1.6431   1.6480   1.6495   1.6544   1.6559   1.6597
     1.6624   1.6704   1.6735   1.6755   1.6814   1.6870   1.6878   1.6906
     1.6953   1.6969   1.6974   1.7107   1.7187   1.7189   1.7269   1.7320
     1.7343   1.7369   1.7435   1.7470   1.7484   1.7514   1.7565   1.7649
     1.7703   1.7711   1.7811   1.7856   1.7866   1.7925   1.7952   1.7977
     1.8030   1.8038   1.8085   1.8119   1.8132   1.8138   1.8164   1.8178
     1.8255   1.8276   1.8306   1.8332   1.8369   1.8412   1.8498   1.8527
     1.8630   1.8650   1.8754   1.8793   1.8911   1.8979   1.8999   1.9054
     1.9327   1.9329   1.9341   1.9470   1.9569   1.9660   1.9693   1.9799
     1.9843   1.9944   1.9958   2.0028   2.0207   2.0244   2.0269   2.0490
     2.0895   2.2019   2.3390   2.4561   2.4794   2.4909   2.5032   2.5194
     2.5226   2.5793   2.5849   2.5903   2.5949   2.5989   2.6372   2.6753
     2.7641   2.7815   2.8043   2.8224   2.8248   2.9097   2.9148   2.9219
     3.0445   3.0904   3.3480   3.4049   3.4452   3.4525   3.4697   3.5208
     3.5650   3.7053   3.8994   3.9864   4.1588   4.1924   4.2061   4.2143
     4.2567   4.3024   4.3177   4.3368   4.3480   4.3570   4.3654   4.3714
     4.4024   4.4746   4.5391   4.5519   4.6030   4.7320   4.7407   4.9225
     5.0438   5.1250   5.3014   5.3253   5.3339   5.3750   5.3896   5.6982
     5.7178   5.8058   5.8493   6.0505   6.0720   6.1802   6.2810   6.2942
     6.3792   6.6979   6.7345   6.7668   6.7845   6.8252   6.8340   6.8497
     6.9180   6.9908   7.0558   7.0740   7.1387   7.1657   7.1693   7.1743
     7.2030   7.2362   7.2516   7.4034   7.4210   7.4336   7.4545   7.4860
     7.6836   7.7138   7.7296   7.8313   7.8810   7.9281   7.9402   8.0147
     8.0298   8.0528   8.0695   8.1332   8.3216   8.4829   8.5528   8.5532
     8.5695   8.5849   8.6333   8.6799   8.6907   8.6974   8.7341   8.7612
     8.8486   8.8610   8.8920   8.9182   8.9268   8.9423   8.9937   8.9983
     9.0143   9.0314   9.0750   9.1238   9.1706   9.2519   9.3007   9.3455
     9.3542   9.3743   9.4214   9.4238   9.4343   9.4485   9.4757   9.4836
     9.6462   9.7309   9.7551   9.8364   9.8467   9.9162   9.9712  10.0673
    10.0918  10.1177  10.1203  10.1763  10.2484  10.3293

          k = 0.0000-0.2165 0.0000 (256176 PWs)   bands (ev):

   -26.2526 -16.5375 -15.9126 -15.9004 -15.1683 -15.1621 -13.9513 -13.9500
   -13.9457 -13.9307 -13.7059 -13.7047 -13.2310 -13.2270 -13.2237 -13.2163
   -11.8450 -11.8407 -11.8251 -11.8158 -11.6872 -11.6053 -11.5884 -10.6963
    -9.9349  -9.9261  -9.9105  -9.9040  -9.5657  -8.6728  -8.6654  -8.5152
    -8.5102  -8.5076  -8.5026  -7.6857  -7.6804  -7.6781  -7.6766  -6.5075
    -6.5055  -6.4978  -6.4942  -6.3518  -6.3500  -6.3473  -6.3423  -5.5774
    -5.5397  -5.5323  -5.5252  -4.8008  -4.7237  -4.7064  -4.7012  -4.6805
    -4.6749  -4.5674  -4.5450  -4.3467  -4.3175  -4.1383  -4.1341  -4.1321
    -4.1289  -4.1048  -3.9052  -3.6394  -3.5793  -3.1985  -3.1346  -3.0579
    -2.9468  -2.9412  -2.9339  -2.8808  -2.8324  -2.8242  -2.8144  -2.6974
    -2.6678  -2.6568  -2.5825  -2.5809  -2.5740  -2.5719  -2.5322  -2.4012
    -2.3948  -2.3899  -2.3823  -2.3001  -2.2950  -2.2458  -2.2389  -2.2271
    -2.2256  -2.2238  -2.2037  -2.1997  -2.1257  -2.1218  -2.1153  -2.0262
    -1.9434  -1.9359  -1.8935  -1.8874  -1.8851  -1.8705  -1.8068  -1.7952
    -1.7620  -1.7514  -1.7060  -1.7027  -1.6264  -1.6218  -1.6169  -1.5987
    -1.5949  -1.5124  -1.4950  -1.4302  -1.4141  -1.3992  -1.3894  -1.3884
    -1.3782  -1.3740  -1.3648  -1.3548  -1.3503  -1.3464  -1.3296  -1.2781
    -1.2726  -1.2098  -1.1789  -1.1705  -1.1546  -1.1058  -1.0976  -1.0960
    -1.0608  -1.0194  -1.0078  -0.9947  -0.9881  -0.9635  -0.9467  -0.9369
    -0.9232  -0.9128  -0.9078  -0.9066  -0.8984  -0.8902  -0.8877  -0.8814
    -0.8799  -0.8703  -0.8682  -0.8616  -0.8546  -0.8416  -0.8329  -0.7997
    -0.7900  -0.7671  -0.7641  -0.7418  -0.7311  -0.7164  -0.7141  -0.6884
    -0.6881  -0.6803  -0.6696  -0.6609  -0.6518  -0.6138  -0.6129  -0.6063
    -0.5990  -0.5954  -0.5782  -0.5680  -0.5580  -0.5563  -0.5536  -0.5494
    -0.5469  -0.5326  -0.5291  -0.5171  -0.5079  -0.4819  -0.4600  -0.4591
    -0.4499  -0.4477  -0.4446  -0.4399  -0.4377  -0.4291  -0.4216  -0.4043
    -0.3987  -0.3877  -0.3784  -0.3752  -0.3672  -0.3009  -0.2961  -0.2819
    -0.2807  -0.2706  -0.2667  -0.2598  -0.2446  -0.2372  -0.2367  -0.2354
    -0.2337  -0.2248  -0.2098  -0.2012  -0.1916  -0.1768  -0.1719  -0.1651
    -0.1611  -0.1489  -0.1387  -0.1315  -0.1269  -0.1094  -0.1093  -0.1043
    -0.0881  -0.0857  -0.0844  -0.0811  -0.0671  -0.0650  -0.0532  -0.0517
    -0.0352  -0.0170  -0.0012   0.0097   0.0130   0.0172   0.0272   0.0377
     0.0406   0.0534   0.0571   0.0650   0.0782   0.0817   0.0823   0.0843
     0.0861   0.0999   0.1004   0.1065   0.1103   0.1108   0.1174   0.1223
     0.1261   0.1287   0.1327   0.1371   0.1395   0.1466   0.1540   0.1560
     0.1614   0.1651   0.1716   0.1801   0.1848   0.1952   0.2128   0.2269
     0.2315   0.2341   0.2375   0.2424   0.2439   0.2479   0.2533   0.2579
     0.2657   0.2707   0.2738   0.2798   0.2845   0.2874   0.2901   0.2908
     0.2952   0.2992   0.3017   0.3049   0.3123   0.3180   0.3280   0.3357
     0.3483   0.3548   0.3630   0.3700   0.3752   0.3779   0.3823   0.3889
     0.3913   0.3939   0.3989   0.4077   0.4166   0.4227   0.4262   0.4311
     0.4369   0.4479   0.4485   0.4514   0.4537   0.4567   0.4637   0.4674
     0.4769   0.4869   0.4877   0.4903   0.4933   0.5011   0.5095   0.5327
     0.5363   0.5449   0.5549   0.5578   0.5669   0.5738   0.5757   0.5774
     0.5953   0.6073   0.6155   0.6322   0.6365   0.6395   0.6542   0.6639
     0.6816   0.6863   0.7058   0.7212   0.7388   0.7407   0.7538   0.7612
     0.7698   0.7731   0.7733   0.7790   0.7912   0.7976   0.8073   0.8143
     0.8171   0.8187   0.8324   0.8347   0.8367   0.8388   0.8417   0.8449
     0.8523   0.8536   0.8629   0.8664   0.8784   0.8853   0.8889   0.8925
     0.8955   0.9008   0.9100   0.9114   0.9143   0.9179   0.9180   0.9186
     0.9227   0.9241   0.9301   0.9351   0.9438   0.9456   0.9494   0.9524
     0.9556   0.9588   0.9611   0.9649   0.9673   0.9756   0.9773   0.9833
     0.9860   0.9897   1.0109   1.0123   1.0201   1.0244   1.0303   1.0335
     1.0360   1.0386   1.0469   1.0505   1.0554   1.0561   1.0576   1.0615
     1.0621   1.0740   1.0855   1.0954   1.0974   1.1010   1.1030   1.1097
     1.1189   1.1224   1.1273   1.1304   1.1337   1.1417   1.1489   1.1570
     1.1575   1.1656   1.1755   1.1836   1.1914   1.1989   1.2162   1.2340
     1.2409   1.2566   1.2602   1.2621   1.2673   1.2731   1.2749   1.2784
     1.2835   1.2930   1.2933   1.2961   1.3029   1.3054   1.3065   1.3143
     1.3162   1.3199   1.3250   1.3323   1.3344   1.3399   1.3469   1.3482
     1.3484   1.3505   1.3522   1.3535   1.3599   1.3612   1.3661   1.3671
     1.3703   1.3709   1.3731   1.3736   1.3749   1.3864   1.3883   1.3908
     1.3926   1.3943   1.4017   1.4091   1.4097   1.4181   1.4213   1.4288
     1.4326   1.4409   1.4488   1.4564   1.4621   1.4643   1.4738   1.4899
     1.5012   1.5066   1.5105   1.5124   1.5232   1.5344   1.5392   1.5403
     1.5416   1.5473   1.5488   1.5529   1.5530   1.5601   1.5613   1.5679
     1.5687   1.5735   1.5772   1.5779   1.5812   1.5830   1.5841   1.5962
     1.5974   1.6017   1.6036   1.6059   1.6093   1.6113   1.6281   1.6306
     1.6353   1.6380   1.6445   1.6450   1.6477   1.6517   1.6549   1.6589
     1.6646   1.6674   1.6692   1.6709   1.6738   1.6756   1.6916   1.6925
     1.6960   1.6971   1.7010   1.7051   1.7147   1.7154   1.7207   1.7242
     1.7268   1.7373   1.7448   1.7472   1.7551   1.7571   1.7608   1.7618
     1.7641   1.7745   1.7847   1.7881   1.7920   1.7925   1.8025   1.8041
     1.8061   1.8157   1.8185   1.8201   1.8229   1.8289   1.8296   1.8326
     1.8332   1.8433   1.8566   1.8664   1.8681   1.8715   1.8767   1.8773
     1.8807   1.8887   1.8928   1.8990   1.9030   1.9051   1.9149   1.9156
     1.9264   1.9313   1.9560   1.9589   1.9653   2.0010   2.0575   2.0691
     2.0773   2.0835   2.0984   2.1048   2.1081   2.1380   2.1743   2.1760
     2.1783   2.1861   2.1896   2.2335   2.2366   2.2425   2.3135   2.4452
     2.4806   2.5195   2.5273   2.6795   2.6939   2.7904   2.7941   2.8044
     2.8431   2.8726   2.8904   2.9223   2.9479   2.9526   3.0103   3.0295
     3.0360   3.1247   3.1409   3.1955   3.2228   3.2511   3.2885   3.3226
     3.5390   3.5409   3.5413   3.7488   3.8739   3.9021   3.9342   4.1506
     4.1713   4.3621   4.3779   4.4043   4.4367   4.4822   4.5180   4.5492
     4.5958   4.6620   4.7371   4.7949   4.9059   4.9112   5.0245   5.0283
     5.0898   5.1043   5.4069   5.4545   5.4661   5.6158   5.6414   5.6917
     5.7162   5.7634   5.7698   5.8310   6.0122   6.0533   6.1060   6.1932
     6.2408   6.2613   6.2898   6.6863   6.7177   6.7862   6.7901   6.7929
     6.9147   6.9401   6.9856   7.0282   7.0649   7.1608   7.2219   7.3738
     7.3881   7.4043   7.4487   7.4555   7.4680   7.4875   7.5198   7.5483
     7.5493   7.5820   7.6253   7.6986   7.7202   7.7837   7.8137   8.0146
     8.1003   8.1155   8.1516   8.1580   8.1633   8.3141   8.4991   8.5363
     8.5381   8.5625   8.6510   8.6847   8.7586   8.7623   8.7730   8.7790
     8.8973   8.9190   8.9264   8.9722   8.9946   9.0784   9.0861   9.1113
     9.1322   9.1614   9.1876   9.2020   9.2122   9.2238   9.3447   9.4264
     9.4355   9.5526   9.5662   9.5668   9.5938   9.6131   9.7015   9.7347
     9.7411   9.7693   9.7744   9.8274   9.8474   9.8707   9.8774   9.9668
     9.9828  10.1114  10.1418  10.1542  10.1762  10.2473

          k = 0.2500 0.0000 0.0000 (256240 PWs)   bands (ev):

   -26.2526 -16.5383 -15.8752 -15.5072 -15.5003 -14.8876 -14.5244 -14.5173
   -14.4022 -14.3990 -13.4369 -13.4338 -12.9589 -12.6140 -12.6075 -12.6066
   -12.5977 -11.7243 -11.6897 -11.6452 -11.5770 -11.5673 -10.7451 -10.5578
   -10.2888 -10.2798 -10.2695  -9.7630  -9.5976  -9.5750  -9.3014  -9.2828
    -8.8981  -8.6466  -8.6391  -8.0903  -7.0846  -7.0836  -7.0778  -7.0740
    -6.9665  -6.9609  -6.4956  -6.2248  -5.6636  -5.5104  -5.4628  -5.4603
    -5.4482  -5.4440  -5.0375  -4.9931  -4.7224  -4.7180  -4.6728  -4.5335
    -4.4706  -4.2121  -4.1117  -4.0356  -4.0314  -3.9620  -3.9090  -3.8977
    -3.8828  -3.8758  -3.6406  -3.6342  -3.6147  -3.5221  -3.4513  -3.4399
    -3.4146  -3.2780  -3.1578  -3.1530  -3.0781  -3.0708  -3.0679  -3.0652
    -2.9921  -2.9672  -2.9611  -2.9163  -2.8470  -2.8372  -2.7887  -2.7180
    -2.6853  -2.6325  -2.5952  -2.5090  -2.4740  -2.4333  -2.4302  -2.3494
    -2.3436  -2.2531  -2.1362  -2.0304  -2.0182  -2.0128  -1.9615  -1.9432
    -1.7950  -1.7447  -1.7293  -1.7278  -1.7044  -1.6391  -1.6075  -1.5560
    -1.5545  -1.5394  -1.5380  -1.5134  -1.4950  -1.4410  -1.4379  -1.4282
    -1.4265  -1.4162  -1.4005  -1.3738  -1.3476  -1.3435  -1.3292  -1.3116
    -1.2918  -1.2780  -1.2374  -1.2320  -1.2288  -1.2182  -1.2144  -1.2142
    -1.2076  -1.1981  -1.1884  -1.1652  -1.1440  -1.1422  -1.1293  -1.1246
    -1.1179  -1.0027  -0.9717  -0.9616  -0.9518  -0.9445  -0.9119  -0.9061
    -0.8828  -0.8789  -0.8715  -0.8680  -0.8653  -0.8513  -0.8379  -0.8287
    -0.8227  -0.8195  -0.8083  -0.7993  -0.7828  -0.7727  -0.7697  -0.7646
    -0.7525  -0.7460  -0.7428  -0.7320  -0.7290  -0.7090  -0.6871  -0.6847
    -0.6810  -0.6787  -0.6662  -0.6639  -0.6557  -0.6504  -0.6501  -0.6415
    -0.6258  -0.6211  -0.6164  -0.6111  -0.6088  -0.6076  -0.6067  -0.5963
    -0.5877  -0.5864  -0.5818  -0.5738  -0.5629  -0.5528  -0.5473  -0.5377
    -0.5352  -0.5301  -0.5155  -0.4959  -0.4779  -0.4644  -0.4506  -0.4484
    -0.4361  -0.4314  -0.4287  -0.4032  -0.4005  -0.3882  -0.3849  -0.3804
    -0.3724  -0.3717  -0.3647  -0.3567  -0.3164  -0.2671  -0.2582  -0.2369
    -0.2199  -0.2137  -0.2002  -0.1915  -0.1879  -0.1803  -0.1770  -0.1722
    -0.1643  -0.1595  -0.1524  -0.1480  -0.1344  -0.1275  -0.1238  -0.1149
    -0.1131  -0.1058  -0.1012  -0.0954  -0.0907  -0.0682  -0.0615  -0.0469
    -0.0346  -0.0298  -0.0211  -0.0185  -0.0145  -0.0090  -0.0063  -0.0029
     0.0032   0.0167   0.0277   0.0379   0.0473   0.0503   0.0548   0.0619
     0.0695   0.0772   0.0793   0.0854   0.0859   0.1049   0.1073   0.1144
     0.1186   0.1253   0.1272   0.1362   0.1389   0.1593   0.1611   0.1658
     0.1793   0.1798   0.1931   0.1981   0.2000   0.2048   0.2150   0.2170
     0.2237   0.2263   0.2307   0.2390   0.2476   0.2517   0.2612   0.2720
     0.2735   0.2967   0.2987   0.3058   0.3090   0.3197   0.3226   0.3293
     0.3349   0.3392   0.3470   0.3569   0.3609   0.3665   0.3700   0.3719
     0.3751   0.3761   0.3815   0.3843   0.3912   0.3982   0.4074   0.4086
     0.4136   0.4176   0.4253   0.4324   0.4355   0.4395   0.4416   0.4473
     0.4579   0.4676   0.4731   0.4790   0.4848   0.4882   0.4942   0.4964
     0.5134   0.5202   0.5233   0.5306   0.5319   0.5411   0.5423   0.5631
     0.5652   0.5898   0.5971   0.6133   0.6249   0.6283   0.6327   0.6441
     0.6494   0.6502   0.6547   0.6588   0.6635   0.6661   0.6681   0.6708
     0.6724   0.6756   0.6800   0.6814   0.6860   0.6916   0.6999   0.7033
     0.7086   0.7113   0.7175   0.7209   0.7227   0.7381   0.7519   0.7610
     0.7651   0.7724   0.7832   0.7856   0.7932   0.7958   0.8047   0.8090
     0.8208   0.8254   0.8336   0.8447   0.8482   0.8524   0.8553   0.8602
     0.8618   0.8676   0.8704   0.8721   0.8785   0.8947   0.8991   0.9019
     0.9075   0.9157   0.9207   0.9227   0.9248   0.9304   0.9349   0.9445
     0.9510   0.9534   0.9583   0.9674   0.9697   0.9728   0.9748   0.9846
     0.9863   0.9894   0.9962   0.9971   1.0044   1.0075   1.0200   1.0285
     1.0329   1.0387   1.0421   1.0439   1.0504   1.0632   1.0717   1.0741
     1.0868   1.0900   1.0941   1.0985   1.1070   1.1144   1.1184   1.1216
     1.1239   1.1287   1.1316   1.1370   1.1475   1.1502   1.1513   1.1591
     1.1631   1.1737   1.1772   1.1851   1.1943   1.2014   1.2056   1.2171
     1.2221   1.2276   1.2353   1.2441   1.2488   1.2557   1.2577   1.2624
     1.2650   1.2680   1.2736   1.2756   1.2800   1.2891   1.2912   1.2981
     1.3020   1.3096   1.3119   1.3219   1.3286   1.3348   1.3398   1.3436
     1.3493   1.3558   1.3582   1.3610   1.3639   1.3698   1.3735   1.3788
     1.3818   1.3866   1.3911   1.3931   1.3992   1.4002   1.4056   1.4079
     1.4101   1.4152   1.4167   1.4186   1.4269   1.4297   1.4334   1.4389
     1.4424   1.4459   1.4483   1.4507   1.4534   1.4617   1.4666   1.4756
     1.4796   1.4815   1.4849   1.4900   1.4962   1.5023   1.5050   1.5108
     1.5137   1.5174   1.5197   1.5326   1.5348   1.5402   1.5426   1.5550
     1.5582   1.5629   1.5680   1.5790   1.5815   1.5898   1.6010   1.6035
     1.6061   1.6119   1.6165   1.6189   1.6209   1.6262   1.6278   1.6344
     1.6359   1.6410   1.6500   1.6525   1.6549   1.6574   1.6581   1.6643
     1.6696   1.6716   1.6737   1.6769   1.6846   1.6853   1.6892   1.6920
     1.6964   1.6987   1.7031   1.7081   1.7126   1.7201   1.7254   1.7261
     1.7305   1.7333   1.7372   1.7423   1.7453   1.7510   1.7554   1.7621
     1.7640   1.7677   1.7694   1.7759   1.7853   1.7884   1.7906   1.7957
     1.8006   1.8022   1.8044   1.8077   1.8113   1.8148   1.8213   1.8234
     1.8260   1.8289   1.8338   1.8383   1.8406   1.8461   1.8478   1.8575
     1.8601   1.8625   1.8661   1.8691   1.8790   1.8833   1.8854   1.8888
     1.8951   1.9053   1.9118   1.9247   1.9323   1.9460   1.9572   1.9640
     1.9886   1.9981   2.0047   2.0174   2.0289   2.0570   2.1019   2.1153
     2.1240   2.1631   2.1690   2.1836   2.2194   2.2422   2.3481   2.3723
     2.4034   2.4359   2.4930   2.5036   2.5408   2.5818   2.6242   2.7645
     2.8591   2.8756   2.9309   3.0427   3.1204   3.2100   3.3337   3.3674
     3.4390   3.5280   3.5845   3.5943   3.6016   3.6699   3.7249   3.8312
     3.8845   3.9580   4.0058   4.0299   4.0430   4.0799   4.1027   4.1433
     4.1828   4.2252   4.2872   4.3476   4.4093   4.4706   4.5377   4.5654
     4.6497   4.7232   4.7367   4.8153   4.8535   4.9956   5.0465   5.1896
     5.2147   5.2581   5.5363   5.5871   5.5937   5.6290   5.7023   5.7413
     5.7559   5.8367   5.8537   5.9154   5.9307   5.9584   6.0073   6.0136
     6.0659   6.1436   6.1468   6.2127   6.2421   6.2740   6.3686   6.3860
     6.4376   6.4715   6.7733   7.0118   7.0705   7.0940   7.1072   7.1300
     7.1581   7.1715   7.2095   7.2503   7.3199   7.3911   7.4093   7.4323
     7.4462   7.5489   7.6009   7.6361   7.6432   7.7879   7.8217   7.8290
     7.8812   7.9773   8.0047   8.0283   8.0947   8.1022   8.1214   8.1405
     8.2028   8.3386   8.3889   8.4146   8.4219   8.5136   8.5596   8.6073
     8.6726   8.6961   8.7166   8.7285   8.7332   8.7493   8.7656   8.9262
     8.9351   9.0154   9.0255   9.0747   9.2585   9.2939   9.3479   9.4691
     9.4824   9.5002   9.5100   9.5226   9.5324   9.5424   9.5598   9.5678
     9.5870   9.5898   9.6006   9.6216   9.7119   9.7198   9.8263   9.8372
     9.9339  10.0919  10.1186  10.1231  10.1335  10.2263

          k = 0.2500-0.2165 0.0000 (256316 PWs)   bands (ev):

   -26.2526 -16.5383 -15.7884 -15.7758 -15.0452 -15.0392 -14.8021 -14.7890
   -14.0686 -14.0630 -13.5863 -13.5850 -12.8754 -12.8644 -12.6383 -12.6370
   -12.1725 -12.1657 -11.6871 -11.4973 -11.4902 -10.8865 -10.8693 -10.7265
   -10.6219 -10.5563 -10.2336 -10.2269  -9.5792  -9.1768  -9.1668  -8.6696
    -8.6401  -8.5784  -8.5710  -8.0196  -8.0094  -7.9254  -7.9220  -6.2120
    -6.1877  -6.1768  -6.1677  -6.0602  -6.0450  -5.8293  -5.8221  -5.4985
    -5.4929  -5.4089  -5.3488  -4.7480  -4.6990  -4.6929  -4.6288  -4.4175
    -4.3890  -4.3723  -4.3674  -4.2353  -4.2197  -3.9844  -3.9766  -3.9524
    -3.7701  -3.7351  -3.7282  -3.6861  -3.6816  -3.4843  -3.4515  -3.3505
    -3.3422  -3.1972  -3.1682  -3.1173  -3.1049  -3.0934  -3.0913  -3.0623
    -3.0076  -2.8833  -2.8158  -2.7700  -2.7514  -2.7477  -2.7421  -2.6215
    -2.6161  -2.5603  -2.5448  -2.5402  -2.4458  -2.4356  -2.4220  -2.3981
    -2.3315  -2.1363  -2.1300  -2.1019  -2.0794  -1.9996  -1.9511  -1.9024
    -1.8592  -1.8226  -1.8171  -1.7971  -1.7864  -1.6709  -1.6447  -1.6423
    -1.6041  -1.5687  -1.5411  -1.4940  -1.4855  -1.4718  -1.4666  -1.4616
    -1.4454  -1.4055  -1.3846  -1.3617  -1.3587  -1.3506  -1.3393  -1.3282
    -1.3270  -1.3148  -1.3099  -1.3076  -1.3046  -1.3017  -1.2958  -1.2937
    -1.2219  -1.2124  -1.2037  -1.1061  -1.0970  -1.0651  -1.0148  -0.9915
    -0.9792  -0.9631  -0.9551  -0.9481  -0.9169  -0.9117  -0.9070  -0.9031
    -0.8980  -0.8895  -0.8752  -0.8746  -0.8686  -0.8587  -0.8554  -0.8496
    -0.8449  -0.8409  -0.8386  -0.8326  -0.8209  -0.8121  -0.7894  -0.7862
    -0.7613  -0.7574  -0.7552  -0.7498  -0.7429  -0.7420  -0.7309  -0.7142
    -0.7079  -0.6945  -0.6856  -0.6707  -0.6701  -0.6651  -0.6583  -0.6508
    -0.6382  -0.6317  -0.6254  -0.6214  -0.5962  -0.5944  -0.5901  -0.5880
    -0.5761  -0.5735  -0.5570  -0.5469  -0.5460  -0.5311  -0.5252  -0.5018
    -0.4980  -0.4923  -0.4884  -0.4492  -0.4400  -0.4146  -0.4063  -0.4031
    -0.3984  -0.3903  -0.3819  -0.3697  -0.3613  -0.3533  -0.3483  -0.3443
    -0.3398  -0.3354  -0.3216  -0.3192  -0.2956  -0.2841  -0.2708  -0.2641
    -0.2557  -0.2455  -0.2288  -0.2140  -0.2058  -0.1960  -0.1883  -0.1835
    -0.1671  -0.1651  -0.1577  -0.1467  -0.1427  -0.1331  -0.1251  -0.1215
    -0.1181  -0.1070  -0.0987  -0.0832  -0.0770  -0.0726  -0.0568  -0.0436
    -0.0307  -0.0287  -0.0180  -0.0065  -0.0039   0.0003   0.0033   0.0054
     0.0080   0.0093   0.0116   0.0130   0.0209   0.0300   0.0336   0.0393
     0.0431   0.0479   0.0598   0.0622   0.0730   0.0846   0.0849   0.0941
     0.1089   0.1162   0.1208   0.1295   0.1394   0.1421   0.1486   0.1514
     0.1601   0.1749   0.1793   0.1914   0.1944   0.2191   0.2208   0.2315
     0.2478   0.2595   0.2666   0.2684   0.2725   0.2817   0.2869   0.2902
     0.2942   0.2962   0.3045   0.3065   0.3154   0.3174   0.3249   0.3281
     0.3318   0.3348   0.3468   0.3502   0.3514   0.3601   0.3637   0.3668
     0.3686   0.3715   0.3754   0.3781   0.3793   0.3849   0.3866   0.3931
     0.3968   0.4116   0.4235   0.4262   0.4310   0.4340   0.4399   0.4579
     0.4685   0.4731   0.4799   0.4906   0.4963   0.5002   0.5063   0.5111
     0.5152   0.5238   0.5259   0.5295   0.5331   0.5369   0.5414   0.5479
     0.5554   0.5572   0.5625   0.5883   0.5957   0.6060   0.6179   0.6316
     0.6497   0.6513   0.6541   0.6568   0.6639   0.6654   0.6678   0.6743
     0.6805   0.6840   0.6892   0.6914   0.6991   0.7033   0.7047   0.7078
     0.7111   0.7134   0.7202   0.7318   0.7343   0.7435   0.7610   0.7654
     0.7776   0.7790   0.7907   0.7937   0.7975   0.8180   0.8204   0.8275
     0.8314   0.8336   0.8403   0.8448   0.8480   0.8488   0.8535   0.8601
     0.8625   0.8694   0.8754   0.8782   0.8913   0.8942   0.9042   0.9092
     0.9181   0.9311   0.9351   0.9420   0.9451   0.9521   0.9555   0.9647
     0.9687   0.9738   0.9799   0.9809   0.9880   0.9933   0.9962   0.9978
     1.0077   1.0088   1.0133   1.0211   1.0260   1.0288   1.0303   1.0393
     1.0415   1.0436   1.0447   1.0486   1.0528   1.0565   1.0627   1.0650
     1.0682   1.0738   1.0767   1.0802   1.0841   1.0873   1.0886   1.0922
     1.0954   1.1051   1.1137   1.1257   1.1303   1.1335   1.1443   1.1527
     1.1616   1.1719   1.1758   1.1841   1.1888   1.1939   1.2031   1.2057
     1.2104   1.2119   1.2194   1.2295   1.2322   1.2342   1.2352   1.2380
     1.2414   1.2503   1.2533   1.2635   1.2652   1.2698   1.2760   1.2788
     1.2833   1.2935   1.3015   1.3085   1.3115   1.3135   1.3235   1.3282
     1.3341   1.3363   1.3425   1.3449   1.3548   1.3573   1.3666   1.3719
     1.3780   1.3857   1.3880   1.3931   1.4013   1.4094   1.4163   1.4257
     1.4320   1.4374   1.4423   1.4480   1.4520   1.4581   1.4624   1.4651
     1.4671   1.4686   1.4706   1.4713   1.4750   1.4796   1.4823   1.4901
     1.4931   1.4976   1.5038   1.5083   1.5148   1.5276   1.5303   1.5382
     1.5392   1.5453   1.5471   1.5502   1.5541   1.5569   1.5600   1.5632
     1.5650   1.5671   1.5705   1.5728   1.5744   1.5762   1.5815   1.5829
     1.5859   1.5884   1.5907   1.5970   1.6035   1.6044   1.6121   1.6146
     1.6299   1.6360   1.6401   1.6459   1.6486   1.6559   1.6598   1.6662
     1.6681   1.6751   1.6771   1.6796   1.6853   1.6875   1.6907   1.6947
     1.7008   1.7029   1.7127   1.7170   1.7192   1.7224   1.7255   1.7290
     1.7323   1.7405   1.7426   1.7496   1.7524   1.7563   1.7596   1.7607
     1.7626   1.7653   1.7684   1.7728   1.7759   1.7773   1.7835   1.7879
     1.7964   1.7983   1.8034   1.8054   1.8082   1.8111   1.8147   1.8182
     1.8202   1.8207   1.8226   1.8285   1.8316   1.8370   1.8393   1.8578
     1.8583   1.8623   1.8676   1.8695   1.8779   1.8788   1.8917   1.8929
     1.9043   1.9191   1.9295   1.9337   1.9340   1.9442   1.9471   1.9707
     1.9877   1.9944   2.0233   2.0486   2.0659   2.1009   2.1168   2.1316
     2.1356   2.1405   2.1621   2.1690   2.1772   2.2061   2.2172   2.2326
     2.3835   2.4383   2.4814   2.5161   2.5365   2.6543   2.6696   2.8595
     2.9221   2.9700   3.0292   3.1369   3.1545   3.1577   3.1759   3.2342
     3.2661   3.3159   3.3226   3.4409   3.4966   3.5167   3.6660   3.9073
     3.9610   3.9816   4.0130   4.0299   4.1551   4.2029   4.2534   4.2866
     4.3669   4.4203   4.4370   4.4784   4.5440   4.5543   4.5989   4.7283
     4.7722   4.7866   4.8016   4.9400   4.9879   5.0620   5.0809   5.1303
     5.1618   5.1717   5.2157   5.2661   5.3395   5.3570   5.4645   5.5482
     5.6211   5.7202   5.7705   5.7959   5.8160   5.8227   5.8299   5.9286
     6.0982   6.1143   6.1725   6.2381   6.3151   6.3383   6.4025   6.4305
     6.5381   6.9092   6.9489   6.9887   7.0462   7.1236   7.1389   7.2134
     7.2559   7.3674   7.4022   7.4401   7.4463   7.4783   7.5096   7.5476
     7.5812   7.6115   7.6513   7.6823   7.7080   7.7170   7.7299   7.7453
     7.7722   7.7849   7.8116   7.9125   7.9942   8.0261   8.0818   8.2029
     8.2684   8.3330   8.3366   8.4100   8.5259   8.5464   8.5856   8.6379
     8.7075   8.7287   8.8038   8.8308   8.8391   8.9477   8.9809   9.0087
     9.0468   9.0562   9.0668   9.0813   9.1250   9.1371   9.1750   9.2193
     9.3002   9.3410   9.3826   9.3847   9.4462   9.4661   9.4811   9.5408
     9.5666   9.5820   9.6167   9.6724   9.6763   9.7069   9.7276   9.7294
     9.7379   9.7943   9.8663   9.9389  10.1043  10.1272

          k =-0.5000 0.0000 0.0000 (256496 PWs)   bands (ev):

   -26.2526 -16.5390 -15.5044 -15.5020 -15.1390 -15.1355 -15.1327 -15.1266
   -14.0407 -14.0381 -14.0357 -14.0330 -12.2690 -12.2628 -12.2613 -12.2506
   -11.6898 -11.6812 -11.6692 -11.3607 -11.3564 -11.3520 -11.3430 -10.7497
   -10.7013 -10.6773 -10.2836 -10.2633  -9.7312  -9.7048  -9.5384  -9.3005
    -9.2952  -8.4683  -8.4643  -8.4603  -8.4478  -6.9684  -6.9626  -6.9006
    -6.8972  -6.8950  -6.8918  -5.4470  -5.4444  -5.0761  -4.9531  -4.7315
    -4.7130  -4.7107  -4.6457  -4.4552  -4.4463  -4.3344  -4.3109  -4.3073
    -4.2954  -4.2895  -4.2776  -4.2207  -4.2174  -4.2147  -4.2120  -4.0480
    -4.0134  -3.9337  -3.9256  -3.9125  -3.9062  -3.6558  -3.6409  -3.5868
    -3.5621  -3.5153  -3.4935  -3.2001  -3.1897  -3.1813  -3.0914  -3.0687
    -3.0682  -3.0262  -2.9396  -2.9232  -2.9212  -2.9116  -2.9085  -2.9022
    -2.8979  -2.8351  -2.8164  -2.4230  -2.3874  -2.3706  -2.3309  -2.3189
    -2.3157  -2.3090  -2.2942  -2.2585  -2.1765  -2.0869  -2.0473  -2.0317
    -2.0203  -1.9461  -1.9346  -1.9296  -1.7486  -1.5513  -1.5288  -1.5268
    -1.5188  -1.5159  -1.4978  -1.4465  -1.4034  -1.4003  -1.3756  -1.3491
    -1.2988  -1.2866  -1.2845  -1.2710  -1.2475  -1.2386  -1.2346  -1.2186
    -1.2067  -1.1919  -1.1227  -1.1200  -1.1124  -1.0767  -1.0738  -1.0638
    -1.0596  -1.0490  -1.0394  -1.0334  -1.0122  -1.0089  -1.0026  -0.9966
    -0.9954  -0.9911  -0.9865  -0.9810  -0.9790  -0.9746  -0.9664  -0.9632
    -0.9423  -0.9287  -0.9263  -0.9249  -0.9192  -0.9135  -0.9065  -0.8935
    -0.8676  -0.8451  -0.8361  -0.8266  -0.8205  -0.8169  -0.8134  -0.8094
    -0.7913  -0.7848  -0.7832  -0.7755  -0.7731  -0.7670  -0.7498  -0.7449
    -0.7385  -0.7300  -0.7255  -0.7188  -0.7127  -0.6939  -0.6813  -0.6427
    -0.6384  -0.6243  -0.6187  -0.6109  -0.6097  -0.6061  -0.5914  -0.5897
    -0.5817  -0.5792  -0.5773  -0.5647  -0.5623  -0.5581  -0.5581  -0.5536
    -0.5509  -0.5481  -0.5432  -0.5191  -0.5051  -0.4992  -0.4749  -0.4730
    -0.4399  -0.4311  -0.4027  -0.3752  -0.3505  -0.3461  -0.3421  -0.3385
    -0.3251  -0.3162  -0.3053  -0.2974  -0.2912  -0.2812  -0.2778  -0.2731
    -0.2649  -0.2578  -0.2556  -0.2421  -0.2402  -0.2341  -0.2311  -0.2245
    -0.2231  -0.2143  -0.1884  -0.1582  -0.1421  -0.1353  -0.1310  -0.1214
    -0.1153  -0.0852  -0.0836  -0.0743  -0.0712  -0.0498  -0.0459  -0.0362
    -0.0346  -0.0295  -0.0279  -0.0155  -0.0085  -0.0002   0.0048   0.0056
     0.0082   0.0093   0.0218   0.0317   0.0562   0.0673   0.0687   0.0726
     0.0763   0.0784   0.0817   0.0952   0.0967   0.1178   0.1209   0.1224
     0.1226   0.1327   0.1360   0.1489   0.1549   0.1657   0.1732   0.1796
     0.1950   0.2115   0.2229   0.2329   0.2371   0.2443   0.2466   0.2503
     0.2525   0.2586   0.2754   0.2835   0.2859   0.3119   0.3185   0.3257
     0.3356   0.3393   0.3446   0.3489   0.3516   0.3537   0.3566   0.3602
     0.3638   0.3662   0.3751   0.3867   0.3943   0.4007   0.4113   0.4161
     0.4197   0.4238   0.4283   0.4295   0.4322   0.4390   0.4425   0.4462
     0.4476   0.4569   0.4587   0.4662   0.4727   0.4777   0.4785   0.4826
     0.4849   0.4862   0.4892   0.4955   0.4968   0.4973   0.4990   0.5000
     0.5023   0.5079   0.5154   0.5252   0.5261   0.5284   0.5315   0.5341
     0.5442   0.5500   0.5517   0.5699   0.5758   0.5969   0.6311   0.6362
     0.6477   0.6517   0.6643   0.6736   0.6785   0.6829   0.6874   0.6947
     0.6978   0.7009   0.7038   0.7084   0.7116   0.7166   0.7187   0.7228
     0.7234   0.7239   0.7265   0.7282   0.7310   0.7326   0.7335   0.7406
     0.7459   0.7460   0.7498   0.7555   0.7581   0.7666   0.7704   0.7803
     0.7850   0.7905   0.8041   0.8156   0.8318   0.8437   0.8577   0.8601
     0.8660   0.8706   0.8753   0.8788   0.8840   0.8945   0.8976   0.9007
     0.9026   0.9056   0.9079   0.9080   0.9095   0.9121   0.9122   0.9133
     0.9161   0.9266   0.9274   0.9418   0.9447   0.9547   0.9581   0.9626
     0.9701   0.9746   0.9774   0.9787   0.9833   0.9915   0.9954   1.0017
     1.0031   1.0061   1.0092   1.0111   1.0140   1.0228   1.0292   1.0367
     1.0372   1.0386   1.0442   1.0505   1.0600   1.0616   1.0687   1.0754
     1.0793   1.0841   1.0864   1.0884   1.0941   1.0989   1.1111   1.1344
     1.1387   1.1415   1.1453   1.1616   1.1676   1.1744   1.1868   1.1934
     1.1975   1.2048   1.2149   1.2202   1.2204   1.2211   1.2214   1.2220
     1.2292   1.2312   1.2365   1.2425   1.2476   1.2542   1.2570   1.2590
     1.2628   1.2655   1.2678   1.2766   1.2774   1.2835   1.2905   1.2931
     1.2998   1.3054   1.3150   1.3333   1.3419   1.3481   1.3659   1.3694
     1.3864   1.3911   1.3932   1.3955   1.3989   1.4039   1.4089   1.4223
     1.4299   1.4328   1.4371   1.4428   1.4483   1.4540   1.4554   1.4635
     1.4711   1.4733   1.4823   1.4863   1.4892   1.4957   1.4989   1.4995
     1.5023   1.5035   1.5058   1.5095   1.5118   1.5138   1.5156   1.5189
     1.5230   1.5264   1.5329   1.5449   1.5549   1.5560   1.5580   1.5616
     1.5637   1.5693   1.5800   1.5833   1.5878   1.5938   1.5977   1.5986
     1.6110   1.6135   1.6164   1.6184   1.6213   1.6237   1.6249   1.6271
     1.6306   1.6357   1.6437   1.6460   1.6483   1.6576   1.6621   1.6717
     1.6741   1.6812   1.6840   1.6863   1.6875   1.6928   1.6951   1.6987
     1.6989   1.7016   1.7019   1.7024   1.7035   1.7067   1.7081   1.7101
     1.7119   1.7123   1.7145   1.7203   1.7233   1.7248   1.7259   1.7280
     1.7340   1.7404   1.7425   1.7460   1.7570   1.7632   1.7712   1.7744
     1.7836   1.7864   1.7895   1.7931   1.7959   1.8008   1.8046   1.8061
     1.8083   1.8191   1.8208   1.8246   1.8259   1.8311   1.8369   1.8401
     1.8425   1.8440   1.8472   1.8487   1.8542   1.8564   1.8585   1.8609
     1.8682   1.8832   1.8897   1.8936   1.8959   1.8961   1.8981   1.9118
     1.9168   1.9185   1.9488   1.9539   1.9776   1.9809   1.9865   1.9885
     1.9937   2.0006   2.0473   2.3501   2.3958   2.4415   2.4929   2.5493
     2.5728   2.5883   2.6160   2.6312   2.6503   2.6789   2.7403   2.8910
     2.9116   2.9787   2.9988   3.0119   3.1351   3.2378   3.2726   3.4370
     3.4583   3.5469   3.5787   3.5831   3.6211   3.8451   3.9416   4.1153
     4.1244   4.1353   4.2175   4.2661   4.3195   4.3731   4.3903   4.4291
     4.4751   4.4943   4.5126   4.6246   4.7941   4.8309   4.8837   4.9393
     4.9754   5.0804   5.0996   5.1147   5.1756   5.2089   5.2338   5.2457
     5.3156   5.3751   5.3906   5.3967   5.4041   5.4109   5.4263   5.4417
     5.5008   5.5380   5.5498   5.5753   5.5807   5.6909   5.7786   5.8786
     5.9379   5.9695   6.0086   6.0710   6.1208   6.2562   6.2767   6.3318
     6.3440   6.3709   6.3889   6.3967   6.4190   6.5309   6.7250   6.7390
     6.7617   6.7815   6.8565   6.8701   6.8795   6.9390   7.2318   7.4359
     7.4558   7.4843   7.5278   7.5655   7.7169   7.9024   7.9411   7.9526
     7.9558   7.9586   7.9941   8.0455   8.0914   8.1041   8.1553   8.1780
     8.1888   8.2354   8.2517   8.2616   8.3489   8.3803   8.3851   8.4068
     8.4168   8.4575   8.5088   8.5933   8.5970   8.5992   8.6348   8.7275
     8.7288   8.8495   9.1552   9.1766   9.1975   9.2167   9.2365   9.2506
     9.2532   9.2568   9.3178   9.4054   9.4276   9.4527   9.5127   9.5278
     9.6234   9.7039   9.7184   9.7945   9.8224   9.8494   9.8583   9.8699
     9.8919   9.9099   9.9460   9.9917   9.9942   9.9997

          k =-0.5000-0.2165 0.0000 (256328 PWs)   bands (ev):

   -26.2526 -16.5390 -15.4185 -15.4159 -15.4068 -15.4007 -14.6803 -14.6748
   -14.6722 -14.6699 -13.2326 -13.2282 -13.2268 -13.2245 -11.6855 -11.6041
   -11.6027 -11.6016 -11.5876 -11.1899 -11.1715 -11.1609 -11.1464 -10.9919
   -10.9804 -10.9740 -10.9721 -10.6633  -9.5925  -9.2870  -9.2828  -9.2698
    -9.2411  -8.3203  -8.3118  -8.3077  -8.3053  -7.5630  -7.5607  -7.5377
    -7.5299  -5.4804  -5.4748  -5.4712  -5.4700  -5.0381  -4.8598  -4.8510
    -4.8475  -4.8425  -4.8316  -4.8279  -4.8185  -4.6280  -4.6213  -4.6159
    -4.5947  -4.5491  -4.4861  -3.9704  -3.9478  -3.9307  -3.8997  -3.8463
    -3.8421  -3.7744  -3.7592  -3.7551  -3.7450  -3.7378  -3.7338  -3.5216
    -3.5002  -3.4958  -3.3024  -3.2157  -3.2135  -3.2072  -3.2045  -3.1972
    -3.1929  -3.1840  -3.1793  -3.1022  -3.0834  -3.0083  -2.9817  -2.8260
    -2.8119  -2.6828  -2.6785  -2.6406  -2.5820  -2.2391  -2.2259  -2.2257
    -2.2109  -2.1899  -2.1578  -2.1550  -1.9868  -1.8820  -1.8811  -1.8728
    -1.8692  -1.7879  -1.7495  -1.7273  -1.7107  -1.6865  -1.6607  -1.6323
    -1.6254  -1.5798  -1.5790  -1.5718  -1.5461  -1.5153  -1.4405  -1.4374
    -1.4333  -1.4209  -1.3418  -1.3251  -1.2841  -1.2572  -1.1405  -1.1366
    -1.1333  -1.1290  -1.1248  -1.1187  -1.1076  -1.0903  -1.0794  -1.0709
    -1.0690  -1.0651  -1.0614  -1.0609  -1.0504  -1.0442  -1.0293  -1.0251
    -1.0185  -1.0115  -1.0107  -1.0007  -0.9966  -0.9948  -0.9934  -0.9907
    -0.9869  -0.9403  -0.9383  -0.9338  -0.9236  -0.8776  -0.8719  -0.8651
    -0.8569  -0.8366  -0.8242  -0.8215  -0.8181  -0.8107  -0.8063  -0.7878
    -0.7802  -0.7717  -0.7584  -0.7539  -0.7500  -0.7460  -0.7452  -0.7423
    -0.7401  -0.7250  -0.7179  -0.7129  -0.7117  -0.6957  -0.6894  -0.6853
    -0.6829  -0.6779  -0.6729  -0.6701  -0.6681  -0.6662  -0.6624  -0.6536
    -0.6414  -0.5900  -0.5841  -0.5782  -0.5645  -0.5378  -0.5328  -0.5116
    -0.4950  -0.4908  -0.4816  -0.4770  -0.4567  -0.4290  -0.4287  -0.4167
    -0.4138  -0.4021  -0.4011  -0.3967  -0.3933  -0.3909  -0.3845  -0.3593
    -0.3567  -0.3439  -0.3348  -0.3321  -0.3297  -0.3226  -0.3177  -0.3083
    -0.3025  -0.2960  -0.2917  -0.2878  -0.2650  -0.2408  -0.2109  -0.1995
    -0.1961  -0.1939  -0.1877  -0.1808  -0.1603  -0.1440  -0.1374  -0.1279
    -0.1076  -0.1014  -0.0854  -0.0824  -0.0740  -0.0730  -0.0600  -0.0531
    -0.0472  -0.0397  -0.0311  -0.0261  -0.0238  -0.0217  -0.0172  -0.0024
     0.0083   0.0160   0.0209   0.0367   0.0622   0.0808   0.1017   0.1061
     0.1073   0.1096   0.1114   0.1183   0.1195   0.1295   0.1307   0.1349
     0.1580   0.1741   0.2020   0.2063   0.2119   0.2145   0.2167   0.2213
     0.2277   0.2298   0.2332   0.2361   0.2432   0.2601   0.2621   0.2650
     0.2667   0.2684   0.2703   0.2713   0.2764   0.2778   0.2850   0.2921
     0.3002   0.3093   0.3313   0.3402   0.3432   0.3495   0.3664   0.3707
     0.3764   0.3857   0.3971   0.4043   0.4191   0.4227   0.4251   0.4330
     0.4352   0.4397   0.4418   0.4503   0.4506   0.4545   0.4575   0.4625
     0.4635   0.4653   0.4674   0.4735   0.4797   0.4828   0.4840   0.4860
     0.4874   0.4885   0.4919   0.4952   0.4955   0.5033   0.5086   0.5133
     0.5216   0.5270   0.5281   0.5287   0.5301   0.5318   0.5379   0.5509
     0.5640   0.5777   0.5813   0.5912   0.5936   0.6084   0.6100   0.6118
     0.6307   0.6377   0.6648   0.6731   0.6806   0.6879   0.6892   0.6921
     0.6970   0.7038   0.7116   0.7154   0.7175   0.7193   0.7216   0.7244
     0.7275   0.7299   0.7358   0.7405   0.7409   0.7439   0.7448   0.7494
     0.7519   0.7551   0.7584   0.7608   0.7642   0.7675   0.7699   0.7860
[...]
     atom   88 type  1   force =    -0.00774869   -0.00623302   -0.00062930
     atom   89 type  1   force =     0.02823622   -0.00037159    0.01221361
     atom   90 type  1   force =     0.00023395   -0.00265039   -0.00116705
     atom   91 type  1   force =    -0.02244725    0.00090719    0.03475719
     atom   92 type  1   force =    -0.00676071    0.00868211   -0.00073852
     atom   93 type  1   force =     0.00154273   -0.00536662   -0.00063947
     atom   94 type  1   force =     0.00050080    0.00179358    0.00010911
     atom   95 type  1   force =    -0.00360100    0.00207690   -0.00090765
     atom   96 type  1   force =     0.00011636    0.00095488   -0.00001273
     atom   97 type  1   force =     0.00026615    0.00019973    0.00037387
     atom   98 type  1   force =     0.00010605   -0.00019717    0.00020912
     atom   99 type  1   force =     0.00030277    0.00103183    0.00027068
     atom  100 type  1   force =     0.00057068    0.00010607    0.00023144
     atom  101 type  2   force =     0.00025852    0.00315477   -0.00066786
     atom  102 type  2   force =     0.00175002   -0.00130589   -0.00166855
     atom  103 type  2   force =    -0.00109282   -0.00076963   -0.00124222
     atom  104 type  2   force =    -0.00238060    0.00002492    0.00077994
     atom  105 type  2   force =     0.00089159    0.00028747   -0.00134106
     atom  106 type  2   force =     0.00094734   -0.00003329    0.00082339
     atom  107 type  2   force =    -0.00050319   -0.00106186   -0.00106659
     atom  108 type  2   force =     0.00207539   -0.00135159    0.00410072
     atom  109 type  2   force =     0.00023433    0.00279845   -0.00141374
     atom  110 type  2   force =    -0.00246173   -0.00054077   -0.00035543
     atom  111 type  2   force =     0.00019791   -0.00294868    0.00019280
     atom  112 type  2   force =     0.00101184    0.00054970    0.00377484
     atom  113 type  2   force =    -0.00197960   -0.00012477    0.00601108
     atom  114 type  2   force =     0.00421076    0.00094224    0.00853106
     atom  115 type  2   force =     0.00430427    0.00082669    0.00549920
     atom  116 type  2   force =    -0.00581443   -0.00042194   -0.00147218
     atom  117 type  2   force =    -0.00426050    0.00022524   -0.00020293
     atom  118 type  2   force =     0.00825956   -0.00154810   -0.00327886
     atom  119 type  2   force =     0.00145986    0.00056815    0.00625132
     atom  120 type  2   force =    -0.00138566   -0.00210050   -0.00259128
     atom  121 type  3   force =    -0.01988377   -0.00053702   -0.00867085
     atom  122 type  3   force =     0.01190525    0.00495205   -0.03022376
     atom  123 type  2   force =     0.00121363   -0.00162538    0.00424549
     atom  124 type  2   force =     0.00009137    0.00122542    0.00252205
     atom  125 type  2   force =    -0.00083647    0.00225269    0.00739902
     atom  126 type  2   force =    -0.00126712   -0.00124361    0.00603103
     atom  127 type  2   force =    -0.00224792   -0.00343706    0.00486564
     atom  128 type  2   force =     0.00243865    0.00161542   -0.00116129
     atom  129 type  2   force =     0.00456598    0.00139588    0.00438274
     atom  130 type  2   force =    -0.00137486   -0.00126019    0.00073337
     atom  131 type  2   force =    -0.00296322   -0.00372379   -0.00152824
     atom  132 type  2   force =     0.00052855    0.00040481    0.00421177
     atom  133 type  2   force =     0.00223198   -0.00155110   -0.00881062
     atom  134 type  2   force =     0.00205625   -0.00158502    0.00185405
     atom  135 type  2   force =     0.00036610   -0.00266108    0.00175285
     atom  136 type  2   force =    -0.00175689    0.00186166    0.00229597
     atom  137 type  2   force =     0.00120202    0.00128942    0.00748967
     atom  138 type  2   force =    -0.00028830   -0.00157752    0.00046135
     atom  139 type  2   force =     0.00061989   -0.00071843   -0.00035343
     atom  140 type  2   force =    -0.00268527    0.00052074   -0.00036681
     atom  141 type  2   force =     0.00050584   -0.00167248   -0.00080063
     atom  142 type  2   force =     0.00228494   -0.00056835   -0.00038124
     atom  143 type  2   force =    -0.00021536    0.00190861   -0.00077877
     atom  144 type  2   force =    -0.00067846   -0.00033075    0.00006925
     atom  145 type  2   force =    -0.00035370   -0.00126653   -0.00124716
     atom  146 type  2   force =    -0.00086940    0.00035679   -0.00002354
     atom  147 type  2   force =     0.00089649   -0.00042609   -0.00110616
     atom  148 type  2   force =     0.00059021   -0.00007666   -0.00044691
     atom  149 type  2   force =    -0.00084130    0.00057068    0.00022385
     atom  150 type  2   force =     0.00118073   -0.00003522   -0.00053240

     Total force =     0.080106     Total SCF correction =     0.000552

     number of scf cycles    =  10
     number of bfgs steps    =   9

     energy   old            =  -12762.4094420328 Ry
     energy   new            =  -12762.4152512534 Ry

     CASE: energy  _new < energy  _old

     new trust radius        =       0.0931187931 bohr
     new conv_thr            =       0.0000000100 Ry


ATOMIC_POSITIONS (angstrom)
Cu       0.000537822  -0.004786169   7.354262117
Cu       1.845112900   1.693197603   7.346393607
Cu       3.688328930  -0.010983087   7.348523694
Cu       5.533220364   1.690668974   7.344190279
Cu       0.000794338   3.397173155   7.342965850
Cu       1.847180505   5.108228759   7.349254784
Cu       3.689607220   3.402418497   7.350363470
Cu       5.534010374   5.110276972   7.353718459
Cu       0.001339346   6.814994645   7.353686816
Cu       1.847446968   8.521773903   7.349234308
Cu       3.693067614   6.814942706   7.354305977
Cu       5.533722141   8.519794908   7.353890824
Cu       0.000655118  10.233421173   7.342309637
Cu       1.845043353  11.937520008   7.346651832
Cu       3.689718898  10.227933196   7.351358954
Cu       5.533336537  11.939804974   7.344838107
Cu       0.000801167  13.633774285   7.355997427
Cu       1.842034426  15.333454672   7.358802840
Cu       3.688096023  13.641014647   7.348538711
Cu       5.535756401  15.333897287   7.353796819
Cu       0.002070219   1.689590330   9.179012312
Cu       1.843731179  -0.007454929   9.186482441
Cu       3.689419909   1.680377044   9.167192231
Cu       5.535113551  -0.009904795   9.184006853
Cu       0.008406117   5.088173211   9.156047359
Cu       1.847229493   3.387598259   9.167185273
Cu       3.691852349   5.102207456   9.176719610
Cu       5.536792014   3.376918562   9.153778176
Cu       0.008548751   8.543292269   9.154923261
Cu       1.871440438   6.815401072   9.162303095
Cu       3.691711327   8.527462780   9.177963129
Cu       5.542734116   6.815271085   9.185489407
Cu       0.002650090  11.937670265   9.182512331
Cu       1.846481461  10.242844338   9.166661581
Cu       3.689119073  11.952372871   9.165976387
Cu       5.537545685  10.253673554   9.153468108
Cu       0.001216424  15.332995382   9.188495377
Cu       1.843201039  13.633712408   9.191546079
Cu       3.688244433  15.332725246   9.187861007
Cu       5.535839306  13.637624968   9.186267248
Cu       0.002234570  -0.016383030  11.025313524
Cu       1.846481602   1.681067196  11.017709600
Cu       3.691224087  -0.012092584  11.022832307
Cu       5.542063286   1.678694481  11.013005177
Cu       0.012473672   3.372102906  11.000854775
Cu       1.861630107   5.072651087  10.990303953
Cu       3.694544842   3.345549621  10.971882992
Cu       5.553648992   5.051353390  10.951169500
Cu       0.100172261   6.815446690  10.934802313
Cu       1.857213199   8.557678533  10.989926731
Cu       3.722587774   6.812910220  11.008071034
Cu       5.557085943   8.578758133  10.949919144
Cu       0.012943335  10.253687075  11.007480378
Cu       1.843965387  11.942661836  11.025615379
Cu       3.695058734  10.295830298  10.957219500
Cu       5.545479210  11.947220750  11.018034149
Cu       0.003474119  13.639803129  11.029594918
Cu       1.847424052  15.333752446  11.033138722
Cu       3.690611499  13.637621756  11.026618194
Cu       5.533632378  15.331798323  11.032930439
Cu       0.008507549   1.669181730  12.845361105
Cu       1.852431428  -0.010783378  12.873675239
Cu       3.701484797   1.671311922  12.847728356
Cu       5.538235268  -0.011988727  12.869927560
Cu       0.056714484   5.047409969  12.824479774
Cu       1.856151301   3.366303088  12.862641179
Cu       3.706066998   5.014941881  12.755748052
Cu       5.553952154   3.365671477  12.830076866
Cu       0.057294081   8.577469789  12.833644903
Cu       1.904442137   6.811600732  12.783788708
Cu       3.703225121   8.639614603  12.716757146
Cu       5.648458356   6.813349142  12.648929620
Cu       0.011432607  11.953681093  12.860508797
Cu       1.849704983  10.263729649  12.871535671
Cu       3.703848114  11.949153353  12.848363732
Cu       5.565529745  10.256558071  12.838269415
Cu       0.003912124  15.331552871  12.878083791
Cu       1.851090148  13.638717897  12.872109009
Cu       3.694161593  15.334178507  12.874994512
Cu       5.541794963  13.634382163  12.873119316
Cu       0.007354625  -0.001870357  14.688395810
Cu       1.865999610   1.676582364  14.690829902
Cu       3.698428880  -0.008664859  14.700087911
Cu       5.530212747   1.680386911  14.682479336
Cu       0.026820731   3.326197775  14.671180120
Cu       1.940493754   5.071368501  14.715931434
Cu       3.692203250   3.337045952  14.663733682
Cu       5.511024007   4.951525044  14.672409698
Cu      -0.377153126   6.814761940  14.596234070
Cu       1.956258669   8.530215321  14.703408841
Cu       4.020337904   6.879336150  14.249242016
Cu       5.549091166   8.704418671  14.712944035
Cu       0.059160360  10.304604825  14.703458939
Cu       1.871907040  11.963511158  14.694411735
Cu       3.694495288  10.281067133  14.659450627
Cu       5.546292735  11.933337545  14.686523614
Cu       0.004212535  13.633329928  14.702377557
Cu       1.854007015  15.330263786  14.695411709
Cu       3.709553379  13.629648118  14.684379552
Cu       5.540344321  15.334471821  14.692571228
C        0.000857117   0.714954529  17.598487830
C        0.001565286   2.133101867  17.598250866
C        1.230273444   0.004557915  17.608737740
C        1.228907510   2.844281372  17.618299897
C        2.458830851   0.715719192  17.590485492
C        2.459264434   2.136202786  17.587956239
C        3.688916987   0.003993902  17.589460021
C        3.689579945   2.850783154  17.601693993
C        4.919835756   0.716413238  17.584905031
C        4.919256948   2.135855081  17.576770111
C        6.148295605   0.004752688  17.597937157
C        6.151996752   2.842739529  17.596641149
C        0.002935299   4.973848997  17.729815652
C        0.006494990   6.387516503  17.823527954
C        1.234214351   4.263668686  17.704039240
C        1.230295315   7.098429496  17.888142216
C        2.454852200   4.969862163  17.832957578
C        2.445028625   6.381738823  17.937647490
C        3.692128836   4.263279484  17.743891878
C        3.692111362   7.088052131  17.747066379
O        1.362201409   6.809074264  15.281800182
O        3.884064485   6.692957461  16.017615421
C        4.929683730   4.961796886  17.819358228
C        4.946551567   6.375429460  17.903577336
C        6.153510033   4.261199338  17.684285030
C        6.154724042   7.095656988  17.822541875
C        0.001201171   9.222474234  17.639219026
C        0.000385381  10.648402316  17.570521404
C        1.230331399   8.521141618  17.771450804
C        1.230206406  11.361213243  17.589703613
C        2.458026383   9.232815853  17.759697952
C        2.459714721  10.652407380  17.651729157
C        3.689511488   8.531280789  17.810450526
C        3.688750379  11.361513897  17.627858611
C        4.913979497   9.229290574  17.704303871
C        4.916406817  10.651019295  17.627813203
C        6.147912299   8.515263811  17.691741816
C        6.146577870  11.359759986  17.573758008
C       -0.000470322  13.494344645  17.570077067
C       -0.000394045  14.915317312  17.597246715
C        1.230841190  12.783029850  17.586606538
C        1.230313704  15.623990127  17.606820416
C        2.459443818  13.493216190  17.614801616
C        2.460138303  14.913061746  17.611847230
C        3.688663221  12.783089937  17.614632617
C        3.689009693  15.623431374  17.612974041
C        4.918472622  13.492940503  17.606958020
C        4.918314731  14.913345472  17.607463297
C        6.146133695  12.782195659  17.575085447
C        6.148544811  15.624549023  17.598546755



     Writing output data file gc.save
     Check: negative starting charge=   -0.001773
     NEW-OLD atomic charge density approx. for the potential
     Check: negative starting charge=   -0.001768

     negative rho (up, down):  1.787E-03 0.000E+00

     total cpu time spent up to now is    44982.8 secs

     Self-consistent Calculation

     iteration #  1     ecut=    80.00 Ry     beta=0.70
     Davidson diagonalization with overlap
     c_bands:  1 eigenvalues not converged
     c_bands:  2 eigenvalues not converged
     c_bands:  1 eigenvalues not converged
     c_bands:  3 eigenvalues not converged
     ethr =  1.00E-06,  avg # of iterations = 15.5

     negative rho (up, down):  3.276E-03 0.000E+00

     total cpu time spent up to now is    45664.1 secs

     total energy              =  -12762.41643574 Ry
     Harris-Foulkes estimate   =  -12762.43171047 Ry
     estimated scf accuracy    <       0.17223728 Ry

     iteration #  2     ecut=    80.00 Ry     beta=0.70
     Davidson diagonalization with overlap
     ethr =  1.32E-05,  avg # of iterations =  1.2

     negative rho (up, down):  4.267E-03 0.000E+00

     total cpu time spent up to now is    45846.1 secs

     total energy              =  -12762.41678232 Ry
     Harris-Foulkes estimate   =  -12762.42595340 Ry
     estimated scf accuracy    <       0.04572045 Ry

     iteration #  3     ecut=    80.00 Ry     beta=0.70
     Davidson diagonalization with overlap
     c_bands:  1 eigenvalues not converged
     ethr =  3.51E-06,  avg # of iterations =  8.8

     negative rho (up, down):  6.686E-03 0.000E+00

     total cpu time spent up to now is    46121.8 secs

     total energy              =  -12762.41945216 Ry
     Harris-Foulkes estimate   =  -12762.42331125 Ry
     estimated scf accuracy    <       0.04908425 Ry

     iteration #  4     ecut=    80.00 Ry     beta=0.70
     Davidson diagonalization with overlap
     ethr =  3.51E-06,  avg # of iterations =  6.3

     negative rho (up, down):  7.047E-03 0.000E+00

     total cpu time spent up to now is    46363.9 secs

     total energy              =  -12762.42121557 Ry
     Harris-Foulkes estimate   =  -12762.42147769 Ry
     estimated scf accuracy    <       0.00285278 Ry

     iteration #  5     ecut=    80.00 Ry     beta=0.70
     Davidson diagonalization with overlap
     ethr =  2.19E-07,  avg # of iterations =  3.3

     negative rho (up, down):  6.990E-03 0.000E+00

     total cpu time spent up to now is    46571.0 secs

     total energy              =  -12762.42126193 Ry
     Harris-Foulkes estimate   =  -12762.42138112 Ry
     estimated scf accuracy    <       0.00148894 Ry

     iteration #  6     ecut=    80.00 Ry     beta=0.70
     Davidson diagonalization with overlap
     ethr =  1.14E-07,  avg # of iterations =  1.3

     negative rho (up, down):  6.084E-03 0.000E+00

     total cpu time spent up to now is    46758.1 secs

     total energy              =  -12762.42125930 Ry
     Harris-Foulkes estimate   =  -12762.42131425 Ry
     estimated scf accuracy    <       0.00050222 Ry

     iteration #  7     ecut=    80.00 Ry     beta=0.70
     Davidson diagonalization with overlap
     ethr =  3.85E-08,  avg # of iterations =  4.5

     negative rho (up, down):  4.781E-03 0.000E+00

     total cpu time spent up to now is    46974.4 secs

     total energy              =  -12762.42124938 Ry
     Harris-Foulkes estimate   =  -12762.42128193 Ry
     estimated scf accuracy    <       0.00015059 Ry

     iteration #  8     ecut=    80.00 Ry     beta=0.70
     Davidson diagonalization with overlap
     c_bands:  1 eigenvalues not converged
     ethr =  1.15E-08,  avg # of iterations = 10.0

     negative rho (up, down):  3.393E-03 0.000E+00

     total cpu time spent up to now is    47259.6 secs

     total energy              =  -12762.42124035 Ry
     Harris-Foulkes estimate   =  -12762.42125744 Ry
     estimated scf accuracy    <       0.00003723 Ry

     iteration #  9     ecut=    80.00 Ry     beta=0.70
     Davidson diagonalization with overlap
     ethr =  2.85E-09,  avg # of iterations =  5.7

     negative rho (up, down):  2.788E-03 0.000E+00

     total cpu time spent up to now is    47493.8 secs

     total energy              =  -12762.42123904 Ry
     Harris-Foulkes estimate   =  -12762.42124293 Ry
     estimated scf accuracy    <       0.00000654 Ry

     iteration # 10     ecut=    80.00 Ry     beta=0.70
     Davidson diagonalization with overlap
     ethr =  5.02E-10,  avg # of iterations =  2.0

     negative rho (up, down):  2.456E-03 0.000E+00

     total cpu time spent up to now is    47690.9 secs

     total energy              =  -12762.42123867 Ry
     Harris-Foulkes estimate   =  -12762.42123984 Ry
     estimated scf accuracy    <       0.00000363 Ry

     iteration # 11     ecut=    80.00 Ry     beta=0.70
     Davidson diagonalization with overlap
     ethr =  2.78E-10,  avg # of iterations =  1.8

     negative rho (up, down):  2.044E-03 0.000E+00

     total cpu time spent up to now is    47878.4 secs

     total energy              =  -12762.42123883 Ry
     Harris-Foulkes estimate   =  -12762.42123895 Ry
     estimated scf accuracy    <       0.00000196 Ry

     iteration # 12     ecut=    80.00 Ry     beta=0.70
     Davidson diagonalization with overlap
     ethr =  1.50E-10,  avg # of iterations =  2.0

     negative rho (up, down):  2.019E-03 0.000E+00

     total cpu time spent up to now is    48068.9 secs

     total energy              =  -12762.42123899 Ry
     Harris-Foulkes estimate   =  -12762.42123892 Ry
     estimated scf accuracy    <       0.00000110 Ry

     iteration # 13     ecut=    80.00 Ry     beta=0.70
     Davidson diagonalization with overlap
     ethr =  8.43E-11,  avg # of iterations =  1.3

     negative rho (up, down):  1.821E-03 0.000E+00

     total cpu time spent up to now is    48250.2 secs

     total energy              =  -12762.42123934 Ry
     Harris-Foulkes estimate   =  -12762.42123905 Ry
     estimated scf accuracy    <       0.00000051 Ry

     iteration # 14     ecut=    80.00 Ry     beta=0.70
     Davidson diagonalization with overlap
     ethr =  3.94E-11,  avg # of iterations =  2.5

     negative rho (up, down):  1.806E-03 0.000E+00

     total cpu time spent up to now is    48449.7 secs

     total energy              =  -12762.42123940 Ry
     Harris-Foulkes estimate   =  -12762.42123939 Ry
     estimated scf accuracy    <       0.00000019 Ry

     iteration # 15     ecut=    80.00 Ry     beta=0.70
     Davidson diagonalization with overlap
     ethr =  1.47E-11,  avg # of iterations =  1.3

     negative rho (up, down):  1.803E-03 0.000E+00

     total cpu time spent up to now is    48630.4 secs

     total energy              =  -12762.42123942 Ry
     Harris-Foulkes estimate   =  -12762.42123941 Ry
     estimated scf accuracy    <       0.00000005 Ry

     iteration # 16     ecut=    80.00 Ry     beta=0.70
     Davidson diagonalization with overlap
     ethr =  3.53E-12,  avg # of iterations =  2.0

     negative rho (up, down):  1.808E-03 0.000E+00

     total cpu time spent up to now is    48828.3 secs

     total energy              =  -12762.42123946 Ry
     Harris-Foulkes estimate   =  -12762.42123943 Ry
     estimated scf accuracy    <       0.00000001 Ry

     iteration # 17     ecut=    80.00 Ry     beta=0.70
     Davidson diagonalization with overlap
