mpirun: INFO: switching to OpenMPI runtime version 1.10.2

     Program PWSCF v.5.4.0 starts on  6Sep2017 at 17:59: 0 

     This program is part of the open-source Quantum ESPRESSO suite
     for quantum simulation of materials; please cite
         "P. Giannozzi et al., J. Phys.:Condens. Matter 21 395502 (2009);
          URL http://www.quantum-espresso.org", 
     in publications or presentations arising from this work. More details at
     http://www.quantum-espresso.org/quote

     Parallel version (MPI & OpenMP), running on      28 processor cores
     Number of MPI processes:                28
     Threads/MPI process:                     1
     R & G space division:  proc/nbgrp/npool/nimage =      28
     Waiting for input...
     Reading input from standard input
Warning: card &IONS ignored
Warning: card / ignored

     Current dimensions of program PWSCF are:
     Max number of different atomic species (ntypx) = 10
     Max number of k-points (npk) =  40000
     Max angular momentum in pseudopotentials (lmaxx) =  3
     WARNING: atomic wfc #  2 for atom type 4 has zero norm
     WARNING: atomic wfc #  4 for atom type 4 has zero norm
     WARNING: atomic wfc #  5 for atom type 4 has zero norm

     -------------------------------------
     Parameters for Dispersion Correction:
     -------------------------------------
       atom      VdW radius       C_6     

        Cu         2.952        374.666
        C_h        2.744         60.710
        C          2.744         60.710
        O          2.536         24.284
        H          1.892          4.857

     Subspace diagonalization in iterative solution of the eigenvalue problem:
     one sub-group per band group will be used
     scalapack distributed-memory algorithm (size of sub-group:  3*  3 procs)

 
     Parallelization info
     --------------------
     sticks:   dense  smooth     PW     G-vecs:    dense   smooth      PW
     Min         408     408    108                73226    73226    9928
     Max         410     410    109                73231    73231    9931
     Sum       11433   11433   3039              2050409  2050409  278033
 


     bravais-lattice index     =            0
     lattice parameter (alat)  =      13.9425  a.u.
     unit-cell volume          =   21209.0878 (a.u.)^3
     number of atoms/cell      =          150
     number of atomic types    =            5
     number of electrons       =      1302.00
     number of Kohn-Sham states=          781
     kinetic-energy cutoff     =      80.0000  Ry
     charge density cutoff     =     320.0000  Ry
     convergence threshold     =      1.0E-08
     mixing beta               =       0.7000
     number of iterations used =            8  local-TF  mixing
     Exchange-correlation      =  SLA  PW   PBE  PBE ( 1  4  3  4 0 0)

     celldm(1)=  13.942539  celldm(2)=   0.000000  celldm(3)=   0.000000
     celldm(4)=   0.000000  celldm(5)=   0.000000  celldm(6)=   0.000000

     crystal axes: (cart. coord. in units of alat)
               a(1) = (   1.000000   0.000000   0.000000 )  
               a(2) = (   0.000000   2.309401   0.000000 )  
               a(3) = (   0.000000   0.000000   3.388418 )  

     reciprocal axes: (cart. coord. in units 2 pi/alat)
               b(1) = (  1.000000  0.000000  0.000000 )  
               b(2) = (  0.000000  0.433013  0.000000 )  
               b(3) = (  0.000000  0.000000  0.295123 )  


     PseudoPot. # 1 for Cu read from file:
     /home/549/hxw549/Short/pseudopotentials/Cu.pbe-n-van_ak.UPF
     MD5 check sum: 601f7c30f7467666bec936e0661ce3e1
     Pseudo is Ultrasoft + core correction, Zval = 11.0
     Generated by new atomic code, or converted to UPF format
     Using radial grid of  867 points,  6 beta functions with: 
                l(1) =   0
                l(2) =   0
                l(3) =   1
                l(4) =   1
                l(5) =   2
                l(6) =   2
     Q(r) pseudized with  8 coefficients,  rinner =    1.400   1.400   1.400
                                                       1.400   1.400

     PseudoPot. # 2 for C  read from file:
     /home/549/hxw549/Short/pseudopotentials/C.star1s-pbe-mt_gipaw.UPF
     MD5 check sum: ef0cb3dee31bd9e4ba2a832a2c716264
     Pseudo is Norm-conserving, Zval =  5.0
     Generated by new atomic code, or converted to UPF format
     Using radial grid of 1073 points,  1 beta functions with: 
                l(1) =   0

     PseudoPot. # 3 for C  read from file:
     /home/549/hxw549/Short/pseudopotentials/C.pbe-mt_gipaw.UPF
     MD5 check sum: 5ac2f21f2c440b14befe521540822c15
     Pseudo is Norm-conserving, Zval =  4.0
     Generated by new atomic code, or converted to UPF format
     Using radial grid of 1073 points,  1 beta functions with: 
                l(1) =   0

     PseudoPot. # 4 for O  read from file:
     /home/549/hxw549/Short/pseudopotentials/O.pbe-van_gipaw.UPF
     MD5 check sum: 5ce2a047509d4f331db576c963e74b29
     Pseudo is Ultrasoft, Zval =  6.0
     Generated by new atomic code, or converted to UPF format
     Using radial grid of 1095 points,  4 beta functions with: 
                l(1) =   0
                l(2) =   0
                l(3) =   1
                l(4) =   1
     Q(r) pseudized with 0 coefficients 


     PseudoPot. # 5 for H  read from file:
     /home/549/hxw549/Short/pseudopotentials/H.pbe-van_ak.UPF
     MD5 check sum: 077eb6d537518a38cb46c6de387227b7
     Pseudo is Ultrasoft, Zval =  1.0
     Generated by new atomic code, or converted to UPF format
     Using radial grid of  615 points,  1 beta functions with: 
                l(1) =   0
     Q(r) pseudized with  8 coefficients,  rinner =    0.800

     atomic species   valence    mass     pseudopotential
        Cu            11.00    63.54600     Cu( 1.00)
        C_h            5.00    12.01070     C ( 1.00)
        C              4.00    12.01070     C ( 1.00)
        O              6.00    15.99940     O ( 1.00)
        H              1.00     1.00783     H ( 1.00)

     No symmetry found



   Cartesian axes

     site n.     atom                  positions (alat units)
         1           Cu  tau(   1) = (   0.0000796  -0.0010194   0.9996711  )
         2           Cu  tau(   2) = (   0.2500655   0.2302525   0.9998070  )
         3           Cu  tau(   3) = (   0.5000782  -0.0009871   0.9997096  )
         4           Cu  tau(   4) = (   0.7500925   0.2302455   0.9998059  )
         5           Cu  tau(   5) = (   0.0000785   0.4612871   0.9997269  )
         6           Cu  tau(   6) = (   0.2500641   0.6920697   0.9993800  )
         7           Cu  tau(   7) = (   0.5000814   0.4612918   0.9996504  )
         8           Cu  tau(   8) = (   0.7500985   0.6920755   0.9993862  )
         9           Cu  tau(   9) = (   0.0000831   0.9226495   0.9992261  )
        10           Cu  tau(  10) = (   0.2501082   1.1530621   0.9994448  )
        11           Cu  tau(  11) = (   0.5000823   0.9225993   0.9992402  )
        12           Cu  tau(  12) = (   0.7500588   1.1530635   0.9994423  )
        13           Cu  tau(  13) = (   0.0000837   1.3835599   0.9997329  )
        14           Cu  tau(  14) = (   0.2500624   1.6144357   0.9998048  )
        15           Cu  tau(  15) = (   0.5000842   1.3836349   0.9997726  )
        16           Cu  tau(  16) = (   0.7501032   1.6144320   0.9998040  )
        17           Cu  tau(  17) = (   0.0000797   1.8456347   0.9996583  )
        18           Cu  tau(  18) = (   0.2500996   2.0770019   0.9995635  )
        19           Cu  tau(  19) = (   0.5000828   1.8455838   0.9996249  )
        20           Cu  tau(  20) = (   0.7500601   2.0770024   0.9995695  )
        21           Cu  tau(  21) = (   0.0000762   0.2300880   1.2478020  )
        22           Cu  tau(  22) = (   0.2500749  -0.0011159   1.2475204  )
        23           Cu  tau(  23) = (   0.5000774   0.2302010   1.2477392  )
        24           Cu  tau(  24) = (   0.7500776  -0.0011076   1.2475295  )
        25           Cu  tau(  25) = (   0.0000791   0.6922011   1.2480278  )
        26           Cu  tau(  26) = (   0.2500708   0.4613499   1.2479295  )
        27           Cu  tau(  27) = (   0.5000781   0.6921136   1.2479976  )
        28           Cu  tau(  28) = (   0.7500843   0.4613461   1.2479221  )
        29           Cu  tau(  29) = (   0.0000792   1.1528664   1.2482450  )
        30           Cu  tau(  30) = (   0.2500767   0.9225201   1.2481436  )
        31           Cu  tau(  31) = (   0.5000811   1.1528467   1.2482331  )
        32           Cu  tau(  32) = (   0.7500827   0.9225211   1.2481488  )
        33           Cu  tau(  33) = (   0.0000796   1.6146638   1.2478472  )
        34           Cu  tau(  34) = (   0.2500780   1.3835920   1.2481526  )
        35           Cu  tau(  35) = (   0.5000826   1.6147432   1.2478907  )
        36           Cu  tau(  36) = (   0.7500845   1.3835882   1.2481608  )
        37           Cu  tau(  37) = (   0.0000753   2.0771625   1.2473394  )
        38           Cu  tau(  38) = (   0.2500797   1.8459518   1.2474804  )
        39           Cu  tau(  39) = (   0.5000788   2.0770921   1.2473374  )
        40           Cu  tau(  40) = (   0.7500786   1.8459481   1.2474855  )
        41           Cu  tau(  41) = (   0.0000736  -0.0014157   1.4968003  )
        42           Cu  tau(  42) = (   0.2501054   0.2298053   1.4967075  )
        43           Cu  tau(  43) = (   0.5000753  -0.0013072   1.4965172  )
        44           Cu  tau(  44) = (   0.7500440   0.2298195   1.4967296  )
        45           Cu  tau(  45) = (   0.0000715   0.4610974   1.4969703  )
        46           Cu  tau(  46) = (   0.2500888   0.6919294   1.4977424  )
        47           Cu  tau(  47) = (   0.5000768   0.4610199   1.4971307  )
        48           Cu  tau(  48) = (   0.7500576   0.6919217   1.4977398  )
        49           Cu  tau(  49) = (   0.0000730   0.9224488   1.4981802  )
        50           Cu  tau(  50) = (   0.2499887   1.1529644   1.4978341  )
        51           Cu  tau(  51) = (   0.5000709   0.9223233   1.4980553  )
        52           Cu  tau(  52) = (   0.7501545   1.1529594   1.4978490  )
        53           Cu  tau(  53) = (   0.0000770   1.3839580   1.4973583  )
        54           Cu  tau(  54) = (   0.2500530   1.6153014   1.4967700  )
        55           Cu  tau(  55) = (   0.5000690   1.3839959   1.4971714  )
        56           Cu  tau(  56) = (   0.7500984   1.6153015   1.4967707  )
        57           Cu  tau(  57) = (   0.0000733   1.8464668   1.4964703  )
        58           Cu  tau(  58) = (   0.2500842   2.0772456   1.4966335  )
        59           Cu  tau(  59) = (   0.5000792   1.8465124   1.4966717  )
        60           Cu  tau(  60) = (   0.7500644   2.0772510   1.4966332  )
        61           Cu  tau(  61) = (   0.0000638   0.2297751   1.7451486  )
        62           Cu  tau(  62) = (   0.2501701  -0.0014366   1.7457736  )
        63           Cu  tau(  63) = (   0.5000844   0.2291468   1.7456708  )
        64           Cu  tau(  64) = (   0.7499824  -0.0014424   1.7457830  )
        65           Cu  tau(  65) = (   0.0000602   0.6911029   1.7467899  )
        66           Cu  tau(  66) = (   0.2504221   0.4603267   1.7458317  )
        67           Cu  tau(  67) = (   0.5000727   0.6914519   1.7472561  )
        68           Cu  tau(  68) = (   0.7497202   0.4603534   1.7458865  )
        69           Cu  tau(  69) = (   0.0000719   1.1535755   1.7474669  )
        70           Cu  tau(  70) = (   0.2500072   0.9224186   1.7476215  )
        71           Cu  tau(  71) = (   0.5000490   1.1535692   1.7465697  )
        72           Cu  tau(  72) = (   0.7501153   0.9223864   1.7476191  )
        73           Cu  tau(  73) = (   0.0000638   1.6160732   1.7455026  )
        74           Cu  tau(  74) = (   0.2497330   1.3847176   1.7458671  )
        75           Cu  tau(  75) = (   0.5000631   1.6156467   1.7451393  )
        76           Cu  tau(  76) = (   0.7503862   1.3847369   1.7458435  )
        77           Cu  tau(  77) = (   0.0000770   2.0769447   1.7462625  )
        78           Cu  tau(  78) = (   0.2499949   1.8466574   1.7457450  )
        79           Cu  tau(  79) = (   0.5000721   2.0775977   1.7461689  )
        80           Cu  tau(  80) = (   0.7501471   1.8466631   1.7457456  )
        81           Cu  tau(  81) = (   0.0000732  -0.0004834   1.9909889  )
        82           Cu  tau(  82) = (   0.2501819   0.2294912   1.9912558  )
        83           Cu  tau(  83) = (   0.5000861  -0.0013523   1.9930947  )
        84           Cu  tau(  84) = (   0.7499715   0.2294701   1.9913129  )
        85           Cu  tau(  85) = (   0.0000570   0.4600464   1.9913092  )
        86           Cu  tau(  86) = (   0.2514505   0.6901905   1.9922810  )
        87           Cu  tau(  87) = (   0.5000863   0.4587665   1.9928792  )
        88           Cu  tau(  88) = (   0.7486661   0.6902270   1.9924293  )
        89           Cu  tau(  89) = (   0.0000432   0.9207000   1.9928486  )
        90           Cu  tau(  90) = (   0.2487672   1.1547418   1.9923022  )
        91           Cu  tau(  91) = (   0.5000624   0.9240642   1.9932645  )
        92           Cu  tau(  92) = (   0.7513422   1.1547327   1.9922105  )
        93           Cu  tau(  93) = (   0.0000302   1.3866843   1.9926055  )
        94           Cu  tau(  94) = (   0.2503901   1.6157236   1.9912853  )
        95           Cu  tau(  95) = (   0.5000722   1.3850823   1.9909882  )
        96           Cu  tau(  96) = (   0.7497148   1.6157477   1.9912993  )
        97           Cu  tau(  97) = (   0.0000745   1.8457983   1.9931296  )
        98           Cu  tau(  98) = (   0.2496101   2.0772360   1.9921726  )
        99           Cu  tau(  99) = (   0.5000544   1.8462656   1.9910722  )
       100           Cu  tau( 100) = (   0.7505374   2.0772188   1.9921776  )
       101           C   tau( 101) = (   0.0003514   0.0996206   2.3875980  )
       102           C   tau( 102) = (   0.0003701   0.2920050   2.3890198  )
       103           C   tau( 103) = (   0.1669612   0.0033417   2.3866707  )
       104           C   tau( 104) = (   0.1668783   0.3881831   2.3878569  )
       105           C   tau( 105) = (   0.3334610   0.0995345   2.3840961  )
       106           C   tau( 106) = (   0.3334624   0.2919976   2.3846407  )
       107           C   tau( 107) = (   0.5003433   0.0032210   2.3815949  )
       108           C   tau( 108) = (   0.5003848   0.3882447   2.3835900  )
       109           C   tau( 109) = (   0.6672318   0.0995321   2.3842977  )
       110           C   tau( 110) = (   0.6672623   0.2919796   2.3848652  )
       111           C   tau( 111) = (   0.8337338   0.0033419   2.3867885  )
       112           C   tau( 112) = (   0.8338733   0.3881847   2.3880842  )
       113           C   tau( 113) = (   0.0003755   0.6768170   2.3872017  )
       114           C   tau( 114) = (   0.0003705   0.8692143   2.3829758  )
       115           C   tau( 115) = (   0.1668213   0.5806199   2.3868163  )
       116           C   tau( 116) = (   0.1671458   0.9654808   2.3827998  )
       117           C   tau( 117) = (   0.3336031   0.6768600   2.3840505  )
       118           C   tau( 118) = (   0.3335861   0.8693009   2.3828900  )
       119           C   tau( 119) = (   0.5003895   0.5806735   2.3843175  )
       120           C   tau( 120) = (   0.5004091   0.9655913   2.3819279  )
       121           C   tau( 121) = (   0.6671518   0.6768504   2.3841477  )
       122           C   tau( 122) = (   0.6671644   0.8692819   2.3832393  )
       123           C   tau( 123) = (   0.8339022   0.5806086   2.3869446  )
       124           C   tau( 124) = (   0.8336023   0.9654704   2.3831168  )
       125           C   tau( 125) = (   0.0004181   1.2541496   2.3826128  )
       126           C   tau( 126) = (   0.0003993   1.4466513   2.3825401  )
       127           C   tau( 127) = (   0.1671589   1.1579558   2.3821526  )
       128           C   tau( 128) = (   0.1673137   1.5428735   2.3850149  )
       129           C   tau( 129) = (   0.3339620   1.2542045   2.3853071  )
       130           C   tau( 130) = (   0.3338989   1.4466168   2.3880294  )
       131           C   tau( 131) = (   0.5004018   1.1580276   2.3849937  )
       132           C   tau( 132) = (   0.5004021   1.5428398   2.3904590  )
       133           C   tau( 133) = (   0.6668434   1.2542120   2.3856468  )
       134           C   tau( 134) = (   0.6668966   1.4466375   2.3882526  )
       135           C   tau( 135) = (   0.8336471   1.1579389   2.3824963  )
       136           C   tau( 136) = (   0.8335007   1.5428799   2.3852986  )
       137           C   tau( 137) = (   0.0003615   1.8316508   2.3835264  )
       138           C   tau( 138) = (   0.0003333   2.0241360   2.3864695  )
       139           C   tau( 139) = (   0.1672436   1.7353275   2.3855411  )
       140           C   tau( 140) = (   0.1669289   2.1203047   2.3860356  )
       141           C   tau( 141) = (   0.3337845   1.8314735   2.3877347  )
       142           C   tau( 142) = (   0.3337475   2.0239656   2.3853679  )
       143           C   tau( 143) = (   0.5003620   1.7352461   2.3894686  )
       144           C   tau( 144) = (   0.5003277   2.1201495   2.3841265  )
       145           C   tau( 145) = (   0.6669386   1.8314724   2.3878035  )
       146           C   tau( 146) = (   0.6669171   2.0239714   2.3854075  )
       147           C   tau( 147) = (   0.8334847   1.7353460   2.3856745  )
       148           C   tau( 148) = (   0.8337301   2.1203065   2.3860703  )
       149           C_h tau( 149) = (   0.4817526   0.9548742   2.8124093  )
       150           O   tau( 150) = (   0.4817526   0.9548742   2.9689542  )

     number of k points=     6  gaussian smearing, width (Ry)=  0.1000
                       cart. coord. in units 2pi/alat
        k(    1) = (   0.0000000   0.0000000   0.0000000), wk =   0.2500000
        k(    2) = (   0.0000000  -0.2165064   0.0000000), wk =   0.2500000
        k(    3) = (   0.2500000   0.0000000   0.0000000), wk =   0.5000000
        k(    4) = (   0.2500000  -0.2165064   0.0000000), wk =   0.5000000
        k(    5) = (  -0.5000000   0.0000000   0.0000000), wk =   0.2500000
        k(    6) = (  -0.5000000  -0.2165064   0.0000000), wk =   0.2500000

     Dense  grid:  2050409 G-vectors     FFT dimensions: (  80, 192, 270)

     Largest allocated arrays     est. size (Mb)     dimensions
        Kohn-Sham Wavefunctions       109.29 Mb     (    9171,  781)
        NL pseudopotentials           259.87 Mb     (    9171, 1857)
        Each V/rho on FFT grid          2.34 Mb     (  153600)
        Each G-vector array             0.56 Mb     (   73230)
        G-vector shells                 0.27 Mb     (   35784)
     Largest temporary arrays     est. size (Mb)     dimensions
        Auxiliary wavefunctions       437.17 Mb     (    9171, 3124)
        Each subspace H/S matrix       16.54 Mb     (    1041, 1041)
        Each <psi_i|beta_j> matrix     22.13 Mb     (    1857,  781)
        Arrays for rho mixing          18.75 Mb     (  153600,    8)

     Initial potential from superposition of free atoms
     Check: negative starting charge=   -0.001528

     starting charge 1276.31751, renormalised to 1302.00000

     negative rho (up, down):  1.559E-03 0.000E+00
     Starting wfc are 1296 randomized atomic wfcs

     total cpu time spent up to now is      207.4 secs

     Self-consistent Calculation

     iteration #  1     ecut=    80.00 Ry     beta=0.70
     Davidson diagonalization with overlap
     c_bands:  4 eigenvalues not converged
     ethr =  1.00E-04,  avg # of iterations = 24.5

     negative rho (up, down):  2.977E+01 0.000E+00

     total cpu time spent up to now is     4059.9 secs

     total energy              =   -9518.67846827 Ry
     Harris-Foulkes estimate   =  -17460.36087393 Ry
     estimated scf accuracy    <  185235.05853942 Ry

     iteration #  2     ecut=    80.00 Ry     beta=0.70
     Davidson diagonalization with overlap
     ethr =  1.00E-02,  avg # of iterations = 13.0

     negative rho (up, down):  3.372E+01 0.000E+00

     total cpu time spent up to now is     5979.5 secs

     total energy              =  -12061.67379187 Ry
     Harris-Foulkes estimate   =  -13785.97356202 Ry
     estimated scf accuracy    <   28615.06167213 Ry

     iteration #  3     ecut=    80.00 Ry     beta=0.70
     Davidson diagonalization with overlap
     ethr =  1.00E-02,  avg # of iterations =  7.7

     negative rho (up, down):  3.344E+01 0.000E+00

     total cpu time spent up to now is     7117.7 secs

     total energy              =  -12464.47406267 Ry
     Harris-Foulkes estimate   =  -13521.09190616 Ry
     estimated scf accuracy    <    6142.68913221 Ry

     iteration #  4     ecut=    80.00 Ry     beta=0.70
     Davidson diagonalization with overlap
     ethr =  1.00E-02,  avg # of iterations =  5.5

     negative rho (up, down):  2.160E+01 0.000E+00

     total cpu time spent up to now is     8252.7 secs

     total energy              =  -12895.66103381 Ry
     Harris-Foulkes estimate   =  -13127.44823519 Ry
     estimated scf accuracy    <    1024.91251511 Ry

     iteration #  5     ecut=    80.00 Ry     beta=0.70
     Davidson diagonalization with overlap
     ethr =  1.00E-02,  avg # of iterations =  2.0

     negative rho (up, down):  1.894E+01 0.000E+00

     total cpu time spent up to now is     8725.6 secs

     total energy              =  -12897.52615984 Ry
     Harris-Foulkes estimate   =  -12960.53733562 Ry
     estimated scf accuracy    <    1561.95179057 Ry

     iteration #  6     ecut=    80.00 Ry     beta=0.70
     Davidson diagonalization with overlap
     ethr =  1.00E-02,  avg # of iterations =  2.0

     negative rho (up, down):  1.199E+01 0.000E+00

     total cpu time spent up to now is     9077.7 secs

     total energy              =  -12858.70635888 Ry
     Harris-Foulkes estimate   =  -12928.80562511 Ry
     estimated scf accuracy    <     533.86237547 Ry

     iteration #  7     ecut=    80.00 Ry     beta=0.70
     Davidson diagonalization with overlap
     ethr =  1.00E-02,  avg # of iterations =  2.0

     negative rho (up, down):  9.787E+00 0.000E+00

     total cpu time spent up to now is     9438.3 secs

     total energy              =  -12845.69215521 Ry
     Harris-Foulkes estimate   =  -12873.82076076 Ry
     estimated scf accuracy    <     509.92134660 Ry

     iteration #  8     ecut=    80.00 Ry     beta=0.70
     Davidson diagonalization with overlap
     ethr =  1.00E-02,  avg # of iterations =  2.0

     negative rho (up, down):  7.501E+00 0.000E+00

     total cpu time spent up to now is     9792.6 secs

     total energy              =  -12829.96138295 Ry
     Harris-Foulkes estimate   =  -12856.05113105 Ry
     estimated scf accuracy    <     290.18948208 Ry

     iteration #  9     ecut=    80.00 Ry     beta=0.70
     Davidson diagonalization with overlap
     ethr =  1.00E-02,  avg # of iterations =  1.0

     negative rho (up, down):  5.281E+00 0.000E+00

     total cpu time spent up to now is    10124.2 secs

     total energy              =  -12808.99899158 Ry
     Harris-Foulkes estimate   =  -12832.64737537 Ry
     estimated scf accuracy    <     207.83786796 Ry

     iteration # 10     ecut=    80.00 Ry     beta=0.70
     Davidson diagonalization with overlap
     ethr =  1.00E-02,  avg # of iterations =  1.8

     negative rho (up, down):  1.070E+00 0.000E+00

     total cpu time spent up to now is    10472.4 secs

     total energy              =  -12772.83934385 Ry
     Harris-Foulkes estimate   =  -12813.09006355 Ry
     estimated scf accuracy    <     215.88406601 Ry

     iteration # 11     ecut=    80.00 Ry     beta=0.70
     Davidson diagonalization with overlap
     ethr =  1.00E-02,  avg # of iterations =  3.3

     negative rho (up, down):  7.072E-01 0.000E+00

     total cpu time spent up to now is    10858.9 secs

     total energy              =  -12760.03931218 Ry
     Harris-Foulkes estimate   =  -12781.47328993 Ry
     estimated scf accuracy    <     240.72471397 Ry

     iteration # 12     ecut=    80.00 Ry     beta=0.70
     Davidson diagonalization with overlap
     ethr =  1.00E-02,  avg # of iterations =  1.2

     negative rho (up, down):  2.044E+00 0.000E+00

     total cpu time spent up to now is    11192.3 secs

     total energy              =  -12762.02438885 Ry
     Harris-Foulkes estimate   =  -12771.51583601 Ry
     estimated scf accuracy    <      96.46996293 Ry

     iteration # 13     ecut=    80.00 Ry     beta=0.70
     Davidson diagonalization with overlap
     ethr =  7.41E-03,  avg # of iterations =  1.0

     negative rho (up, down):  3.462E+00 0.000E+00

     total cpu time spent up to now is    11522.7 secs

     total energy              =  -12757.87823069 Ry
     Harris-Foulkes estimate   =  -12763.77287240 Ry
     estimated scf accuracy    <      56.62810980 Ry

     iteration # 14     ecut=    80.00 Ry     beta=0.70
     Davidson diagonalization with overlap
     ethr =  4.35E-03,  avg # of iterations =  2.0

     negative rho (up, down):  3.995E+00 0.000E+00

     total cpu time spent up to now is    11879.3 secs

     total energy              =  -12756.81498453 Ry
     Harris-Foulkes estimate   =  -12760.75258104 Ry
     estimated scf accuracy    <      38.39441784 Ry

     iteration # 15     ecut=    80.00 Ry     beta=0.70
     Davidson diagonalization with overlap
     ethr =  2.95E-03,  avg # of iterations =  2.8

     negative rho (up, down):  4.104E+00 0.000E+00

     total cpu time spent up to now is    12249.9 secs

     total energy              =  -12756.17620711 Ry
     Harris-Foulkes estimate   =  -12757.94196152 Ry
     estimated scf accuracy    <      17.59818451 Ry

     iteration # 16     ecut=    80.00 Ry     beta=0.70
     Davidson diagonalization with overlap
     ethr =  1.35E-03,  avg # of iterations =  9.5

     negative rho (up, down):  3.068E+00 0.000E+00

     total cpu time spent up to now is    12782.5 secs

     total energy              =  -12755.15341527 Ry
     Harris-Foulkes estimate   =  -12756.54294587 Ry
     estimated scf accuracy    <      11.18298428 Ry

     iteration # 17     ecut=    80.00 Ry     beta=0.70
     Davidson diagonalization with overlap
     ethr =  8.59E-04,  avg # of iterations =  4.8

     negative rho (up, down):  2.868E+00 0.000E+00

     total cpu time spent up to now is    13193.1 secs

     total energy              =  -12754.28579246 Ry
     Harris-Foulkes estimate   =  -12755.30189268 Ry
     estimated scf accuracy    <       9.11193716 Ry

     iteration # 18     ecut=    80.00 Ry     beta=0.70
     Davidson diagonalization with overlap
     ethr =  7.00E-04,  avg # of iterations =  4.8

     negative rho (up, down):  2.890E+00 0.000E+00

     total cpu time spent up to now is    13605.4 secs

     total energy              =  -12753.50224748 Ry
     Harris-Foulkes estimate   =  -12754.40432584 Ry
     estimated scf accuracy    <       6.86103523 Ry

     iteration # 19     ecut=    80.00 Ry     beta=0.70
     Davidson diagonalization with overlap
     ethr =  5.27E-04,  avg # of iterations =  6.2

     negative rho (up, down):  2.848E+00 0.000E+00

     total cpu time spent up to now is    14059.9 secs

     total energy              =  -12753.00318106 Ry
     Harris-Foulkes estimate   =  -12753.60181918 Ry
     estimated scf accuracy    <       6.29914505 Ry

     iteration # 20     ecut=    80.00 Ry     beta=0.70
     Davidson diagonalization with overlap
     ethr =  4.84E-04,  avg # of iterations =  2.0

     negative rho (up, down):  2.882E+00 0.000E+00

     total cpu time spent up to now is    14413.4 secs

     total energy              =  -12752.01436664 Ry
     Harris-Foulkes estimate   =  -12753.11779324 Ry
     estimated scf accuracy    <       4.69704340 Ry

     iteration # 21     ecut=    80.00 Ry     beta=0.70
     Davidson diagonalization with overlap
     ethr =  3.61E-04,  avg # of iterations =  5.8

     negative rho (up, down):  1.742E+00 0.000E+00

     total cpu time spent up to now is    14873.3 secs

     total energy              =  -12751.57501876 Ry
     Harris-Foulkes estimate   =  -12752.41735783 Ry
     estimated scf accuracy    <       8.37954987 Ry

     iteration # 22     ecut=    80.00 Ry     beta=0.70
     Davidson diagonalization with overlap
     ethr =  3.61E-04,  avg # of iterations = 10.8

     negative rho (up, down):  9.602E-01 0.000E+00

     total cpu time spent up to now is    15435.5 secs

     total energy              =  -12751.11016641 Ry
     Harris-Foulkes estimate   =  -12751.74991070 Ry
     estimated scf accuracy    <       3.93754552 Ry

     iteration # 23     ecut=    80.00 Ry     beta=0.70
     Davidson diagonalization with overlap
     ethr =  3.02E-04,  avg # of iterations =  4.5

     negative rho (up, down):  6.184E-01 0.000E+00

     total cpu time spent up to now is    15843.9 secs

     total energy              =  -12750.97364267 Ry
     Harris-Foulkes estimate   =  -12751.18258574 Ry
     estimated scf accuracy    <       3.16160251 Ry

     iteration # 24     ecut=    80.00 Ry     beta=0.70
     Davidson diagonalization with overlap
     ethr =  2.43E-04,  avg # of iterations =  8.0

     negative rho (up, down):  6.480E-01 0.000E+00

     total cpu time spent up to now is    16326.4 secs

     total energy              =  -12750.47346371 Ry
     Harris-Foulkes estimate   =  -12751.01762111 Ry
     estimated scf accuracy    <       1.49538703 Ry

     iteration # 25     ecut=    80.00 Ry     beta=0.70
     Davidson diagonalization with overlap
     ethr =  1.15E-04,  avg # of iterations =  8.2

     negative rho (up, down):  5.064E-01 0.000E+00

     total cpu time spent up to now is    16846.9 secs

     total energy              =  -12750.28440618 Ry
     Harris-Foulkes estimate   =  -12750.74273496 Ry
     estimated scf accuracy    <       8.64004228 Ry

     iteration # 26     ecut=    80.00 Ry     beta=0.70
     Davidson diagonalization with overlap
     ethr =  1.15E-04,  avg # of iterations =  5.3

     negative rho (up, down):  4.274E-01 0.000E+00

     total cpu time spent up to now is    17279.2 secs

     total energy              =  -12750.26679534 Ry
     Harris-Foulkes estimate   =  -12750.43502816 Ry
     estimated scf accuracy    <       1.50458227 Ry

     iteration # 27     ecut=    80.00 Ry     beta=0.70
     Davidson diagonalization with overlap
     ethr =  1.15E-04,  avg # of iterations =  6.5

     negative rho (up, down):  3.613E-01 0.000E+00

     total cpu time spent up to now is    17732.3 secs

     total energy              =  -12750.25711452 Ry
     Harris-Foulkes estimate   =  -12750.33362574 Ry
     estimated scf accuracy    <       0.55920721 Ry

     iteration # 28     ecut=    80.00 Ry     beta=0.70
     Davidson diagonalization with overlap
     ethr =  4.29E-05,  avg # of iterations =  8.3

     negative rho (up, down):  2.171E-01 0.000E+00

     total cpu time spent up to now is    18235.6 secs

     total energy              =  -12750.23915720 Ry
     Harris-Foulkes estimate   =  -12750.29091971 Ry
     estimated scf accuracy    <       0.33069803 Ry

     iteration # 29     ecut=    80.00 Ry     beta=0.70
     Davidson diagonalization with overlap
     c_bands:  1 eigenvalues not converged
     ethr =  2.54E-05,  avg # of iterations =  9.8

     negative rho (up, down):  1.212E-01 0.000E+00

     total cpu time spent up to now is    18783.3 secs

     total energy              =  -12750.25219160 Ry
     Harris-Foulkes estimate   =  -12750.26158372 Ry
     estimated scf accuracy    <       0.09003547 Ry

     iteration # 30     ecut=    80.00 Ry     beta=0.70
     Davidson diagonalization with overlap
     c_bands:  1 eigenvalues not converged
     ethr =  6.92E-06,  avg # of iterations =  9.5

     negative rho (up, down):  1.119E-01 0.000E+00

     total cpu time spent up to now is    19320.2 secs

     total energy              =  -12750.25452383 Ry
     Harris-Foulkes estimate   =  -12750.25789350 Ry
     estimated scf accuracy    <       0.02487973 Ry

     iteration # 31     ecut=    80.00 Ry     beta=0.70
     Davidson diagonalization with overlap
     ethr =  1.91E-06,  avg # of iterations =  8.3

     negative rho (up, down):  8.329E-02 0.000E+00

     total cpu time spent up to now is    19882.5 secs

     total energy              =  -12750.25542641 Ry
     Harris-Foulkes estimate   =  -12750.25702871 Ry
     estimated scf accuracy    <       0.00789416 Ry

     iteration # 32     ecut=    80.00 Ry     beta=0.70
     Davidson diagonalization with overlap
     ethr =  6.06E-07,  avg # of iterations =  7.0

     negative rho (up, down):  4.210E-02 0.000E+00

     total cpu time spent up to now is    20373.2 secs

     total energy              =  -12750.25472968 Ry
     Harris-Foulkes estimate   =  -12750.25620671 Ry
     estimated scf accuracy    <       0.00441135 Ry

     iteration # 33     ecut=    80.00 Ry     beta=0.70
     Davidson diagonalization with overlap
     ethr =  3.39E-07,  avg # of iterations =  7.7

     negative rho (up, down):  3.148E-02 0.000E+00

     total cpu time spent up to now is    20884.5 secs

     total energy              =  -12750.25485045 Ry
     Harris-Foulkes estimate   =  -12750.25504840 Ry
     estimated scf accuracy    <       0.00195121 Ry

     iteration # 34     ecut=    80.00 Ry     beta=0.70
     Davidson diagonalization with overlap
     ethr =  1.50E-07,  avg # of iterations =  5.7

     negative rho (up, down):  2.064E-02 0.000E+00

     total cpu time spent up to now is    21337.8 secs

     total energy              =  -12750.25465932 Ry
     Harris-Foulkes estimate   =  -12750.25490350 Ry
     estimated scf accuracy    <       0.00084146 Ry

     iteration # 35     ecut=    80.00 Ry     beta=0.70
     Davidson diagonalization with overlap
     c_bands:  1 eigenvalues not converged
     ethr =  6.46E-08,  avg # of iterations =  8.5

     negative rho (up, down):  1.355E-02 0.000E+00

     total cpu time spent up to now is    21862.7 secs

     total energy              =  -12750.25453235 Ry
     Harris-Foulkes estimate   =  -12750.25471511 Ry
     estimated scf accuracy    <       0.00023164 Ry

     iteration # 36     ecut=    80.00 Ry     beta=0.70
     Davidson diagonalization with overlap
     ethr =  1.78E-08,  avg # of iterations =  6.2

     negative rho (up, down):  9.240E-03 0.000E+00

     total cpu time spent up to now is    22330.2 secs

     total energy              =  -12750.25447357 Ry
     Harris-Foulkes estimate   =  -12750.25455295 Ry
     estimated scf accuracy    <       0.00005064 Ry

     iteration # 37     ecut=    80.00 Ry     beta=0.70
     Davidson diagonalization with overlap
     ethr =  3.89E-09,  avg # of iterations =  3.8

     negative rho (up, down):  4.309E-03 0.000E+00

     total cpu time spent up to now is    22743.2 secs

     total energy              =  -12750.25439709 Ry
     Harris-Foulkes estimate   =  -12750.25447815 Ry
     estimated scf accuracy    <       0.00003220 Ry

     iteration # 38     ecut=    80.00 Ry     beta=0.70
     Davidson diagonalization with overlap
     ethr =  2.47E-09,  avg # of iterations =  6.8

     negative rho (up, down):  1.940E-03 0.000E+00

     total cpu time spent up to now is    23220.2 secs

     total energy              =  -12750.25437482 Ry
     Harris-Foulkes estimate   =  -12750.25439906 Ry
     estimated scf accuracy    <       0.00000759 Ry

     iteration # 39     ecut=    80.00 Ry     beta=0.70
     Davidson diagonalization with overlap
     ethr =  5.83E-10,  avg # of iterations =  9.5

     negative rho (up, down):  1.758E-03 0.000E+00

     total cpu time spent up to now is    23761.9 secs

     total energy              =  -12750.25437529 Ry
     Harris-Foulkes estimate   =  -12750.25437545 Ry
     estimated scf accuracy    <       0.00000203 Ry

     iteration # 40     ecut=    80.00 Ry     beta=0.70
     Davidson diagonalization with overlap
     ethr =  1.56E-10,  avg # of iterations =  2.0

     negative rho (up, down):  1.745E-03 0.000E+00

     total cpu time spent up to now is    24132.0 secs

     total energy              =  -12750.25437577 Ry
     Harris-Foulkes estimate   =  -12750.25437547 Ry
     estimated scf accuracy    <       0.00000041 Ry

     iteration # 41     ecut=    80.00 Ry     beta=0.70
     Davidson diagonalization with overlap
     ethr =  3.17E-11,  avg # of iterations =  3.0

     negative rho (up, down):  1.733E-03 0.000E+00

     total cpu time spent up to now is    24543.2 secs

     total energy              =  -12750.25437597 Ry
     Harris-Foulkes estimate   =  -12750.25437582 Ry
     estimated scf accuracy    <       0.00000018 Ry

     iteration # 42     ecut=    80.00 Ry     beta=0.70
     Davidson diagonalization with overlap
     ethr =  1.42E-11,  avg # of iterations =  3.0

     negative rho (up, down):  1.790E-03 0.000E+00

     total cpu time spent up to now is    24942.1 secs

     total energy              =  -12750.25437597 Ry
     Harris-Foulkes estimate   =  -12750.25437600 Ry
     estimated scf accuracy    <       0.00000009 Ry

     iteration # 43     ecut=    80.00 Ry     beta=0.70
     Davidson diagonalization with overlap
     ethr =  6.59E-12,  avg # of iterations =  3.2

     negative rho (up, down):  1.796E-03 0.000E+00

     total cpu time spent up to now is    25347.6 secs

     total energy              =  -12750.25437599 Ry
     Harris-Foulkes estimate   =  -12750.25437598 Ry
     estimated scf accuracy    <       0.00000004 Ry

     iteration # 44     ecut=    80.00 Ry     beta=0.70
     Davidson diagonalization with overlap
     ethr =  2.76E-12,  avg # of iterations =  2.0

     negative rho (up, down):  1.801E-03 0.000E+00

     total cpu time spent up to now is    25694.8 secs

     End of self-consistent calculation

          k = 0.0000 0.0000 0.0000 (256287 PWs)   bands (ev):

   -22.7110 -16.3112 -15.9402 -15.9377 -14.8333 -14.8323 -14.3487 -14.3463
   -13.9875 -13.9851 -13.9848 -13.9824 -13.0334 -13.0322 -12.9177 -12.9166
   -12.9153 -12.9139 -11.2235 -11.2226 -11.2219 -11.2199 -11.0140 -10.0189
    -9.3370  -9.3368  -9.3349  -9.3340  -8.4604  -8.4573  -8.4569  -8.4542
    -7.4690  -7.4658  -7.3939  -7.3928  -7.3909  -7.3899  -7.3772  -7.3769
    -7.1838  -5.9931  -5.8373  -5.8366  -5.8332  -5.8325  -5.6748  -5.6736
    -5.6719  -5.6709  -5.4600  -5.4575  -5.0547  -4.5939  -4.5912  -4.5723
    -4.5591  -4.5371  -4.5248  -4.5235  -4.1951  -4.1949  -4.0797  -4.0725
    -3.9622  -3.9621  -3.3848  -3.3836  -3.3819  -3.3815  -3.3812  -3.3803
    -3.2349  -3.2211  -3.2197  -3.2184  -3.1902  -3.1466  -2.9853  -2.9830
    -2.9824  -2.9805  -2.9529  -2.8725  -2.8693  -2.7777  -2.7485  -2.7054
    -2.6924  -2.6343  -2.6108  -2.5663  -2.5659  -2.5640  -2.5626  -2.3346
    -2.3336  -2.3332  -2.3266  -2.2703  -2.2561  -2.1665  -2.1664  -2.1270
    -2.1268  -2.1264  -2.1262  -1.9990  -1.9972  -1.9962  -1.9945  -1.9945
    -1.9933  -1.9933  -1.9760  -1.9244  -1.8599  -1.8590  -1.8116  -1.7504
    -1.7102  -1.7102  -1.7097  -1.7095  -1.6553  -1.6543  -1.6450  -1.6322
    -1.6299  -1.5689  -1.5599  -1.5356  -1.5353  -1.5340  -1.5321  -1.4993
    -1.4991  -1.4975  -1.4953  -1.4890  -1.4871  -1.4067  -1.4056  -1.3870
    -1.3405  -1.3403  -1.3397  -1.3386  -1.3252  -1.2713  -1.2352  -1.2335
    -1.2239  -1.2097  -1.2076  -1.1842  -1.1834  -1.1644  -1.1619  -1.1395
    -1.1361  -1.0840  -1.0816  -1.0633  -1.0628  -1.0615  -1.0581  -1.0190
    -1.0159  -1.0036  -0.9953  -0.9945  -0.9929  -0.9928  -0.9913  -0.9905
    -0.9868  -0.9866  -0.9683  -0.9305  -0.9274  -0.9230  -0.8968  -0.8947
    -0.8941  -0.8890  -0.8885  -0.8875  -0.8299  -0.8286  -0.8276  -0.8275
    -0.8263  -0.8255  -0.8246  -0.8222  -0.8214  -0.8207  -0.8206  -0.8182
    -0.8158  -0.8146  -0.8146  -0.7976  -0.7974  -0.7568  -0.7421  -0.7415
    -0.7386  -0.7317  -0.6611  -0.6611  -0.6565  -0.6562  -0.6287  -0.6276
    -0.6133  -0.6132  -0.5894  -0.5893  -0.5736  -0.5734  -0.5727  -0.5723
    -0.5556  -0.5465  -0.5460  -0.5352  -0.5349  -0.5327  -0.5322  -0.5238
    -0.5230  -0.5110  -0.5104  -0.4632  -0.4631  -0.4101  -0.4099  -0.3979
    -0.3962  -0.3956  -0.3945  -0.3784  -0.3783  -0.3748  -0.3748  -0.3744
    -0.3744  -0.3715  -0.3714  -0.3558  -0.3558  -0.3407  -0.3404  -0.3398
    -0.3395  -0.3237  -0.3230  -0.2703  -0.2678  -0.2674  -0.2608  -0.2606
    -0.2338  -0.2337  -0.2328  -0.2327  -0.2152  -0.2149  -0.2138  -0.2138
    -0.2127  -0.1884  -0.1882  -0.1874  -0.1868  -0.1820  -0.1818  -0.1811
    -0.1809  -0.1794  -0.1761  -0.1594  -0.1587  -0.1579  -0.1572  -0.1567
    -0.1377  -0.0890  -0.0888  -0.0866  -0.0864  -0.0801  -0.0375  -0.0370
    -0.0354  -0.0349  -0.0327  -0.0325  -0.0321  -0.0320  -0.0318  -0.0141
    -0.0133   0.0215   0.0224   0.0267   0.0271   0.0285   0.0529   0.0531
     0.0565   0.0568   0.0577   0.0611   0.0765   0.0772   0.0775   0.0777
     0.0790   0.0796   0.0948   0.0950   0.0953   0.0954   0.1078   0.1082
     0.1083   0.1091   0.1320   0.1329   0.1566   0.1597   0.1661   0.1680
     0.1991   0.1999   0.2003   0.2008   0.2247   0.2281   0.2674   0.2678
     0.2686   0.2694   0.2704   0.2737   0.3042   0.3063   0.3066   0.3073
     0.3078   0.3098   0.3168   0.3179   0.3554   0.3749   0.3749   0.3795
     0.3813   0.3826   0.3833   0.3844   0.4071   0.4168   0.4177   0.4179
     0.4180   0.4520   0.4548   0.4552   0.4554   0.4559   0.4710   0.4723
     0.4729   0.4736   0.5131   0.5135   0.5266   0.5271   0.5278   0.5293
     0.5295   0.5419   0.5591   0.5613   0.5640   0.5662   0.5671   0.5687
     0.5689   0.5690   0.5755   0.5782   0.5787   0.5876   0.5885   0.5888
     0.5897   0.5981   0.5982   0.6262   0.6396   0.6398   0.6488   0.6506
     0.6820   0.6825   0.6828   0.6832   0.6856   0.6857   0.6858   0.6859
     0.6971   0.6982   0.7084   0.7121   0.7125   0.7143   0.7166   0.7216
     0.7217   0.7333   0.7342   0.7450   0.7542   0.7543   0.7545   0.7549
     0.7655   0.7662   0.7773   0.7808   0.7827   0.7827   0.7868   0.7878
     0.7880   0.7907   0.8016   0.8351   0.8375   0.8393   0.8396   0.8398
     0.8473   0.8525   0.8532   0.8579   0.8582   0.8585   0.8596   0.8895
     0.8901   0.9057   0.9066   0.9097   0.9099   0.9245   0.9245   0.9332
     0.9345   0.9359   0.9366   0.9409   0.9559   0.9696   0.9721   0.9727
     0.9745   0.9749   0.9762   0.9944   1.0005   1.0096   1.0191   1.0191
     1.0284   1.0449   1.0455   1.0462   1.0465   1.0470   1.0525   1.0545
     1.0576   1.0576   1.0622   1.0630   1.0632   1.0634   1.0657   1.0744
     1.0785   1.0790   1.0977   1.0978   1.1007   1.1012   1.1065   1.1098
     1.1383   1.1394   1.1451   1.1464   1.1465   1.1472   1.1478   1.1483
     1.1539   1.1540   1.1543   1.1548   1.1577   1.1578   1.1703   1.1703
     1.2135   1.2172   1.2188   1.2211   1.2355   1.2380   1.2387   1.2394
     1.2423   1.2431   1.2567   1.2651   1.2658   1.2721   1.2740   1.2743
     1.2751   1.2794   1.2795   1.2806   1.2810   1.2820   1.2875   1.3083
     1.3095   1.3109   1.3116   1.3117   1.3119   1.3130   1.3135   1.3287
     1.3289   1.3297   1.3367   1.3447   1.3449   1.3458   1.3460   1.3496
     1.3550   1.3602   1.3619   1.3790   1.3875   1.3892   1.3906   1.3911
     1.3955   1.4012   1.4021   1.4082   1.4172   1.4200   1.4207   1.4244
     1.4271   1.4376   1.4509   1.4512   1.4583   1.4585   1.4698   1.4703
     1.4707   1.4707   1.4708   1.4715   1.4722   1.4729   1.4730   1.4750
     1.4837   1.4837   1.4845   1.5017   1.5020   1.5028   1.5029   1.5049
     1.5163   1.5170   1.5508   1.5525   1.5548   1.5552   1.5560   1.5932
     1.5938   1.5971   1.5979   1.6111   1.6183   1.6190   1.6209   1.6251
     1.6379   1.6646   1.6680   1.6687   1.6705   1.6708   1.6753   1.6786
     1.6787   1.9321   1.9901   2.1495   2.1496   2.1985   2.2011   2.2400
     2.2403   2.2407   2.2409   2.2619   2.2626   2.2628   2.2636   2.4438
     2.4441   2.5066   2.5070   2.5092   2.5100   2.5194   2.5205   2.7609
     2.7611   2.7625   2.7628   3.1416   3.1663   3.1665   3.1709   3.2317
     3.5712   3.5725   3.8594   3.8613   3.8902   3.8903   3.8924   3.8927
     3.9318   3.9803   3.9821   3.9991   4.0401   4.0410   4.0413   4.0422
     4.0494   4.0536   4.0661   4.0687   4.2964   4.2974   4.3031   4.3045
     4.4777   4.6491   4.7938   5.0276   5.0336   5.0585   5.0615   5.3424
     5.4624   5.4706   5.4853   5.7691   5.7719   5.7739   5.7807   5.9614
     5.9655   6.4075   6.4101   6.4257   6.4455   6.5265   6.5282   6.5310
     6.5355   6.6960   6.6970   6.6977   6.6995   6.8565   6.8608   6.8628
     6.8665   6.9455   6.9679   7.0927   7.1320   7.1366   7.1376   7.1386
     7.1444   7.3923   7.3966   7.6092   7.6203   7.6497   7.7347   7.7350
     7.7495   7.7524   8.0925   8.1562   8.1718   8.2574   8.2773   8.3404
     8.3663   8.3665   8.3785   8.3872   8.4250   8.4278   8.4788   8.4905
     8.5912   8.6622   8.6672   8.6719   8.6764   8.7268   8.7286   8.7314
     8.7330   8.8556   8.8573   8.8866   8.8877   8.8904   8.8962   9.1015
     9.1685   9.1712   9.1750   9.1782   9.1824   9.1935   9.3844   9.3883
     9.4984   9.5500   9.5701   9.5760   9.6143   9.6145   9.6754   9.7045
     9.8641  10.0764  10.0767  10.1638  10.3148

          k = 0.0000-0.2165 0.0000 (256176 PWs)   bands (ev):

   -22.7110 -16.2207 -16.2153 -15.4772 -15.4750 -14.2602 -14.2584 -14.2554
   -14.2524 -14.0156 -14.0141 -13.5407 -13.5405 -13.5335 -13.5288 -12.1464
   -12.1431 -12.1297 -12.1286 -11.9159 -11.9138 -10.2300 -10.2282 -10.2278
   -10.2265  -8.9842  -8.9824  -8.8255  -8.8240  -8.8228  -8.8208  -7.9967
    -7.9955  -7.9940  -7.9910  -7.1840  -6.8186  -6.8182  -6.8154  -6.8144
    -6.6646  -6.6622  -6.6603  -6.6548  -5.8585  -5.8581  -5.8462  -5.8453
    -5.0089  -5.0059  -5.0046  -5.0010  -4.9337  -4.9279  -4.8126  -4.8126
    -4.5913  -4.5910  -4.4503  -4.4495  -4.4430  -4.4415  -4.4238  -4.4183
    -3.9794  -3.9717  -3.5262  -3.5115  -3.2777  -3.2773  -3.2772  -3.2771
    -3.1452  -3.1401  -3.0476  -3.0310  -3.0057  -3.0055  -2.9248  -2.8924
    -2.8905  -2.8885  -2.8880  -2.7076  -2.7071  -2.7034  -2.7024  -2.6045
    -2.6030  -2.5543  -2.5536  -2.5532  -2.5529  -2.5512  -2.5491  -2.5486
    -2.5261  -2.4349  -2.4325  -2.2911  -2.2858  -2.2096  -2.2087  -2.2010
    -2.2009  -2.1993  -2.1718  -2.1155  -2.1153  -2.1151  -2.1142  -1.9600
    -1.9599  -1.9495  -1.9394  -1.9346  -1.9346  -1.8316  -1.8293  -1.7384
    -1.7382  -1.7269  -1.7265  -1.7240  -1.7237  -1.7234  -1.7172  -1.7137
    -1.7137  -1.6964  -1.6956  -1.6192  -1.6184  -1.5030  -1.5024  -1.5012
    -1.4929  -1.4310  -1.4305  -1.4305  -1.4284  -1.3476  -1.3470  -1.3420
    -1.3416  -1.2892  -1.2889  -1.2504  -1.2499  -1.2477  -1.2470  -1.2452
    -1.2442  -1.2134  -1.2121  -1.2023  -1.2022  -1.2009  -1.1989  -1.1936
    -1.1936  -1.1788  -1.1782  -1.1099  -1.1093  -1.1078  -1.1056  -1.1028
    -1.1027  -1.0607  -1.0605  -1.0231  -1.0230  -1.0199  -1.0196  -0.9751
    -0.9731  -0.9569  -0.9559  -0.9557  -0.9546  -0.9483  -0.9481  -0.8985
    -0.8983  -0.8915  -0.8909  -0.8811  -0.8809  -0.8663  -0.8659  -0.8658
    -0.8656  -0.7980  -0.7963  -0.7894  -0.7892  -0.7842  -0.7835  -0.7804
    -0.7796  -0.7659  -0.7656  -0.7519  -0.7509  -0.7262  -0.7261  -0.7186
    -0.7183  -0.6280  -0.6275  -0.6266  -0.6262  -0.6060  -0.6058  -0.5780
    -0.5775  -0.5764  -0.5760  -0.5736  -0.5736  -0.5436  -0.5431  -0.5123
    -0.5123  -0.5114  -0.5113  -0.5107  -0.5104  -0.5048  -0.5036  -0.4736
    -0.4735  -0.4526  -0.4526  -0.4500  -0.4487  -0.4172  -0.4167  -0.4163
    -0.4158  -0.4066  -0.4063  -0.4061  -0.4058  -0.3939  -0.3928  -0.3295
    -0.3291  -0.3275  -0.3271  -0.2978  -0.2961  -0.2722  -0.2721  -0.2663
    -0.2662  -0.2631  -0.2628  -0.2393  -0.2390  -0.2377  -0.2370  -0.2182
    -0.2171  -0.2167  -0.2163  -0.2161  -0.2158  -0.2155  -0.2151  -0.2131
    -0.2130  -0.2104  -0.2071  -0.1999  -0.1995  -0.1759  -0.1759  -0.1739
    -0.1738  -0.1097  -0.1095  -0.1093  -0.1090  -0.1011  -0.1002  -0.0968
    -0.0946  -0.0935  -0.0896  -0.0752  -0.0703  -0.0545  -0.0528  -0.0521
    -0.0518  -0.0502  -0.0494  -0.0457  -0.0449  -0.0443  -0.0428  -0.0424
    -0.0405  -0.0378  -0.0344   0.0135   0.0145   0.0185   0.0199   0.0362
     0.0368   0.0379   0.0396   0.0399   0.0400   0.0578   0.0588   0.0591
     0.0601   0.0622   0.0724   0.0890   0.0899   0.0906   0.1024   0.1066
     0.1069   0.1072   0.1073   0.1232   0.1269   0.1409   0.1412   0.1559
     0.1563   0.1687   0.1694   0.1694   0.1703   0.2096   0.2104   0.2135
     0.2142   0.2282   0.2297   0.2302   0.2308   0.2612   0.2617   0.2944
     0.2950   0.2988   0.3003   0.3285   0.3305   0.3894   0.3899   0.4168
     0.4171   0.4176   0.4180   0.4457   0.4466   0.4468   0.4470   0.4680
     0.4694   0.4866   0.4878   0.4892   0.4896   0.4899   0.4903   0.4904
     0.4938   0.4940   0.4987   0.5093   0.5100   0.5123   0.5126   0.5155
     0.5168   0.5169   0.5199   0.5483   0.5485   0.5611   0.5612   0.5612
     0.5621   0.5702   0.5702   0.5864   0.5878   0.5918   0.5921   0.5925
     0.5928   0.5933   0.5939   0.6067   0.6116   0.6125   0.6130   0.6143
     0.6149   0.6150   0.6157   0.6196   0.6197   0.6344   0.6362   0.6776
     0.6779   0.6907   0.6909   0.7015   0.7020   0.7022   0.7025   0.7097
     0.7107   0.7110   0.7118   0.7165   0.7165   0.7167   0.7168   0.7568
     0.7570   0.7586   0.7593   0.7744   0.7746   0.7761   0.7768   0.7780
     0.7790   0.7941   0.7956   0.8070   0.8075   0.8149   0.8151   0.8159
     0.8160   0.8679   0.8686   0.9200   0.9201   0.9238   0.9262   0.9267
     0.9293   0.9369   0.9371   0.9433   0.9437   0.9509   0.9515   0.9587
     0.9589   0.9604   0.9605   0.9721   0.9728   0.9756   0.9756   0.9758
     0.9778   0.9877   0.9892   1.0003   1.0004   1.0005   1.0006   1.0029
     1.0035   1.0082   1.0095   1.0132   1.0147   1.0232   1.0233   1.0274
     1.0279   1.0279   1.0284   1.0447   1.0449   1.0583   1.0594   1.0610
     1.0615   1.0629   1.0633   1.0719   1.0723   1.0729   1.0733   1.0734
     1.0734   1.1228   1.1241   1.1556   1.1598   1.1603   1.1607   1.1801
     1.1806   1.1888   1.1911   1.1914   1.1931   1.2028   1.2038   1.2199
     1.2210   1.2271   1.2272   1.2323   1.2331   1.2344   1.2344   1.2355
     1.2356   1.2365   1.2372   1.2372   1.2378   1.2437   1.2441   1.2582
     1.2610   1.2656   1.2666   1.2668   1.2677   1.2746   1.2758   1.3036
     1.3038   1.3050   1.3059   1.3110   1.3113   1.3142   1.3151   1.3318
     1.3321   1.3327   1.3329   1.3454   1.3456   1.3473   1.3480   1.3509
     1.3510   1.3664   1.3669   1.3680   1.3682   1.3857   1.3860   1.3892
     1.3898   1.4077   1.4082   1.4140   1.4145   1.4152   1.4157   1.4293
     1.4295   1.4303   1.4306   1.4471   1.4478   1.4608   1.4608   1.4609
     1.4616   1.4805   1.4813   1.4834   1.4840   1.4850   1.4852   1.4853
     1.4857   1.5143   1.5144   1.5216   1.5221   1.5283   1.5287   1.5430
     1.5441   1.5551   1.5557   1.5562   1.5564   1.5596   1.5614   1.5721
     1.5745   1.6240   1.6245   1.6248   1.6250   1.7280   1.7284   1.7561
     1.7584   1.7717   1.7718   1.7719   1.7725   1.8232   1.8252   1.8255
     1.8280   1.8489   1.8491   1.8494   1.8499   1.8856   1.8893   2.2202
     2.2237   2.2278   2.2308   2.4588   2.4589   2.4589   2.4594   2.5302
     2.5312   2.6034   2.6038   2.6072   2.6073   2.6146   2.6150   2.7431
     2.7450   2.8076   2.8092   2.8225   2.8228   2.9558   2.9568   3.2030
     3.2030   3.2305   3.2306   3.4670   3.4698   3.7071   3.7089   3.9590
     3.9761   4.0585   4.0692   4.0761   4.0849   4.1826   4.1856   4.1970
     4.2003   4.3717   4.3721   4.3732   4.3739   4.5490   4.5509   4.7510
     4.7611   4.8286   4.8364   5.1323   5.1334   5.1347   5.1419   5.3914
     5.3926   5.3930   5.3940   5.4784   5.4856   5.7169   5.7293   5.8870
     5.9005   5.9464   5.9591   6.4564   6.4622   6.4913   6.4954   6.4980
     6.5028   6.6022   6.6046   6.7022   6.7028   6.8712   6.8727   7.0586
     7.0704   7.0922   7.1006   7.1172   7.1205   7.1634   7.1650   7.1747
     7.1747   7.3912   7.3928   7.4589   7.4620   7.4999   7.5032   7.7536
     7.7609   7.8396   7.8427   7.8845   7.9002   8.1926   8.1929   8.3929
     8.3934   8.4598   8.4740   8.5050   8.5062   8.5123   8.5136   8.6356
     8.6391   8.6850   8.7554   8.7589   8.7631   8.7650   8.7798   8.8030
     8.8033   8.9915   8.9958   9.0712   9.0773   9.1950   9.2030   9.2051
     9.3086   9.3100   9.3193   9.3221   9.3512   9.4156   9.4171   9.4191
     9.4193   9.5013   9.5024   9.5502   9.5519   9.5555   9.5709   9.7259
     9.7269   9.8171   9.8178   9.9227  10.2098

          k = 0.2500 0.0000 0.0000 (256240 PWs)   bands (ev):

   -22.7110 -16.1870 -15.8166 -15.8140 -15.1998 -14.8341 -14.8316 -14.7116
   -14.7106 -13.7464 -13.7454 -13.2709 -12.9176 -12.9173 -12.9153 -12.9137
   -11.9956 -11.9946 -11.8869 -11.8860 -10.9086 -10.5945 -10.5922 -10.5822
   -10.0672  -9.9140  -9.6148  -9.6135  -9.2138  -8.9594  -8.9584  -8.4019
    -7.3942  -7.3926  -7.3919  -7.3905  -7.2780  -7.2744  -7.1837  -6.8124
    -6.5399  -5.9734  -5.8134  -5.7737  -5.7730  -5.7620  -5.7594  -5.2869
    -5.2843  -5.0335  -5.0307  -4.8896  -4.5917  -4.5914  -4.5290  -4.4406
    -4.4125  -4.4026  -4.3821  -4.2166  -4.2161  -4.1944  -4.1936  -3.9755
    -3.9732  -3.9333  -3.9248  -3.8150  -3.8149  -3.7539  -3.6334  -3.4670
    -3.4662  -3.3848  -3.3834  -3.3821  -3.3807  -3.2794  -3.2782  -3.2457
    -3.2152  -3.1962  -3.0896  -3.0615  -2.9994  -2.9949  -2.9210  -2.8252
    -2.7749  -2.7736  -2.7684  -2.6705  -2.6313  -2.5866  -2.5700  -2.3750
    -2.3290  -2.3278  -2.3061  -2.3051  -2.0738  -2.0737  -2.0578  -2.0556
    -1.9691  -1.9512  -1.9038  -1.8976  -1.8624  -1.8612  -1.8589  -1.8574
    -1.8025  -1.7749  -1.7749  -1.7675  -1.7674  -1.7474  -1.7166  -1.6976
    -1.6827  -1.6818  -1.6589  -1.6537  -1.6192  -1.6181  -1.5766  -1.5568
    -1.5548  -1.5514  -1.5513  -1.5496  -1.5493  -1.5076  -1.5055  -1.4946
    -1.4864  -1.4777  -1.4754  -1.4614  -1.4597  -1.3436  -1.3057  -1.3045
    -1.2851  -1.2484  -1.2406  -1.2405  -1.2159  -1.2151  -1.2103  -1.1944
    -1.1937  -1.1842  -1.1836  -1.1810  -1.1576  -1.1562  -1.1498  -1.1382
    -1.1085  -1.1061  -1.1010  -1.0999  -1.0980  -1.0977  -1.0843  -1.0825
    -1.0521  -1.0441  -1.0192  -1.0185  -1.0181  -1.0175  -1.0133  -1.0100
    -0.9884  -0.9841  -0.9821  -0.9729  -0.9656  -0.9653  -0.9523  -0.9519
    -0.9509  -0.9508  -0.9474  -0.9471  -0.9349  -0.9169  -0.9135  -0.9126
    -0.8753  -0.8719  -0.8714  -0.8699  -0.8661  -0.8588  -0.8576  -0.8491
    -0.8428  -0.8236  -0.8227  -0.7887  -0.7886  -0.7692  -0.7681  -0.7535
    -0.7421  -0.7417  -0.7299  -0.7255  -0.7235  -0.7213  -0.7128  -0.7116
    -0.6929  -0.5709  -0.5693  -0.5684  -0.5669  -0.5395  -0.5362  -0.5362
    -0.5212  -0.5211  -0.5199  -0.5178  -0.4977  -0.4975  -0.4972  -0.4970
    -0.4828  -0.4826  -0.4543  -0.4542  -0.4532  -0.4529  -0.4522  -0.4520
    -0.4308  -0.4307  -0.4307  -0.3699  -0.3697  -0.3696  -0.3665  -0.3629
    -0.3609  -0.3501  -0.3425  -0.3423  -0.3269  -0.3268  -0.3206  -0.3048
    -0.3004  -0.3003  -0.2973  -0.2635  -0.2635  -0.2633  -0.2631  -0.2496
    -0.2496  -0.2389  -0.2353  -0.2351  -0.2242  -0.2242  -0.2034  -0.2019
    -0.1975  -0.1714  -0.1677  -0.1659  -0.1654  -0.1647  -0.1510  -0.1496
    -0.1494  -0.1490  -0.1206  -0.1204  -0.1186  -0.1175  -0.1098  -0.1062
    -0.1039  -0.0847  -0.0790  -0.0788  -0.0643  -0.0637  -0.0353  -0.0334
    -0.0286  -0.0247  -0.0234  -0.0150   0.0141   0.0142   0.0211   0.0215
     0.0225   0.0281   0.0283   0.0324   0.0345   0.0356   0.0358   0.0402
     0.0412   0.0447   0.0629   0.0631   0.0672   0.0675   0.0736   0.0736
     0.0922   0.0925   0.1047   0.1059   0.1233   0.1456   0.1461   0.1465
     0.1481   0.1485   0.1551   0.1589   0.1708   0.1723   0.1726   0.1735
     0.1736   0.1746   0.2111   0.2113   0.2557   0.2563   0.2854   0.2871
     0.2873   0.3005   0.3019   0.3063   0.3065   0.3091   0.3117   0.3122
     0.3140   0.3171   0.3189   0.3301   0.3327   0.3336   0.3377   0.3379
     0.3428   0.3432   0.3543   0.3546   0.3580   0.3606   0.3637   0.3699
     0.3897   0.3928   0.3935   0.4342   0.4348   0.4386   0.4476   0.4543
     0.4579   0.4581   0.4753   0.4757   0.4778   0.4811   0.4927   0.4948
     0.5112   0.5133   0.5136   0.5154   0.5169   0.5253   0.5256   0.5268
     0.5270   0.5493   0.5587   0.5589   0.5745   0.5747   0.5808   0.5812
     0.5843   0.5845   0.5856   0.5892   0.5895   0.6102   0.6114   0.6115
     0.6248   0.6255   0.6265   0.6271   0.6288   0.6436   0.6439   0.6473
     0.6500   0.6504   0.6690   0.6694   0.6907   0.6913   0.6981   0.6990
     0.7037   0.7038   0.7075   0.7237   0.7349   0.7382   0.7576   0.7610
     0.7719   0.7728   0.7730   0.7760   0.7765   0.7856   0.7987   0.8051
     0.8079   0.8118   0.8122   0.8252   0.8261   0.8364   0.8372   0.8380
     0.8479   0.8563   0.8564   0.8572   0.8673   0.8861   0.8893   0.8894
     0.8900   0.8955   0.9123   0.9160   0.9241   0.9248   0.9258   0.9278
     0.9348   0.9358   0.9366   0.9374   0.9445   0.9821   0.9860   0.9865
     0.9888   0.9889   0.9912   0.9973   1.0022   1.0042   1.0230   1.0245
     1.0260   1.0263   1.0334   1.0337   1.0365   1.0499   1.0507   1.0515
     1.0531   1.0546   1.0553   1.0596   1.0625   1.0628   1.0649   1.0658
     1.0684   1.0751   1.0803   1.0945   1.0951   1.0956   1.1030   1.1031
     1.1057   1.1099   1.1104   1.1126   1.1242   1.1243   1.1388   1.1418
     1.1424   1.1434   1.1451   1.1563   1.1687   1.1715   1.1721   1.1810
     1.1810   1.1893   1.1902   1.1959   1.1971   1.2044   1.2139   1.2183
     1.2234   1.2264   1.2272   1.2499   1.2654   1.2694   1.2727   1.2790
     1.2803   1.2806   1.2872   1.2872   1.2888   1.2893   1.2966   1.3081
     1.3118   1.3119   1.3140   1.3142   1.3322   1.3324   1.3342   1.3346
     1.3360   1.3403   1.3463   1.3484   1.3488   1.3511   1.3525   1.3570
     1.3576   1.3622   1.3627   1.3671   1.3755   1.3830   1.3851   1.3903
     1.3919   1.3921   1.3942   1.3951   1.4144   1.4146   1.4152   1.4246
     1.4272   1.4385   1.4389   1.4451   1.4526   1.4538   1.4566   1.4571
     1.4605   1.4621   1.4621   1.4656   1.4685   1.4695   1.4762   1.4768
     1.4863   1.4988   1.4989   1.5003   1.5021   1.5028   1.5044   1.5049
     1.5175   1.5179   1.5284   1.5303   1.5410   1.5413   1.5467   1.5479
     1.5483   1.5536   1.5639   1.5821   1.5847   1.6173   1.6203   1.6254
     1.6586   1.6600   1.6637   1.7000   1.7199   1.7314   1.7888   1.7957
     1.7965   1.7967   1.8143   1.8356   1.8710   1.9288   2.0425   2.0634
     2.1105   2.1108   2.1265   2.1267   2.2226   2.2296   2.2978   2.3005
     2.5970   2.6011   2.6020   2.6049   3.0071   3.0072   3.0582   3.2263
     3.2266   3.2502   3.2503   3.3212   3.3265   3.5063   3.5284   3.6282
     3.6296   3.6662   3.6666   3.7380   3.7386   3.7556   3.7588   3.7834
     3.9093   3.9121   3.9687   3.9762   4.0171   4.0193   4.1127   4.2312
     4.2454   4.2539   4.3108   4.4415   4.4978   4.5137   4.7035   4.8336
     4.8685   4.8695   5.2181   5.2532   5.2535   5.2654   5.4005   5.4032
     5.4090   5.5095   5.5135   5.5429   5.6127   5.6408   5.6626   5.7459
     5.7572   5.7804   5.7868   5.8837   5.8846   5.9365   5.9446   6.0405
     6.0426   6.1030   6.1040   6.6736   6.7410   6.7424   6.7611   6.7876
     6.8650   6.8729   6.8858   6.9395   7.0351   7.0555   7.0771   7.0893
     7.0902   7.1137   7.3044   7.3066   7.3675   7.3711   7.5677   7.5873
     7.5929   7.6077   7.7231   7.7950   7.8359   7.8461   7.8602   8.0437
     8.0527   8.1025   8.1028   8.2557   8.2876   8.3000   8.3262   8.3602
     8.3617   8.3831   8.3893   8.4570   8.4732   8.4983   8.5141   8.6894
     8.6909   8.9767   8.9950   9.0192   9.0284   9.1040   9.1717   9.2201
     9.2353   9.2575   9.2740   9.2925   9.3014   9.3103   9.3251   9.4672
     9.4686   9.4752   9.4807   9.5512   9.5899   9.6833   9.7267   9.7628
     9.7630   9.8693   9.8784   9.9836  10.0470

          k = 0.2500-0.2165 0.0000 (256316 PWs)   bands (ev):

   -22.7110 -16.0966 -16.0912 -15.3544 -15.3521 -15.1105 -15.1051 -14.3784
   -14.3761 -13.8959 -13.8944 -13.1845 -13.1791 -12.9476 -12.9460 -12.4808
   -12.4785 -11.8041 -11.8020 -11.1822 -11.1807 -10.9250 -10.9229 -10.5422
   -10.5371  -9.4925  -9.4907  -8.9709  -8.9680  -8.8897  -8.8877  -8.3288
    -8.3264  -8.2389  -8.2371  -7.1840  -6.5119  -6.5087  -6.4864  -6.4847
    -6.3701  -6.3652  -6.1419  -6.1389  -5.8060  -5.8052  -5.6803  -5.6798
    -5.0104  -5.0084  -4.7711  -4.7647  -4.6837  -4.6824  -4.6493  -4.6493
    -4.5913  -4.5908  -4.3218  -4.3214  -4.2710  -4.2651  -4.0467  -4.0436
    -3.9990  -3.9981  -3.8342  -3.8252  -3.6629  -3.6577  -3.5369  -3.5214
    -3.4333  -3.4330  -3.4196  -3.4169  -3.3926  -3.3766  -3.1271  -3.0948
    -3.0632  -3.0622  -2.9334  -2.9309  -2.9194  -2.8881  -2.8838  -2.8834
    -2.8463  -2.7618  -2.7365  -2.7328  -2.7313  -2.4449  -2.4430  -2.4126
    -2.3911  -2.2893  -2.2886  -2.2102  -2.2055  -2.1437  -2.1435  -2.1432
    -2.1408  -1.9827  -1.9825  -1.9359  -1.9342  -1.8724  -1.8627  -1.8003
    -1.7971  -1.7880  -1.7877  -1.7847  -1.7829  -1.7196  -1.7174  -1.6953
    -1.6952  -1.6836  -1.6830  -1.6650  -1.6645  -1.6493  -1.6492  -1.6482
    -1.6480  -1.6416  -1.6413  -1.6111  -1.6082  -1.5561  -1.5552  -1.4412
    -1.4411  -1.3327  -1.3315  -1.3241  -1.3235  -1.3015  -1.3012  -1.2496
    -1.2495  -1.2360  -1.2359  -1.2279  -1.2257  -1.2207  -1.2206  -1.2097
    -1.2090  -1.1924  -1.1921  -1.1860  -1.1849  -1.1707  -1.1697  -1.1679
    -1.1676  -1.1609  -1.1595  -1.1037  -1.1018  -1.0996  -1.0984  -1.0863
    -1.0863  -1.0757  -1.0729  -1.0503  -1.0497  -1.0429  -1.0416  -1.0104
    -1.0103  -0.9982  -0.9981  -0.9931  -0.9922  -0.9691  -0.9689  -0.9451
    -0.9430  -0.9330  -0.9329  -0.9269  -0.9264  -0.9192  -0.9189  -0.8946
    -0.8944  -0.8727  -0.8725  -0.8415  -0.8402  -0.8347  -0.8342  -0.7488
    -0.7474  -0.7468  -0.7459  -0.7452  -0.7443  -0.7231  -0.7206  -0.6921
    -0.6916  -0.6833  -0.6832  -0.6794  -0.6792  -0.6670  -0.6653  -0.6644
    -0.6640  -0.6227  -0.6226  -0.6186  -0.6176  -0.5858  -0.5854  -0.5378
    -0.5372  -0.5364  -0.5359  -0.5163  -0.5152  -0.5021  -0.5017  -0.4914
    -0.4903  -0.4717  -0.4707  -0.4587  -0.4584  -0.4251  -0.4248  -0.4190
    -0.4188  -0.4159  -0.4153  -0.3777  -0.3776  -0.3662  -0.3660  -0.3472
    -0.3467  -0.3367  -0.3364  -0.3357  -0.3347  -0.3301  -0.3292  -0.3266
    -0.3263  -0.3203  -0.3199  -0.3047  -0.3033  -0.2879  -0.2876  -0.2851
    -0.2836  -0.2587  -0.2574  -0.2413  -0.2409  -0.2251  -0.2249  -0.2097
    -0.2096  -0.1960  -0.1957  -0.1858  -0.1854  -0.1812  -0.1799  -0.1468
    -0.1464  -0.1222  -0.1221  -0.0848  -0.0846  -0.0762  -0.0761  -0.0739
    -0.0730  -0.0552  -0.0551  -0.0483  -0.0481  -0.0378  -0.0378  -0.0242
    -0.0240  -0.0184  -0.0177  -0.0088  -0.0083  -0.0073  -0.0064   0.0147
     0.0152   0.0248   0.0257   0.0266   0.0280   0.0304   0.0310   0.0316
     0.0318   0.0398   0.0405   0.0636   0.0638   0.0639   0.0641   0.0977
     0.0980   0.1054   0.1058   0.1111   0.1119   0.1302   0.1307   0.1495
     0.1507   0.1658   0.1660   0.1701   0.1717   0.1817   0.1824   0.1859
     0.1862   0.1882   0.1891   0.1997   0.2000   0.2081   0.2082   0.2361
     0.2366   0.3027   0.3028   0.3102   0.3103   0.3140   0.3143   0.3184
     0.3188   0.3199   0.3201   0.3241   0.3251   0.3458   0.3477   0.3522
     0.3531   0.3634   0.3638   0.3651   0.3653   0.3660   0.3662   0.4010
     0.4021   0.4137   0.4145   0.4252   0.4257   0.4371   0.4373   0.4770
     0.4778   0.4836   0.4844   0.4878   0.4880   0.4961   0.4973   0.4994
     0.4997   0.5114   0.5114   0.5135   0.5136   0.5139   0.5148   0.5456
     0.5463   0.5499   0.5501   0.5685   0.5687   0.5976   0.5977   0.5985
     0.5996   0.6327   0.6335   0.6386   0.6392   0.6410   0.6413   0.6471
     0.6473   0.6495   0.6527   0.6580   0.6598   0.6628   0.6642   0.6685
     0.6688   0.6809   0.6820   0.6933   0.6942   0.6992   0.6993   0.7039
     0.7040   0.7147   0.7151   0.7213   0.7214   0.7217   0.7220   0.7396
     0.7400   0.7440   0.7442   0.7489   0.7491   0.7521   0.7533   0.7546
     0.7557   0.7897   0.7898   0.8012   0.8022   0.8216   0.8277   0.8404
     0.8413   0.8548   0.8548   0.8577   0.8579   0.8626   0.8630   0.8857
     0.8862   0.8879   0.8880   0.8891   0.8892   0.9005   0.9009   0.9157
     0.9163   0.9167   0.9176   0.9273   0.9278   0.9374   0.9377   0.9612
     0.9614   0.9868   0.9869   0.9931   0.9940   0.9950   0.9965   0.9978
     0.9979   1.0024   1.0033   1.0322   1.0339   1.0364   1.0370   1.0517
     1.0519   1.0644   1.0652   1.0704   1.0709   1.0984   1.0993   1.1026
     1.1044   1.1130   1.1136   1.1206   1.1206   1.1230   1.1234   1.1235
     1.1241   1.1287   1.1296   1.1389   1.1394   1.1508   1.1513   1.1532
     1.1540   1.1719   1.1720   1.1987   1.1989   1.2054   1.2058   1.2094
     1.2097   1.2115   1.2121   1.2176   1.2192   1.2243   1.2244   1.2307
     1.2312   1.2366   1.2370   1.2374   1.2377   1.2456   1.2472   1.2559
     1.2560   1.2573   1.2577   1.2592   1.2597   1.2731   1.2738   1.2788
     1.2791   1.3041   1.3043   1.3119   1.3123   1.3278   1.3281   1.3319
     1.3328   1.3443   1.3445   1.3560   1.3572   1.3573   1.3582   1.3653
     1.3657   1.3691   1.3708   1.3816   1.3819   1.3824   1.3828   1.3942
     1.3943   1.4082   1.4084   1.4156   1.4158   1.4159   1.4160   1.4193
     1.4198   1.4270   1.4271   1.4389   1.4391   1.4441   1.4443   1.4549
     1.4577   1.4615   1.4623   1.4682   1.4686   1.4713   1.4714   1.4760
     1.4767   1.4779   1.4780   1.4876   1.4877   1.4883   1.4907   1.5128
     1.5128   1.5183   1.5195   1.5353   1.5354   1.5557   1.5563   1.5622
     1.5624   1.5848   1.5852   1.5918   1.5920   1.6163   1.6172   1.6841
     1.6867   1.6910   1.6961   1.7021   1.7029   1.7850   1.7876   1.8039
     1.8062   1.8222   1.8230   1.8242   1.8251   1.8767   1.8822   1.8858
     1.8895   2.1589   2.1594   2.1930   2.1931   2.3233   2.3235   2.6158
     2.6159   2.8186   2.8194   2.8260   2.8262   2.8392   2.8395   2.8787
     2.8804   3.0172   3.0175   3.1236   3.1243   3.5757   3.5762   3.6525
     3.6539   3.7262   3.7290   3.8715   3.8730   3.8816   3.8821   3.9777
     3.9795   4.0307   4.0313   4.0919   4.0924   4.1932   4.1938   4.4059
     4.4065   4.4482   4.4551   4.5946   4.5964   4.7005   4.7032   4.7822
     4.7904   4.8565   4.8627   4.9848   4.9850   5.0783   5.0962   5.1993
     5.2046   5.3321   5.3356   5.4822   5.4829   5.4961   5.4966   5.5275
     5.5354   5.7930   5.7935   5.9367   5.9377   5.9842   5.9935   6.1030
     6.1055   6.6286   6.6299   6.6813   6.6873   6.7903   6.7925   6.9085
     6.9126   7.1022   7.1098   7.1329   7.1351   7.1365   7.1410   7.2292
     7.2298   7.2539   7.2545   7.3623   7.3661   7.3833   7.3843   7.4666
     7.4709   7.4751   7.4760   7.7144   7.7186   7.8393   7.8398   7.9194
     7.9271   8.0402   8.0521   8.2261   8.2271   8.2928   8.2944   8.5463
     8.5493   8.6291   8.6300   8.6324   8.6459   8.6941   8.6957   8.7541
     8.7565   8.8450   8.9068   8.9745   8.9769   8.9959   8.9974   9.1866
     9.1872   9.1924   9.2178   9.2181   9.2341   9.2570   9.2587   9.3088
     9.3111   9.3974   9.3989   9.4057   9.4114   9.4610   9.5117   9.5277
     9.5459   9.6687   9.6766  10.0019  10.0106

          k =-0.5000 0.0000 0.0000 (256496 PWs)   bands (ev):

   -22.7110 -15.8173 -15.8134 -15.4479 -15.4469 -15.4455 -15.4410 -14.3495
   -14.3494 -14.3465 -14.3444 -12.5704 -12.5690 -12.5664 -12.5652 -11.9947
   -11.9945 -11.6656 -11.6650 -11.6625 -11.6617 -11.0145 -11.0141 -10.5944
   -10.5907 -10.0187 -10.0182  -9.6164  -9.6126  -8.7756  -8.7750  -8.7747
    -8.7742  -7.2762  -7.2757  -7.2115  -7.2093  -7.2083  -7.2049  -7.1828
    -5.7614  -5.7612  -5.2838  -5.2837  -5.0335  -5.0310  -4.7786  -4.7784
    -4.7761  -4.7760  -4.6155  -4.6139  -4.6136  -4.6111  -4.5917  -4.5910
    -4.5275  -4.5268  -4.5262  -4.5249  -4.4074  -4.4031  -4.2345  -4.2339
    -4.2327  -4.2312  -3.9629  -3.9474  -3.9451  -3.9447  -3.9225  -3.9185
    -3.5206  -3.4951  -3.4936  -3.4932  -3.3941  -3.3941  -3.3937  -3.3936
    -3.2346  -3.2340  -3.2212  -3.2207  -3.2199  -3.2184  -2.9155  -2.7157
    -2.7141  -2.7138  -2.6840  -2.6310  -2.6299  -2.6296  -2.6286  -2.5707
    -2.5659  -2.3651  -2.3647  -2.3622  -2.3266  -2.2681  -2.2676  -2.2645
    -2.2546  -1.8537  -1.8537  -1.8530  -1.8529  -1.8508  -1.8507  -1.7206
    -1.7200  -1.7199  -1.7173  -1.6233  -1.6232  -1.6231  -1.6230  -1.5770
    -1.5766  -1.5750  -1.5747  -1.5097  -1.5072  -1.4731  -1.4722  -1.4585
    -1.4585  -1.3981  -1.3980  -1.3976  -1.3973  -1.3800  -1.3799  -1.3312
    -1.3311  -1.3278  -1.3276  -1.3156  -1.3151  -1.3142  -1.3128  -1.3127
    -1.3118  -1.3086  -1.3084  -1.3040  -1.3024  -1.2628  -1.2628  -1.2612
    -1.2607  -1.2408  -1.2407  -1.2402  -1.2402  -1.1763  -1.1763  -1.1554
    -1.1551  -1.1548  -1.1544  -1.1218  -1.1217  -1.1211  -1.1211  -1.1210
    -1.1206  -1.1205  -1.1199  -1.0790  -1.0790  -1.0780  -1.0779  -1.0594
    -1.0593  -1.0283  -1.0282  -0.9804  -0.9802  -0.9542  -0.9541  -0.9525
    -0.9523  -0.9225  -0.9225  -0.9221  -0.9220  -0.9147  -0.9139  -0.9137
    -0.9136  -0.9028  -0.9025  -0.9004  -0.9002  -0.8727  -0.8726  -0.8602
    -0.8579  -0.8116  -0.8115  -0.8089  -0.8088  -0.7653  -0.7651  -0.6844
    -0.6844  -0.6839  -0.6838  -0.6463  -0.6461  -0.6440  -0.6438  -0.6427
    -0.6426  -0.6305  -0.6303  -0.6253  -0.6229  -0.6018  -0.6016  -0.5995
    -0.5990  -0.5850  -0.5848  -0.5673  -0.5671  -0.5657  -0.5650  -0.4666
    -0.4660  -0.4658  -0.4622  -0.4371  -0.4365  -0.4347  -0.4342  -0.4258
    -0.4256  -0.3750  -0.3748  -0.3744  -0.3741  -0.3739  -0.3731  -0.3724
    -0.3720  -0.3425  -0.3422  -0.3366  -0.3365  -0.3362  -0.3361  -0.2993
    -0.2991  -0.2977  -0.2976  -0.2658  -0.2658  -0.2656  -0.2656  -0.2554
    -0.2554  -0.2217  -0.2217  -0.2201  -0.2200  -0.2017  -0.2011  -0.2010
    -0.1998  -0.1735  -0.1719  -0.1633  -0.1616  -0.1041  -0.1041  -0.1030
    -0.1029  -0.0974  -0.0974  -0.0963  -0.0963  -0.0577  -0.0575  -0.0554
    -0.0552  -0.0223  -0.0221   0.0078   0.0082   0.0101   0.0101   0.0114
     0.0114   0.0117   0.0119   0.0122   0.0124   0.0128   0.0129   0.0738
     0.0751   0.0919   0.0930   0.0977   0.0979   0.0993   0.0995   0.1011
     0.1011   0.1016   0.1016   0.1093   0.1096   0.1113   0.1113   0.1168
     0.1183   0.1243   0.1247   0.1360   0.1360   0.1500   0.1503   0.1511
     0.1511   0.1512   0.1513   0.1592   0.1593   0.1597   0.1597   0.1740
     0.1741   0.1865   0.1865   0.1867   0.1868   0.1901   0.1904   0.2130
     0.2131   0.3151   0.3164   0.3188   0.3190   0.3213   0.3215   0.3278
     0.3305   0.3506   0.3508   0.3522   0.3529   0.3654   0.3656   0.3702
     0.3704   0.3736   0.3739   0.3773   0.3776   0.3820   0.3822   0.3831
     0.3834   0.3851   0.3852   0.3975   0.3976   0.4195   0.4200   0.4206
     0.4211   0.4252   0.4255   0.4260   0.4271   0.4369   0.4372   0.4946
     0.4954   0.5223   0.5224   0.5260   0.5265   0.5370   0.5374   0.5555
     0.5558   0.5589   0.5590   0.5615   0.5616   0.5620   0.5623   0.5665
     0.5667   0.5675   0.5678   0.5690   0.5695   0.5777   0.5779   0.5782
     0.5783   0.6029   0.6030   0.6168   0.6170   0.6382   0.6384   0.6509
     0.6515   0.6555   0.6563   0.6566   0.6571   0.6623   0.6626   0.6633
     0.6634   0.6666   0.6669   0.6831   0.6835   0.6861   0.6861   0.7019
     0.7023   0.7029   0.7033   0.7373   0.7375   0.7385   0.7385   0.7403
     0.7407   0.7585   0.7585   0.7952   0.7955   0.7989   0.7997   0.8006
     0.8013   0.8013   0.8018   0.8489   0.8496   0.8701   0.8703   0.8728
     0.8731   0.8744   0.8744   0.8820   0.8823   0.8847   0.8848   0.8880
     0.8885   0.8985   0.8989   0.9178   0.9180   0.9195   0.9197   0.9377
     0.9379   0.9386   0.9389   0.9401   0.9403   0.9444   0.9452   0.9802
     0.9804   0.9813   0.9816   1.0453   1.0459   1.0459   1.0462   1.0468
     1.0469   1.0796   1.0797   1.0800   1.0801   1.0929   1.0931   1.1003
     1.1004   1.1102   1.1104   1.1262   1.1267   1.1371   1.1389   1.1478
     1.1481   1.1502   1.1506   1.1512   1.1516   1.1567   1.1567   1.1599
     1.1600   1.1686   1.1688   1.1700   1.1700   1.1707   1.1708   1.1747
     1.1749   1.2090   1.2090   1.2104   1.2108   1.2405   1.2406   1.2467
     1.2468   1.2468   1.2471   1.2529   1.2533   1.2648   1.2651   1.2746
     1.2747   1.2752   1.2754   1.2857   1.2860   1.2874   1.2875   1.2961
     1.2962   1.3153   1.3162   1.3199   1.3205   1.3328   1.3330   1.3473
     1.3474   1.3496   1.3497   1.3498   1.3500   1.3533   1.3535   1.3629
     1.3630   1.3635   1.3637   1.3660   1.3661   1.3677   1.3685   1.3755
     1.3757   1.3763   1.3765   1.3768   1.3771   1.3834   1.3835   1.3979
     1.3979   1.4201   1.4205   1.4228   1.4245   1.4256   1.4256   1.4272
     1.4273   1.4437   1.4437   1.4468   1.4468   1.4623   1.4624   1.4697
     1.4698   1.4827   1.4828   1.4831   1.4831   1.5025   1.5026   1.5062
     1.5066   1.5128   1.5129   1.5135   1.5138   1.5157   1.5161   1.5308
     1.5316   1.5330   1.5331   1.5471   1.5472   1.5476   1.5476   1.5594
     1.5598   1.5725   1.5735   1.6130   1.6131   1.6414   1.6414   1.6456
     1.6457   1.6875   1.6904   2.0696   2.0698   2.0701   2.0707   2.2678
     2.2680   2.2959   2.2973   2.3160   2.3161   2.3236   2.3237   2.6614
     2.6620   2.6635   2.6655   2.8643   2.8644   2.8695   2.8700   3.2141
     3.2148   3.2180   3.2189   3.5066   3.5066   3.7989   3.8006   3.8023
     3.8034   3.9549   3.9573   3.9584   3.9595   3.9757   3.9846   4.1027
     4.1044   4.1090   4.1104   4.2423   4.2429   4.5064   4.5184   4.6279
     4.6310   4.8031   4.8035   4.8060   4.8107   4.8553   4.8557   4.9076
     4.9079   5.0497   5.0503   5.0770   5.0778   5.0852   5.0866   5.1133
     5.1135   5.1363   5.1376   5.2343   5.2388   5.2472   5.2508   5.5867
     5.5880   5.5943   5.5957   5.7329   5.7376   5.9690   5.9692   6.0262
     6.0283   6.0387   6.0418   6.0883   6.0893   6.0990   6.1009   6.4933
     6.4942   6.5300   6.5408   6.5695   6.5767   6.5801   6.5830   7.1409
     7.1420   7.1559   7.1578   7.1752   7.1752   7.6330   7.6334   7.6349
     7.6351   7.6362   7.6364   7.6820   7.6825   7.8449   7.8451   7.9301
     7.9310   7.9328   7.9338   8.0995   8.1006   8.1062   8.1078   8.1861
     8.1872   8.1939   8.1944   8.2376   8.3482   8.7216   8.7319   8.7545
     8.8623   8.8723   8.8771   8.8776   8.9328   9.0271   9.0491   9.1223
     9.1257   9.1277   9.1312   9.2941   9.2943   9.5363   9.5369   9.5370
     9.5436   9.5550   9.5555   9.5594   9.5607   9.5732   9.5788   9.5809
     9.5897   9.5913   9.5953   9.7176   9.8168

          k =-0.5000-0.2165 0.0000 (256328 PWs)   bands (ev):

   -22.7110 -15.7261 -15.7258 -15.7235 -15.7152 -14.9879 -14.9874 -14.9856
   -14.9815 -13.5401 -13.5389 -13.5365 -13.5346 -11.9134 -11.9126 -11.9080
   -11.9074 -11.4720 -11.4712 -11.4697 -11.4658 -11.2922 -11.2907 -11.2884
   -11.2873  -9.5930  -9.5925  -9.5897  -9.5890  -8.6307  -8.6287  -8.6229
    -8.6178  -7.8622  -7.8620  -7.8590  -7.8585  -7.1839  -5.7861  -5.7858
    -5.7841  -5.7824  -5.1644  -5.1633  -5.1618  -5.1608  -5.1529  -5.1528
    -5.1525  -5.1522  -4.9356  -4.9355  -4.9246  -4.9193  -4.5923  -4.5910
    -4.2996  -4.2926  -4.2820  -4.2803  -4.1727  -4.1726  -4.1724  -4.1723
    -4.0622  -4.0612  -4.0607  -4.0578  -3.8307  -3.8147  -3.8119  -3.8095
    -3.5140  -3.5129  -3.5121  -3.5111  -3.5106  -3.5089  -3.5084  -3.5059
    -3.4232  -3.4013  -3.3999  -3.3990  -3.0721  -2.9957  -2.9954  -2.9938
    -2.7828  -2.5539  -2.5538  -2.5535  -2.5531  -2.4888  -2.4879  -2.4873
    -2.4777  -2.1873  -2.1868  -2.1853  -2.1842  -2.0664  -2.0661  -2.0661
    -2.0647  -1.9825  -1.9815  -1.9812  -1.9786  -1.8838  -1.8830  -1.8786
    -1.8755  -1.7774  -1.7773  -1.7760  -1.7758  -1.6707  -1.6697  -1.6686
    -1.6605  -1.4674  -1.4673  -1.4671  -1.4671  -1.4470  -1.4468  -1.4455
    -1.4388  -1.4242  -1.4235  -1.4203  -1.4178  -1.4049  -1.4046  -1.4024
    -1.4024  -1.3581  -1.3579  -1.3578  -1.3576  -1.3557  -1.3555  -1.3550
    -1.3546  -1.3309  -1.3308  -1.3306  -1.3304  -1.2799  -1.2794  -1.2789
    -1.2788  -1.2010  -1.2007  -1.1997  -1.1992  -1.1627  -1.1627  -1.1626
    -1.1624  -1.1442  -1.1441  -1.1440  -1.1437  -1.0918  -1.0917  -1.0915
    -1.0914  -1.0862  -1.0861  -1.0861  -1.0861  -1.0532  -1.0531  -1.0529
    -1.0509  -1.0303  -1.0303  -1.0293  -1.0289  -1.0132  -1.0132  -1.0122
    -1.0120  -1.0082  -1.0081  -1.0075  -1.0074  -0.9004  -0.9001  -0.8859
    -0.8829  -0.8532  -0.8531  -0.8523  -0.8521  -0.8260  -0.8259  -0.8255
    -0.8255  -0.7406  -0.7405  -0.7401  -0.7399  -0.7349  -0.7346  -0.7345
    -0.7343  -0.7320  -0.7319  -0.7315  -0.7314  -0.6719  -0.6718  -0.6715
    -0.6713  -0.6597  -0.6594  -0.6582  -0.6581  -0.6386  -0.6385  -0.6374
    -0.6371  -0.5423  -0.5421  -0.5417  -0.5416  -0.5370  -0.5369  -0.5358
    -0.5357  -0.4687  -0.4685  -0.4682  -0.4681  -0.4182  -0.4181  -0.4179
    -0.4177  -0.3974  -0.3973  -0.3970  -0.3967  -0.3703  -0.3703  -0.3688
    -0.3687  -0.3588  -0.3588  -0.3582  -0.3579  -0.3183  -0.3180  -0.3172
    -0.3168  -0.2453  -0.2452  -0.2440  -0.2439  -0.2278  -0.2278  -0.2271
    -0.2270  -0.2103  -0.2102  -0.2095  -0.2095  -0.1265  -0.1262  -0.1261
    -0.1257  -0.1224  -0.1223  -0.1216  -0.1215  -0.1194  -0.1192  -0.1190
    -0.1189  -0.0795  -0.0794  -0.0793  -0.0793  -0.0674  -0.0674  -0.0668
    -0.0668  -0.0650  -0.0649  -0.0647  -0.0647   0.0048   0.0049   0.0059
     0.0062   0.0292   0.0294   0.0301   0.0301   0.0815   0.0819   0.0867
     0.0873   0.1049   0.1052   0.1058   0.1077   0.1150   0.1153   0.1154
     0.1155   0.1202   0.1204   0.1222   0.1224   0.1228   0.1235   0.1246
     0.1248   0.1328   0.1329   0.1346   0.1346   0.1396   0.1397   0.1419
     0.1420   0.1555   0.1555   0.1560   0.1561   0.1843   0.1844   0.1847
     0.1848   0.1937   0.1938   0.1944   0.1945   0.2411   0.2413   0.2421
     0.2422   0.2742   0.2742   0.2743   0.2745   0.3482   0.3501   0.3512
     0.3520   0.3591   0.3604   0.3604   0.3607   0.3747   0.3751   0.3755
     0.3756   0.3901   0.3903   0.3923   0.3925   0.3936   0.3937   0.3960
     0.3970   0.4003   0.4011   0.4021   0.4030   0.4144   0.4152   0.4155
     0.4173   0.4401   0.4402   0.4418   0.4422   0.4873   0.4878   0.4882
     0.4883   0.4905   0.4906   0.4922   0.4927   0.5030   0.5030   0.5035
     0.5037   0.5395   0.5399   0.5411   0.5413   0.5415   0.5418   0.5425
     0.5426   0.5868   0.5870   0.5871   0.5874   0.5986   0.5986   0.5993
     0.5994   0.6057   0.6058   0.6072   0.6075   0.6078   0.6079   0.6083
     0.6087   0.6243   0.6245   0.6250   0.6252   0.6413   0.6415   0.6422
     0.6425   0.7098   0.7103   0.7123   0.7128   0.7138   0.7141   0.7147
     0.7155   0.7253   0.7255   0.7264   0.7266   0.7459   0.7467   0.7501
     0.7510   0.7618   0.7618   0.7627   0.7628   0.7647   0.7649   0.7651
     0.7651   0.8160   0.8161   0.8180   0.8183   0.8441   0.8445   0.8453
     0.8455   0.8722   0.8725   0.8745   0.8752   0.8798   0.8800   0.8805
     0.8806   0.9048   0.9054   0.9073   0.9076   0.9569   0.9571   0.9582
     0.9582   0.9911   0.9912   0.9923   0.9925   1.0444   1.0447   1.0456
     1.0457   1.0604   1.0607   1.0622   1.0628   1.0730   1.0731   1.0738
     1.0742   1.0778   1.0779   1.0783   1.0783   1.0813   1.0813   1.0827
     1.0830   1.1102   1.1105   1.1110   1.1111   1.1143   1.1147   1.1158
     1.1161   1.1188   1.1198   1.1200   1.1215   1.1336   1.1340   1.1350
     1.1352   1.1572   1.1573   1.1578   1.1581   1.1686   1.1691   1.1699
     1.1705   1.1782   1.1783   1.1787   1.1789   1.2269   1.2272   1.2286
     1.2291   1.2292   1.2292   1.2356   1.2356   1.2558   1.2558   1.2558
     1.2559   1.2718   1.2722   1.2764   1.2772   1.2948   1.2952   1.2961
     1.2970   1.3038   1.3040   1.3043   1.3043   1.3126   1.3128   1.3141
     1.3143   1.3208   1.3208   1.3213   1.3214   1.3862   1.3864   1.3871
     1.3871   1.3881   1.3881   1.3888   1.3889   1.3993   1.3993   1.4003
     1.4008   1.4074   1.4076   1.4088   1.4090   1.4159   1.4163   1.4168
     1.4169   1.4217   1.4219   1.4236   1.4237   1.4286   1.4286   1.4293
     1.4293   1.4414   1.4415   1.4430   1.4438   1.4496   1.4498   1.4507
     1.4508   1.4826   1.4827   1.4830   1.4830   1.4977   1.4979   1.4991
     1.4994   1.5135   1.5139   1.5151   1.5156   1.5351   1.5351   1.5352
     1.5355   1.5915   1.5921   1.5935   1.5946   1.6074   1.6075   1.6081
     1.6081   1.6378   1.6385   1.6397   1.6400   1.6474   1.6477   1.6481
     1.6483   1.6500   1.6501   1.6509   1.6520   1.8697   1.8699   1.8703
     1.8705   2.3835   2.3848   2.3876   2.3891   2.5895   2.5896   2.5920
     2.5921   2.8338   2.8338   2.8340   2.8343   3.1358   3.1362   3.1370
     3.1386   3.4830   3.4833   3.4837   3.4838   3.6758   3.6760   3.6784
     3.6786   3.9571   3.9580   3.9597   3.9599   3.9748   3.9798   4.2586
     4.2588   4.2619   4.2626   4.3845   4.3861   4.3940   4.3950   4.6015
     4.6036   4.6048   4.6055   4.6386   4.6387   4.6417   4.6431   4.9436
     4.9449   4.9502   4.9549   5.1131   5.1150   5.1392   5.1425   5.2135
     5.2140   5.2188   5.2190   5.3541   5.3581   5.3820   5.3868   5.4025
     5.4076   5.4089   5.4091   5.7775   5.7788   5.7796   5.7799   5.8016
     5.8033   5.8038   5.8047   5.9476   5.9482   5.9601   5.9718   6.8099
     6.8103   6.8160   6.8161   7.1638   7.1644   7.1673   7.1682   7.1982
     7.1984   7.1996   7.1996   7.3370   7.3390   7.3409   7.3497   7.4035
     7.4035   7.4040   7.4041   7.6699   7.6710   7.6746   7.6761   8.0171
     8.0212   8.0263   8.0269   8.1045   8.1072   8.1114   8.1179   8.2825
     8.2828   8.2898   8.2914   8.3149   8.4104   8.4202   8.5223   8.9388
     8.9390   8.9395   8.9398   8.9562   8.9566   8.9586   8.9694   9.0089
     9.0091   9.0095   9.0098   9.1462   9.1505   9.1606   9.1606   9.3339
     9.3637   9.3696   9.4949   9.5824   9.5831   9.6031   9.6032   9.6342
     9.6352   9.6371   9.6445   9.9050   9.9968

     the Fermi energy is     3.3556 ev

!    total energy              =  -12750.25437595 Ry
     Harris-Foulkes estimate   =  -12750.25437599 Ry
     estimated scf accuracy    <          6.5E-09 Ry

     The total energy is the sum of the following terms:

     one-electron contribution = -107956.36743907 Ry
     hartree contribution      =   55346.42489459 Ry
     xc contribution           =   -4458.00831229 Ry
     ewald contribution        =   44324.11218658 Ry
     Dispersion Correction     =      -3.00327018 Ry
     smearing contrib. (-TS)   =      -3.41243559 Ry

     convergence has been achieved in  44 iterations

     Writing output data file gc.save
 
     init_run     :    192.92s CPU    206.24s WALL (       1 calls)
     electrons    :  23945.59s CPU  25487.65s WALL (       1 calls)

     Called by init_run:
     wfcinit      :    190.05s CPU    202.19s WALL (       1 calls)
     potinit      :      0.94s CPU      1.14s WALL (       1 calls)

     Called by electrons:
     c_bands      :  21789.38s CPU  23170.61s WALL (      44 calls)
     sum_band     :   1752.27s CPU   1849.38s WALL (      44 calls)
     v_of_rho     :      5.68s CPU      7.15s WALL (      45 calls)
     newd         :     15.15s CPU     29.46s WALL (      45 calls)
     mix_rho      :    383.12s CPU    431.25s WALL (      44 calls)

     Called by c_bands:
     init_us_2    :     81.77s CPU     83.21s WALL (     534 calls)
     cegterg      :  21457.69s CPU  22825.29s WALL (     270 calls)

     Called by sum_band:
     sum_band:bec :      4.68s CPU      5.42s WALL (     264 calls)
     addusdens    :     22.06s CPU     34.31s WALL (      44 calls)

     Called by *egterg:
     h_psi        :   7922.60s CPU   8545.56s WALL (    1792 calls)
     s_psi        :   1951.04s CPU   1963.00s WALL (    1792 calls)
     g_psi        :     20.43s CPU     20.45s WALL (    1516 calls)
     cdiaghg      :   5983.49s CPU   6278.95s WALL (    1780 calls)

     Called by h_psi:
     add_vuspsi   :   1954.57s CPU   1968.51s WALL (    1792 calls)

     General routines
     calbec       :   2669.81s CPU   2690.02s WALL (    2056 calls)
     fft          :      4.50s CPU      5.59s WALL (     584 calls)
     ffts         :    167.17s CPU    202.48s WALL (   24101 calls)
     fftw         :   3970.92s CPU   4587.17s WALL ( 1286372 calls)
     davcio       :      0.29s CPU      9.33s WALL (       6 calls)
 
     Parallel routines
     fft_scatter  :   2076.04s CPU   2373.58s WALL ( 1311057 calls)
 
     PWSCF        :     6h42m CPU        7h 8m WALL

 
   This run was terminated on:   1: 7:30   7Sep2017            

=------------------------------------------------------------------------------=
   JOB DONE.
=------------------------------------------------------------------------------=
