mpirun: INFO: switching to OpenMPI runtime version 1.10.2

     Program PWSCF v.5.4.0 starts on 16Sep2017 at 18:24:44 

     This program is part of the open-source Quantum ESPRESSO suite
     for quantum simulation of materials; please cite
         "P. Giannozzi et al., J. Phys.:Condens. Matter 21 395502 (2009);
          URL http://www.quantum-espresso.org", 
     in publications or presentations arising from this work. More details at
     http://www.quantum-espresso.org/quote

     Parallel version (MPI & OpenMP), running on      28 processor cores
     Number of MPI processes:                28
     Threads/MPI process:                     1
     R & G space division:  proc/nbgrp/npool/nimage =      28
     Waiting for input...
     Reading input from standard input
Warning: card &IONS ignored
Warning: card / ignored

     Current dimensions of program PWSCF are:
     Max number of different atomic species (ntypx) = 10
     Max number of k-points (npk) =  40000
     Max angular momentum in pseudopotentials (lmaxx) =  3
     WARNING: atomic wfc #  2 for atom type 4 has zero norm
     WARNING: atomic wfc #  4 for atom type 4 has zero norm
     WARNING: atomic wfc #  5 for atom type 4 has zero norm

     -------------------------------------
     Parameters for Dispersion Correction:
     -------------------------------------
       atom      VdW radius       C_6     

        Cu         2.952        374.666
        C_h        2.744         60.710
        C          2.744         60.710
        O          2.536         24.284
        H          1.892          4.857

     Subspace diagonalization in iterative solution of the eigenvalue problem:
     one sub-group per band group will be used
     scalapack distributed-memory algorithm (size of sub-group:  3*  3 procs)

 
     Parallelization info
     --------------------
     sticks:   dense  smooth     PW     G-vecs:    dense   smooth      PW
     Min         408     408    108                73226    73226    9928
     Max         410     410    109                73231    73231    9931
     Sum       11433   11433   3039              2050409  2050409  278033
 


     bravais-lattice index     =            0
     lattice parameter (alat)  =      13.9425  a.u.
     unit-cell volume          =   21209.0878 (a.u.)^3
     number of atoms/cell      =          139
     number of atomic types    =            5
     number of electrons       =      1242.00
     number of Kohn-Sham states=          745
     kinetic-energy cutoff     =      80.0000  Ry
     charge density cutoff     =     320.0000  Ry
     convergence threshold     =      1.0E-08
     mixing beta               =       0.7000
     number of iterations used =            8  local-TF  mixing
     Exchange-correlation      =  SLA  PW   PBE  PBE ( 1  4  3  4 0 0)

     celldm(1)=  13.942539  celldm(2)=   0.000000  celldm(3)=   0.000000
     celldm(4)=   0.000000  celldm(5)=   0.000000  celldm(6)=   0.000000

     crystal axes: (cart. coord. in units of alat)
               a(1) = (   1.000000   0.000000   0.000000 )  
               a(2) = (   0.000000   2.309401   0.000000 )  
               a(3) = (   0.000000   0.000000   3.388418 )  

     reciprocal axes: (cart. coord. in units 2 pi/alat)
               b(1) = (  1.000000  0.000000  0.000000 )  
               b(2) = (  0.000000  0.433013  0.000000 )  
               b(3) = (  0.000000  0.000000  0.295123 )  


     PseudoPot. # 1 for Cu read from file:
     /home/549/hxw549/Short/pseudopotentials/Cu.pbe-n-van_ak.UPF
     MD5 check sum: 601f7c30f7467666bec936e0661ce3e1
     Pseudo is Ultrasoft + core correction, Zval = 11.0
     Generated by new atomic code, or converted to UPF format
     Using radial grid of  867 points,  6 beta functions with: 
                l(1) =   0
                l(2) =   0
                l(3) =   1
                l(4) =   1
                l(5) =   2
                l(6) =   2
     Q(r) pseudized with  8 coefficients,  rinner =    1.400   1.400   1.400
                                                       1.400   1.400

     PseudoPot. # 2 for C  read from file:
     /home/549/hxw549/Short/pseudopotentials/C.star1s-pbe-mt_gipaw.UPF
     MD5 check sum: ef0cb3dee31bd9e4ba2a832a2c716264
     Pseudo is Norm-conserving, Zval =  5.0
     Generated by new atomic code, or converted to UPF format
     Using radial grid of 1073 points,  1 beta functions with: 
                l(1) =   0

     PseudoPot. # 3 for C  read from file:
     /home/549/hxw549/Short/pseudopotentials/C.pbe-mt_gipaw.UPF
     MD5 check sum: 5ac2f21f2c440b14befe521540822c15
     Pseudo is Norm-conserving, Zval =  4.0
     Generated by new atomic code, or converted to UPF format
     Using radial grid of 1073 points,  1 beta functions with: 
                l(1) =   0

     PseudoPot. # 4 for O  read from file:
     /home/549/hxw549/Short/pseudopotentials/O.pbe-van_gipaw.UPF
     MD5 check sum: 5ce2a047509d4f331db576c963e74b29
     Pseudo is Ultrasoft, Zval =  6.0
     Generated by new atomic code, or converted to UPF format
     Using radial grid of 1095 points,  4 beta functions with: 
                l(1) =   0
                l(2) =   0
                l(3) =   1
                l(4) =   1
     Q(r) pseudized with 0 coefficients 


     PseudoPot. # 5 for H  read from file:
     /home/549/hxw549/Short/pseudopotentials/H.pbe-van_ak.UPF
     MD5 check sum: 077eb6d537518a38cb46c6de387227b7
     Pseudo is Ultrasoft, Zval =  1.0
     Generated by new atomic code, or converted to UPF format
     Using radial grid of  615 points,  1 beta functions with: 
                l(1) =   0
     Q(r) pseudized with  8 coefficients,  rinner =    0.800

     atomic species   valence    mass     pseudopotential
        Cu            11.00    63.54600     Cu( 1.00)
        C_h            5.00    12.01070     C ( 1.00)
        C              4.00    12.01070     C ( 1.00)
        O              6.00    15.99940     O ( 1.00)
        H              1.00     1.00783     H ( 1.00)

     No symmetry found



   Cartesian axes

     site n.     atom                  positions (alat units)
         1           Cu  tau(   1) = (  -0.0010640  -0.0023908   1.0046138  )
         2           Cu  tau(   2) = (   0.2492312   0.2287438   1.0043535  )
         3           Cu  tau(   3) = (   0.4997213  -0.0020557   1.0044178  )
         4           Cu  tau(   4) = (   0.7494458   0.2297361   1.0044330  )
         5           Cu  tau(   5) = (  -0.0003137   0.4611849   1.0049174  )
         6           Cu  tau(   6) = (   0.2493451   0.6933339   1.0051902  )
         7           Cu  tau(   7) = (   0.4989850   0.4609350   1.0047007  )
         8           Cu  tau(   8) = (   0.7493025   0.6926311   1.0049004  )
         9           Cu  tau(   9) = (  -0.0009524   0.9253608   1.0047609  )
        10           Cu  tau(  10) = (   0.2493354   1.1572557   1.0045765  )
        11           Cu  tau(  11) = (   0.4995584   0.9253176   1.0049044  )
        12           Cu  tau(  12) = (   0.7492457   1.1577467   1.0049301  )
        13           Cu  tau(  13) = (  -0.0007607   1.3884523   1.0051980  )
        14           Cu  tau(  14) = (   0.2492853   1.6181647   1.0059253  )
        15           Cu  tau(  15) = (   0.4993115   1.3886309   1.0054232  )
        16           Cu  tau(  16) = (   0.7492725   1.6184104   1.0057216  )
        17           Cu  tau(  17) = (  -0.0005173   1.8474410   1.0056666  )
        18           Cu  tau(  18) = (   0.2493732   2.0771941   1.0049712  )
        19           Cu  tau(  19) = (   0.4991007   1.8472417   1.0058485  )
        20           Cu  tau(  20) = (   0.7492518   2.0762819   1.0054449  )
        21           Cu  tau(  21) = (  -0.0009628   0.2289347   1.2519010  )
        22           Cu  tau(  22) = (   0.2489710  -0.0022349   1.2533118  )
        23           Cu  tau(  23) = (   0.4989967   0.2289318   1.2519859  )
        24           Cu  tau(  24) = (   0.7490469  -0.0016894   1.2526627  )
        25           Cu  tau(  25) = (  -0.0009870   0.6931250   1.2520313  )
        26           Cu  tau(  26) = (   0.2490671   0.4602952   1.2521070  )
        27           Cu  tau(  27) = (   0.4990229   0.6927300   1.2520111  )
        28           Cu  tau(  28) = (   0.7489647   0.4607580   1.2524746  )
        29           Cu  tau(  29) = (  -0.0010398   1.1572051   1.2525916  )
        30           Cu  tau(  30) = (   0.2490028   0.9259700   1.2519533  )
        31           Cu  tau(  31) = (   0.4990907   1.1572486   1.2527904  )
        32           Cu  tau(  32) = (   0.7490506   0.9253261   1.2514892  )
        33           Cu  tau(  33) = (  -0.0010799   1.6180392   1.2552412  )
        34           Cu  tau(  34) = (   0.2490387   1.3874055   1.2537251  )
        35           Cu  tau(  35) = (   0.4990463   1.6181047   1.2558878  )
        36           Cu  tau(  36) = (   0.7489693   1.3879951   1.2542289  )
        37           Cu  tau(  37) = (  -0.0009952   2.0772742   1.2548392  )
        38           Cu  tau(  38) = (   0.2490000   1.8482620   1.2554079  )
        39           Cu  tau(  39) = (   0.4989851   2.0775805   1.2544442  )
        40           Cu  tau(  40) = (   0.7489314   1.8476310   1.2563228  )
        41           Cu  tau(  41) = (  -0.0012033  -0.0009002   1.5028346  )
        42           Cu  tau(  42) = (   0.2488076   0.2280811   1.5019068  )
        43           Cu  tau(  43) = (   0.4983360  -0.0012160   1.5030626  )
        44           Cu  tau(  44) = (   0.7482862   0.2282454   1.5017748  )
        45           Cu  tau(  45) = (  -0.0015433   0.4596013   1.4997607  )
        46           Cu  tau(  46) = (   0.2486489   0.6933466   1.4985181  )
        47           Cu  tau(  47) = (   0.4986141   0.4593638   1.5006040  )
        48           Cu  tau(  48) = (   0.7484418   0.6939650   1.4999225  )
        49           Cu  tau(  49) = (  -0.0015404   0.9257492   1.5004063  )
        50           Cu  tau(  50) = (   0.2484450   1.1571046   1.5030467  )
        51           Cu  tau(  51) = (   0.4986878   0.9253575   1.5000131  )
        52           Cu  tau(  52) = (   0.7486901   1.1560980   1.5017044  )
        53           Cu  tau(  53) = (  -0.0011572   1.3870323   1.5040793  )
        54           Cu  tau(  54) = (   0.2484867   1.6171270   1.5041129  )
        55           Cu  tau(  55) = (   0.4984038   1.3866792   1.5045243  )
        56           Cu  tau(  56) = (   0.7485057   1.6168076   1.5059139  )
        57           Cu  tau(  57) = (  -0.0010914   1.8476653   1.5064678  )
        58           Cu  tau(  58) = (   0.2484724   2.0779001   1.5067307  )
        59           Cu  tau(  59) = (   0.4979889   1.8491510   1.5064335  )
        60           Cu  tau(  60) = (   0.7485533   2.0792749   1.5047190  )
        61           Cu  tau(  61) = (  -0.0019222   0.2289416   1.7514670  )
        62           Cu  tau(  62) = (   0.2486960  -0.0003758   1.7563792  )
        63           Cu  tau(  63) = (   0.4980501   0.2266587   1.7544323  )
        64           Cu  tau(  64) = (   0.7476580  -0.0005336   1.7552543  )
        65           Cu  tau(  65) = (  -0.0024978   0.6919427   1.7449505  )
        66           Cu  tau(  66) = (   0.2489494   0.4620369   1.7451989  )
        67           Cu  tau(  67) = (   0.4986401   0.6929206   1.7462139  )
        68           Cu  tau(  68) = (   0.7471573   0.4612677   1.7462891  )
        69           Cu  tau(  69) = (  -0.0022490   1.1551077   1.7522669  )
        70           Cu  tau(  70) = (   0.2479337   0.9232175   1.7482809  )
        71           Cu  tau(  71) = (   0.4979930   1.1537702   1.7510653  )
        72           Cu  tau(  72) = (   0.7481522   0.9264039   1.7517944  )
        73           Cu  tau(  73) = (  -0.0013438   1.6160444   1.7569223  )
        74           Cu  tau(  74) = (   0.2473888   1.3887366   1.7563479  )
        75           Cu  tau(  75) = (   0.4967195   1.6179955   1.7540683  )
        76           Cu  tau(  76) = (   0.7489944   1.3843056   1.7536950  )
        77           Cu  tau(  77) = (  -0.0014346   2.0803638   1.7543298  )
        78           Cu  tau(  78) = (   0.2477692   1.8439700   1.7574531  )
        79           Cu  tau(  79) = (   0.4973971   2.0816154   1.7572255  )
        80           Cu  tau(  80) = (   0.7477757   1.8484657   1.7520294  )
        81           Cu  tau(  81) = (  -0.0006906   0.0016644   2.0048429  )
        82           Cu  tau(  82) = (   0.2476176   0.2382039   1.9922077  )
        83           Cu  tau(  83) = (   0.4958204  -0.0008510   2.0180479  )
        84           Cu  tau(  84) = (   0.7476787   0.2351869   1.9930299  )
        85           Cu  tau(  85) = (  -0.0033193   0.4642546   1.9916281  )
        86           Cu  tau(  86) = (   0.2481683   0.6899900   1.9920284  )
        87           Cu  tau(  87) = (   0.4986928   0.4639115   1.9938652  )
        88           Cu  tau(  88) = (   0.7471334   0.6917038   1.9924937  )
        89           Cu  tau(  89) = (  -0.0016118   0.9180049   1.9910334  )
        90           Cu  tau(  90) = (   0.2473558   1.1518387   1.9952740  )
        91           Cu  tau(  91) = (   0.4965321   0.9197123   1.9936536  )
        92           Cu  tau(  92) = (   0.7455861   1.1534598   2.0079317  )
        93           Cu  tau(  93) = (  -0.0047623   1.3820067   2.0006047  )
        94           Cu  tau(  94) = (   0.2456251   1.6195374   2.0182367  )
        95           Cu  tau(  95) = (   0.4997626   1.3852378   1.9910704  )
        96           Cu  tau(  96) = (   0.7467821   1.6174470   2.0002908  )
        97           Cu  tau(  97) = (  -0.0069666   1.8498164   2.0011514  )
        98           Cu  tau(  98) = (   0.2462826   2.0740046   2.0003043  )
        99           Cu  tau(  99) = (   0.5007068   1.8487305   2.0023364  )
       100           Cu  tau( 100) = (   0.7483286   2.0781054   2.0000404  )
       101           C   tau( 101) = (   0.0029054   0.0872648   2.3682851  )
       102           C   tau( 102) = (   0.0029640   0.2822904   2.3806890  )
       103           C   tau( 103) = (   0.1695057  -0.0063212   2.3579075  )
       104           C   tau( 104) = (   0.1695706   0.3786582   2.3836558  )
       105           C   tau( 105) = (   0.3353655   0.0874796   2.3551009  )
       106           C   tau( 106) = (   0.3357967   0.2820207   2.3707387  )
       107           C   tau( 107) = (   0.5029335  -0.0056998   2.3294250  )
       108           C   tau( 108) = (   0.5027383   0.3790160   2.3743544  )
       109           C   tau( 109) = (   0.6704159   0.0878548   2.3547576  )
       110           C   tau( 110) = (   0.6699918   0.2824373   2.3703235  )
       111           C   tau( 111) = (   0.8361923  -0.0061260   2.3575369  )
       112           C   tau( 112) = (   0.8366011   0.3789160   2.3834557  )
       113           C   tau( 113) = (   0.0039914   0.6692637   2.3901638  )
       114           C   tau( 114) = (   0.0047886   0.8628183   2.3799876  )
       115           C   tau( 115) = (   0.1700523   0.5725106   2.3894660  )
       116           C   tau( 116) = (   0.1708227   0.9620580   2.3728989  )
       117           C   tau( 117) = (   0.3364157   0.6704142   2.3869740  )
       118           C   tau( 118) = (   0.3366336   0.8645112   2.3824567  )
       119           C   tau( 119) = (   0.5028532   0.5725996   2.3841996  )
       120           C_h tau( 120) = (   0.5032938   0.9615900   2.3764364  )
       121           C   tau( 121) = (   0.6696582   0.6692635   2.3853739  )
       122           C   tau( 122) = (   0.6697515   0.8627502   2.3802298  )
       123           C   tau( 123) = (   0.8368768   0.5727868   2.3885314  )
       124           C   tau( 124) = (   0.8372862   0.9564921   2.3724215  )
       125           C   tau( 125) = (   0.0012861   1.2460736   2.3404574  )
       126           C   tau( 126) = (   0.1696514   1.1576429   2.3549811  )
       127           C   tau( 127) = (   0.3379386   1.2570092   2.3615588  )
       128           C   tau( 128) = (   0.5046058   1.1563742   2.3655392  )
       129           C   tau( 129) = (   0.6721374   1.2425272   2.3358865  )
       130           C   tau( 130) = (   0.8374497   1.1482468   2.3484453  )
       131           H   tau( 131) = (   0.1694449  -0.1543018   2.3509582  )
       132           H   tau( 132) = (   0.5033915  -0.1534829   2.3385532  )
       133           H   tau( 133) = (   0.8366981  -0.1541085   2.3501637  )
       134           H   tau( 134) = (  -0.0054473   1.3935197   2.3405423  )
       135           H   tau( 135) = (   0.6793985   1.3888379   2.3243999  )
       136           C   tau( 136) = (   0.3363181   1.4541569   2.3637881  )
       137           O   tau( 137) = (   0.2171155   1.5576896   2.2915398  )
       138           O   tau( 138) = (   0.4734734   1.5386774   2.4557375  )
       139           H   tau( 139) = (   0.4604717   1.6689179   2.4276426  )

     number of k points=     6  gaussian smearing, width (Ry)=  0.1000
                       cart. coord. in units 2pi/alat
        k(    1) = (   0.0000000   0.0000000   0.0000000), wk =   0.2500000
        k(    2) = (   0.0000000  -0.2165064   0.0000000), wk =   0.2500000
        k(    3) = (   0.2500000   0.0000000   0.0000000), wk =   0.5000000
        k(    4) = (   0.2500000  -0.2165064   0.0000000), wk =   0.5000000
        k(    5) = (  -0.5000000   0.0000000   0.0000000), wk =   0.2500000
        k(    6) = (  -0.5000000  -0.2165064   0.0000000), wk =   0.2500000

     Dense  grid:  2050409 G-vectors     FFT dimensions: (  80, 192, 270)

     Largest allocated arrays     est. size (Mb)     dimensions
        Kohn-Sham Wavefunctions       104.25 Mb     (    9171,  745)
        NL pseudopotentials           259.31 Mb     (    9171, 1853)
        Each V/rho on FFT grid          2.34 Mb     (  153600)
        Each G-vector array             0.56 Mb     (   73230)
        G-vector shells                 0.27 Mb     (   35784)
     Largest temporary arrays     est. size (Mb)     dimensions
        Auxiliary wavefunctions       417.02 Mb     (    9171, 2980)
        Each subspace H/S matrix       15.05 Mb     (     993,  993)
        Each <psi_i|beta_j> matrix     21.06 Mb     (    1853,  745)
        Arrays for rho mixing          18.75 Mb     (  153600,    8)

     Initial potential from superposition of free atoms
     Check: negative starting charge=   -0.002132

     starting charge 1225.31748, renormalised to 1242.00000

     negative rho (up, down):  2.161E-03 0.000E+00
     Starting wfc are 1162 randomized atomic wfcs

     total cpu time spent up to now is      180.9 secs

     Self-consistent Calculation

     iteration #  1     ecut=    80.00 Ry     beta=0.70
     Davidson diagonalization with overlap
     ethr =  1.00E-04,  avg # of iterations = 20.0

     negative rho (up, down):  2.691E+01 0.000E+00

     total cpu time spent up to now is     3278.3 secs

     total energy              =   -8473.54046891 Ry
     Harris-Foulkes estimate   =  -15134.41907222 Ry
     estimated scf accuracy    <  148101.33631953 Ry

     iteration #  2     ecut=    80.00 Ry     beta=0.70
     Davidson diagonalization with overlap
     ethr =  1.00E-02,  avg # of iterations = 14.8

     negative rho (up, down):  1.959E+01 0.000E+00

     total cpu time spent up to now is     4992.4 secs

     total energy              =  -12655.78224708 Ry
     Harris-Foulkes estimate   =  -13224.06906985 Ry
     estimated scf accuracy    <    1722.73068284 Ry

     iteration #  3     ecut=    80.00 Ry     beta=0.70
     Davidson diagonalization with overlap
     ethr =  1.00E-02,  avg # of iterations =  4.5

     negative rho (up, down):  1.708E+01 0.000E+00

     total cpu time spent up to now is     5613.6 secs

     total energy              =  -12731.11092024 Ry
     Harris-Foulkes estimate   =  -12793.08021564 Ry
     estimated scf accuracy    <    1320.79270323 Ry

     iteration #  4     ecut=    80.00 Ry     beta=0.70
     Davidson diagonalization with overlap
     ethr =  1.00E-02,  avg # of iterations =  4.2

     negative rho (up, down):  1.478E+01 0.000E+00

     total cpu time spent up to now is     6003.6 secs

     total energy              =  -12703.23425806 Ry
     Harris-Foulkes estimate   =  -12755.97563964 Ry
     estimated scf accuracy    <     906.09863414 Ry

     iteration #  5     ecut=    80.00 Ry     beta=0.70
     Davidson diagonalization with overlap
     ethr =  1.00E-02,  avg # of iterations =  4.5

     negative rho (up, down):  9.723E+00 0.000E+00

     total cpu time spent up to now is     6439.3 secs

     total energy              =  -12679.36495644 Ry
     Harris-Foulkes estimate   =  -12742.65987784 Ry
     estimated scf accuracy    <     599.88196765 Ry

     iteration #  6     ecut=    80.00 Ry     beta=0.70
     Davidson diagonalization with overlap
     ethr =  1.00E-02,  avg # of iterations =  4.8

     negative rho (up, down):  7.552E+00 0.000E+00

     total cpu time spent up to now is     6879.8 secs

     total energy              =  -12683.04709390 Ry
     Harris-Foulkes estimate   =  -12735.82249088 Ry
     estimated scf accuracy    <     613.21336866 Ry

     iteration #  7     ecut=    80.00 Ry     beta=0.70
     Davidson diagonalization with overlap
     ethr =  1.00E-02,  avg # of iterations =  3.0

     negative rho (up, down):  6.741E+00 0.000E+00

     total cpu time spent up to now is     7250.5 secs

     total energy              =  -12683.14752606 Ry
     Harris-Foulkes estimate   =  -12706.66480633 Ry
     estimated scf accuracy    <     415.16516052 Ry

     iteration #  8     ecut=    80.00 Ry     beta=0.70
     Davidson diagonalization with overlap
     ethr =  1.00E-02,  avg # of iterations =  1.5

     negative rho (up, down):  5.889E+00 0.000E+00

     total cpu time spent up to now is     7567.1 secs

     total energy              =  -12672.87379114 Ry
     Harris-Foulkes estimate   =  -12688.15858942 Ry
     estimated scf accuracy    <     299.74410583 Ry

     iteration #  9     ecut=    80.00 Ry     beta=0.70
     Davidson diagonalization with overlap
     ethr =  1.00E-02,  avg # of iterations =  1.0

     negative rho (up, down):  1.607E+00 0.000E+00

     total cpu time spent up to now is     7874.4 secs

     total energy              =  -12624.04103157 Ry
     Harris-Foulkes estimate   =  -12674.11676263 Ry
     estimated scf accuracy    <     217.94911023 Ry

     iteration # 10     ecut=    80.00 Ry     beta=0.70
     Davidson diagonalization with overlap
     ethr =  1.00E-02,  avg # of iterations =  2.0

     negative rho (up, down):  1.978E+00 0.000E+00

     total cpu time spent up to now is     8213.2 secs

     total energy              =  -12662.73196649 Ry
     Harris-Foulkes estimate   =  -12645.62389510 Ry
     estimated scf accuracy    <     814.14376705 Ry

     iteration # 11     ecut=    80.00 Ry     beta=0.70
     Davidson diagonalization with overlap
     ethr =  1.00E-02,  avg # of iterations =  3.2

     negative rho (up, down):  2.118E+00 0.000E+00

     total cpu time spent up to now is     8568.0 secs

     total energy              =  -12665.96341479 Ry
     Harris-Foulkes estimate   =  -12678.69488477 Ry
     estimated scf accuracy    <    2134.28997732 Ry

     iteration # 12     ecut=    80.00 Ry     beta=0.70
     Davidson diagonalization with overlap
     ethr =  1.00E-02,  avg # of iterations =  1.3

     negative rho (up, down):  1.132E+00 0.000E+00

     total cpu time spent up to now is     8883.7 secs

     total energy              =  -12626.81904057 Ry
     Harris-Foulkes estimate   =  -12667.45014223 Ry
     estimated scf accuracy    <    1772.93904100 Ry

     iteration # 13     ecut=    80.00 Ry     beta=0.70
     Davidson diagonalization with overlap
     ethr =  1.00E-02,  avg # of iterations =  3.0

     negative rho (up, down):  1.123E+00 0.000E+00

     total cpu time spent up to now is     9239.4 secs

     total energy              =  -12650.84131158 Ry
     Harris-Foulkes estimate   =  -12655.80751087 Ry
     estimated scf accuracy    <     940.08981978 Ry

     iteration # 14     ecut=    80.00 Ry     beta=0.70
     Davidson diagonalization with overlap
     ethr =  1.00E-02,  avg # of iterations =  3.0

     negative rho (up, down):  9.814E-01 0.000E+00

     total cpu time spent up to now is     9596.0 secs

     total energy              =  -12653.20966834 Ry
     Harris-Foulkes estimate   =  -12659.05329452 Ry
     estimated scf accuracy    <     724.47231867 Ry

     iteration # 15     ecut=    80.00 Ry     beta=0.70
     Davidson diagonalization with overlap
     ethr =  1.00E-02,  avg # of iterations =  2.3

     negative rho (up, down):  1.100E+00 0.000E+00

     total cpu time spent up to now is     9932.7 secs

     total energy              =  -12647.54890658 Ry
     Harris-Foulkes estimate   =  -12657.36893558 Ry
     estimated scf accuracy    <     513.10807910 Ry

     iteration # 16     ecut=    80.00 Ry     beta=0.70
     Davidson diagonalization with overlap
     ethr =  1.00E-02,  avg # of iterations =  2.0

     negative rho (up, down):  1.598E+00 0.000E+00

     total cpu time spent up to now is    10269.9 secs

     total energy              =  -12653.32742457 Ry
     Harris-Foulkes estimate   =  -12661.42654936 Ry
     estimated scf accuracy    <     401.90609023 Ry

     iteration # 17     ecut=    80.00 Ry     beta=0.70
     Davidson diagonalization with overlap
     ethr =  1.00E-02,  avg # of iterations =  1.5

     negative rho (up, down):  1.556E+00 0.000E+00

     total cpu time spent up to now is    10590.9 secs

     total energy              =  -12641.94437363 Ry
     Harris-Foulkes estimate   =  -12656.19458496 Ry
     estimated scf accuracy    <     410.70904879 Ry

     iteration # 18     ecut=    80.00 Ry     beta=0.70
     Davidson diagonalization with overlap
     ethr =  1.00E-02,  avg # of iterations =  1.0

     negative rho (up, down):  4.940E-01 0.000E+00

     total cpu time spent up to now is    10902.3 secs

     total energy              =  -12539.57953495 Ry
     Harris-Foulkes estimate   =  -12647.16950370 Ry
     estimated scf accuracy    <     437.40623168 Ry

     iteration # 19     ecut=    80.00 Ry     beta=0.70
     Davidson diagonalization with overlap
     ethr =  1.00E-02,  avg # of iterations =  3.0

     negative rho (up, down):  3.194E+00 0.000E+00

     total cpu time spent up to now is    11360.5 secs

     total energy              =  -12604.18425499 Ry
     Harris-Foulkes estimate   =  -12658.74327846 Ry
     estimated scf accuracy    <     507.49413766 Ry

     iteration # 20     ecut=    80.00 Ry     beta=0.70
     Davidson diagonalization with overlap
     ethr =  1.00E-02,  avg # of iterations =  3.0

     negative rho (up, down):  1.602E+00 0.000E+00

     total cpu time spent up to now is    11719.3 secs

     total energy              =  -12606.33974805 Ry
     Harris-Foulkes estimate   =  -12625.73377449 Ry
     estimated scf accuracy    <     269.57572564 Ry

     iteration # 21     ecut=    80.00 Ry     beta=0.70
     Davidson diagonalization with overlap
     ethr =  1.00E-02,  avg # of iterations =  1.0

     negative rho (up, down):  1.794E-01 0.000E+00

     total cpu time spent up to now is    12027.2 secs

     total energy              =  -12590.55281791 Ry
     Harris-Foulkes estimate   =  -12609.60999417 Ry
     estimated scf accuracy    <     104.64632481 Ry

     iteration # 22     ecut=    80.00 Ry     beta=0.70
     Davidson diagonalization with overlap
     ethr =  8.43E-03,  avg # of iterations =  3.5

     negative rho (up, down):  1.948E-01 0.000E+00

     total cpu time spent up to now is    12389.8 secs

     total energy              =  -12590.63627906 Ry
     Harris-Foulkes estimate   =  -12598.52081315 Ry
     estimated scf accuracy    <      53.88358713 Ry

     iteration # 23     ecut=    80.00 Ry     beta=0.70
     Davidson diagonalization with overlap
     ethr =  4.34E-03,  avg # of iterations =  2.3

     negative rho (up, down):  6.760E-01 0.000E+00

     total cpu time spent up to now is    12726.0 secs

     total energy              =  -12587.20161756 Ry
     Harris-Foulkes estimate   =  -12594.80314119 Ry
     estimated scf accuracy    <      80.98231118 Ry

     iteration # 24     ecut=    80.00 Ry     beta=0.70
     Davidson diagonalization with overlap
     ethr =  4.34E-03,  avg # of iterations =  2.5

     negative rho (up, down):  7.167E-01 0.000E+00

     total cpu time spent up to now is    13067.2 secs

     total energy              =  -12584.59927839 Ry
     Harris-Foulkes estimate   =  -12596.68513611 Ry
     estimated scf accuracy    <     261.01753624 Ry

     iteration # 25     ecut=    80.00 Ry     beta=0.70
     Davidson diagonalization with overlap
     ethr =  4.34E-03,  avg # of iterations =  1.0

     negative rho (up, down):  7.671E-01 0.000E+00

     total cpu time spent up to now is    13379.6 secs

     total energy              =  -12588.32932384 Ry
     Harris-Foulkes estimate   =  -12590.47225815 Ry
     estimated scf accuracy    <      19.07999225 Ry

     iteration # 26     ecut=    80.00 Ry     beta=0.70
     Davidson diagonalization with overlap
     ethr =  1.54E-03,  avg # of iterations =  5.8

     negative rho (up, down):  9.768E-01 0.000E+00

     total cpu time spent up to now is    13781.9 secs

     total energy              =  -12588.51557541 Ry
     Harris-Foulkes estimate   =  -12589.71551810 Ry
     estimated scf accuracy    <      11.09704921 Ry

     iteration # 27     ecut=    80.00 Ry     beta=0.70
     Davidson diagonalization with overlap
     ethr =  8.93E-04,  avg # of iterations =  4.5

     negative rho (up, down):  1.401E+00 0.000E+00

     total cpu time spent up to now is    14158.0 secs

     total energy              =  -12587.48863608 Ry
     Harris-Foulkes estimate   =  -12588.67079153 Ry
     estimated scf accuracy    <       8.74258131 Ry

     iteration # 28     ecut=    80.00 Ry     beta=0.70
     Davidson diagonalization with overlap
     ethr =  7.04E-04,  avg # of iterations =  6.5

     negative rho (up, down):  1.984E+00 0.000E+00

     total cpu time spent up to now is    14582.2 secs

     total energy              =  -12586.41999661 Ry
     Harris-Foulkes estimate   =  -12587.70194259 Ry
     estimated scf accuracy    <       7.14688604 Ry

     iteration # 29     ecut=    80.00 Ry     beta=0.70
     Davidson diagonalization with overlap
     ethr =  5.75E-04,  avg # of iterations =  4.8

     negative rho (up, down):  1.319E+00 0.000E+00

     total cpu time spent up to now is    14976.4 secs

     total energy              =  -12585.58073700 Ry
     Harris-Foulkes estimate   =  -12586.70952592 Ry
     estimated scf accuracy    <       4.80577334 Ry

     iteration # 30     ecut=    80.00 Ry     beta=0.70
     Davidson diagonalization with overlap
     ethr =  3.87E-04,  avg # of iterations =  6.2

     negative rho (up, down):  1.067E+00 0.000E+00

     total cpu time spent up to now is    15387.8 secs

     total energy              =  -12584.77084922 Ry
     Harris-Foulkes estimate   =  -12585.89821277 Ry
     estimated scf accuracy    <       9.56998358 Ry

     iteration # 31     ecut=    80.00 Ry     beta=0.70
     Davidson diagonalization with overlap
     ethr =  3.87E-04,  avg # of iterations =  2.5

     negative rho (up, down):  1.117E+00 0.000E+00

     total cpu time spent up to now is    15727.7 secs

     total energy              =  -12584.61690812 Ry
     Harris-Foulkes estimate   =  -12585.21818314 Ry
     estimated scf accuracy    <       4.00200948 Ry

     iteration # 32     ecut=    80.00 Ry     beta=0.70
     Davidson diagonalization with overlap
     ethr =  3.22E-04,  avg # of iterations =  4.3

     negative rho (up, down):  1.069E+00 0.000E+00

     total cpu time spent up to now is    16102.4 secs

     total energy              =  -12584.72287381 Ry
     Harris-Foulkes estimate   =  -12584.82718587 Ry
     estimated scf accuracy    <       6.49784832 Ry

     iteration # 33     ecut=    80.00 Ry     beta=0.70
     Davidson diagonalization with overlap
     ethr =  3.22E-04,  avg # of iterations =  3.0

     negative rho (up, down):  1.270E+00 0.000E+00

     total cpu time spent up to now is    16449.9 secs

     total energy              =  -12584.75050338 Ry
     Harris-Foulkes estimate   =  -12584.94114644 Ry
     estimated scf accuracy    <       3.99672788 Ry

     iteration # 34     ecut=    80.00 Ry     beta=0.70
     Davidson diagonalization with overlap
     ethr =  3.22E-04,  avg # of iterations =  3.0

     negative rho (up, down):  2.805E-01 0.000E+00

     total cpu time spent up to now is    16799.0 secs

     total energy              =  -12584.09097364 Ry
     Harris-Foulkes estimate   =  -12584.96758347 Ry
     estimated scf accuracy    <       3.20836671 Ry

     iteration # 35     ecut=    80.00 Ry     beta=0.70
     Davidson diagonalization with overlap
     ethr =  2.58E-04,  avg # of iterations = 11.0

     negative rho (up, down):  5.494E-01 0.000E+00

     total cpu time spent up to now is    17308.1 secs

     total energy              =  -12583.84370808 Ry
     Harris-Foulkes estimate   =  -12584.33642385 Ry
     estimated scf accuracy    <       3.72305443 Ry

     iteration # 36     ecut=    80.00 Ry     beta=0.70
     Davidson diagonalization with overlap
     ethr =  2.58E-04,  avg # of iterations =  6.7

     negative rho (up, down):  5.895E-01 0.000E+00

     total cpu time spent up to now is    17745.2 secs

     total energy              =  -12583.81229212 Ry
     Harris-Foulkes estimate   =  -12584.00006306 Ry
     estimated scf accuracy    <       3.28784876 Ry

     iteration # 37     ecut=    80.00 Ry     beta=0.70
     Davidson diagonalization with overlap
     ethr =  2.58E-04,  avg # of iterations =  6.0

     negative rho (up, down):  5.205E-01 0.000E+00

     total cpu time spent up to now is    18163.9 secs

     total energy              =  -12583.75829733 Ry
     Harris-Foulkes estimate   =  -12583.87011366 Ry
     estimated scf accuracy    <       1.53428861 Ry

     iteration # 38     ecut=    80.00 Ry     beta=0.70
     Davidson diagonalization with overlap
     ethr =  1.24E-04,  avg # of iterations =  5.0

     negative rho (up, down):  4.950E-01 0.000E+00

     total cpu time spent up to now is    18553.8 secs

     total energy              =  -12583.77630171 Ry
     Harris-Foulkes estimate   =  -12583.80463450 Ry
     estimated scf accuracy    <       0.46596236 Ry

     iteration # 39     ecut=    80.00 Ry     beta=0.70
     Davidson diagonalization with overlap
     ethr =  3.75E-05,  avg # of iterations =  8.3

     negative rho (up, down):  3.017E-01 0.000E+00

     total cpu time spent up to now is    19013.1 secs

     total energy              =  -12583.76147054 Ry
     Harris-Foulkes estimate   =  -12583.78675913 Ry
     estimated scf accuracy    <       0.19122535 Ry

     iteration # 40     ecut=    80.00 Ry     beta=0.70
     Davidson diagonalization with overlap
     ethr =  1.54E-05,  avg # of iterations =  8.8

     negative rho (up, down):  2.651E-01 0.000E+00

     total cpu time spent up to now is    19498.2 secs

     total energy              =  -12583.75805549 Ry
     Harris-Foulkes estimate   =  -12583.76677735 Ry
     estimated scf accuracy    <       0.06965662 Ry

     iteration # 41     ecut=    80.00 Ry     beta=0.70
     Davidson diagonalization with overlap
     ethr =  5.61E-06,  avg # of iterations = 11.5

     negative rho (up, down):  1.089E-01 0.000E+00

     total cpu time spent up to now is    20065.5 secs

     total energy              =  -12583.75258225 Ry
     Harris-Foulkes estimate   =  -12583.76118196 Ry
     estimated scf accuracy    <       0.02445591 Ry

     iteration # 42     ecut=    80.00 Ry     beta=0.70
     Davidson diagonalization with overlap
     c_bands:  2 eigenvalues not converged
     ethr =  1.97E-06,  avg # of iterations = 16.8

     negative rho (up, down):  8.590E-02 0.000E+00

     total cpu time spent up to now is    20800.3 secs

     total energy              =  -12583.75262680 Ry
     Harris-Foulkes estimate   =  -12583.75443834 Ry
     estimated scf accuracy    <       0.00975998 Ry

     iteration # 43     ecut=    80.00 Ry     beta=0.70
     Davidson diagonalization with overlap
     ethr =  7.86E-07,  avg # of iterations =  8.7

     negative rho (up, down):  3.790E-02 0.000E+00

     total cpu time spent up to now is    21271.8 secs

     total energy              =  -12583.75183447 Ry
     Harris-Foulkes estimate   =  -12583.75331701 Ry
     estimated scf accuracy    <       0.00416539 Ry

     iteration # 44     ecut=    80.00 Ry     beta=0.70
     Davidson diagonalization with overlap
     ethr =  3.35E-07,  avg # of iterations = 11.7

     negative rho (up, down):  1.881E-02 0.000E+00

     total cpu time spent up to now is    21854.6 secs

     total energy              =  -12583.75173330 Ry
     Harris-Foulkes estimate   =  -12583.75209898 Ry
     estimated scf accuracy    <       0.00117448 Ry

     iteration # 45     ecut=    80.00 Ry     beta=0.70
     Davidson diagonalization with overlap
     ethr =  9.46E-08,  avg # of iterations =  8.5

     negative rho (up, down):  7.307E-03 0.000E+00

     total cpu time spent up to now is    22353.6 secs

     total energy              =  -12583.75170071 Ry
     Harris-Foulkes estimate   =  -12583.75181315 Ry
     estimated scf accuracy    <       0.00026450 Ry

     iteration # 46     ecut=    80.00 Ry     beta=0.70
     Davidson diagonalization with overlap
     c_bands:  1 eigenvalues not converged
     ethr =  2.13E-08,  avg # of iterations = 14.2

     negative rho (up, down):  3.807E-03 0.000E+00

     total cpu time spent up to now is    22972.2 secs

     total energy              =  -12583.75171613 Ry
     Harris-Foulkes estimate   =  -12583.75171870 Ry
     estimated scf accuracy    <       0.00013176 Ry

     iteration # 47     ecut=    80.00 Ry     beta=0.70
     Davidson diagonalization with overlap
     ethr =  1.06E-08,  avg # of iterations = 11.2

     negative rho (up, down):  4.539E-03 0.000E+00

     total cpu time spent up to now is    23521.7 secs

     total energy              =  -12583.75178053 Ry
     Harris-Foulkes estimate   =  -12583.75172841 Ry
     estimated scf accuracy    <       0.00006691 Ry

     iteration # 48     ecut=    80.00 Ry     beta=0.70
     Davidson diagonalization with overlap
     ethr =  5.39E-09,  avg # of iterations =  8.2

     negative rho (up, down):  3.342E-03 0.000E+00

     total cpu time spent up to now is    24023.3 secs

     total energy              =  -12583.75177079 Ry
     Harris-Foulkes estimate   =  -12583.75178863 Ry
     estimated scf accuracy    <       0.00001863 Ry

     iteration # 49     ecut=    80.00 Ry     beta=0.70
     Davidson diagonalization with overlap
     ethr =  1.50E-09,  avg # of iterations =  6.3

     negative rho (up, down):  3.177E-03 0.000E+00

     total cpu time spent up to now is    24446.6 secs

     total energy              =  -12583.75176917 Ry
     Harris-Foulkes estimate   =  -12583.75177247 Ry
     estimated scf accuracy    <       0.00000514 Ry

     iteration # 50     ecut=    80.00 Ry     beta=0.70
     Davidson diagonalization with overlap
     ethr =  4.14E-10,  avg # of iterations =  4.3

     negative rho (up, down):  2.549E-03 0.000E+00

     total cpu time spent up to now is    24841.7 secs

     total energy              =  -12583.75176476 Ry
     Harris-Foulkes estimate   =  -12583.75176965 Ry
     estimated scf accuracy    <       0.00000247 Ry

     iteration # 51     ecut=    80.00 Ry     beta=0.70
     Davidson diagonalization with overlap
     ethr =  1.99E-10,  avg # of iterations =  8.0

     negative rho (up, down):  2.478E-03 0.000E+00

     total cpu time spent up to now is    25342.6 secs

     total energy              =  -12583.75176479 Ry
     Harris-Foulkes estimate   =  -12583.75176516 Ry
     estimated scf accuracy    <       0.00000167 Ry

     iteration # 52     ecut=    80.00 Ry     beta=0.70
     Davidson diagonalization with overlap
     ethr =  1.35E-10,  avg # of iterations =  2.7

     negative rho (up, down):  2.372E-03 0.000E+00

     total cpu time spent up to now is    25698.6 secs

     total energy              =  -12583.75176500 Ry
     Harris-Foulkes estimate   =  -12583.75176492 Ry
     estimated scf accuracy    <       0.00000043 Ry

     iteration # 53     ecut=    80.00 Ry     beta=0.70
     Davidson diagonalization with overlap
     ethr =  3.43E-11,  avg # of iterations =  2.0

     negative rho (up, down):  2.331E-03 0.000E+00

     total cpu time spent up to now is    26040.2 secs

     total energy              =  -12583.75176524 Ry
     Harris-Foulkes estimate   =  -12583.75176503 Ry
     estimated scf accuracy    <       0.00000013 Ry

     iteration # 54     ecut=    80.00 Ry     beta=0.70
     Davidson diagonalization with overlap
     ethr =  1.03E-11,  avg # of iterations =  3.3

     negative rho (up, down):  2.339E-03 0.000E+00

     total cpu time spent up to now is    26432.2 secs

     total energy              =  -12583.75176523 Ry
     Harris-Foulkes estimate   =  -12583.75176526 Ry
     estimated scf accuracy    <       0.00000011 Ry

     iteration # 55     ecut=    80.00 Ry     beta=0.70
     Davidson diagonalization with overlap
     ethr =  9.05E-12,  avg # of iterations =  1.8

     negative rho (up, down):  2.339E-03 0.000E+00

     total cpu time spent up to now is    26766.6 secs

     total energy              =  -12583.75176528 Ry
     Harris-Foulkes estimate   =  -12583.75176524 Ry
     estimated scf accuracy    <       0.00000003 Ry

     iteration # 56     ecut=    80.00 Ry     beta=0.70
     Davidson diagonalization with overlap
     ethr =  2.53E-12,  avg # of iterations =  3.0

     negative rho (up, down):  2.351E-03 0.000E+00

     total cpu time spent up to now is    27157.1 secs

     total energy              =  -12583.75176528 Ry
     Harris-Foulkes estimate   =  -12583.75176529 Ry
     estimated scf accuracy    <       0.00000001 Ry

     iteration # 57     ecut=    80.00 Ry     beta=0.70
     Davidson diagonalization with overlap
     ethr =  9.04E-13,  avg # of iterations =  2.0

     negative rho (up, down):  2.358E-03 0.000E+00

     total cpu time spent up to now is    27489.9 secs

     End of self-consistent calculation

          k = 0.0000 0.0000 0.0000 (256287 PWs)   bands (ev):

   -20.9625 -18.4659 -17.5896 -16.3618 -15.4093 -15.2349 -14.9839 -14.3758
   -14.2753 -14.1479 -13.3809 -13.3623 -12.8529 -12.2956 -12.2226 -11.2155
   -10.9401 -10.4955  -9.9546  -9.7044  -9.2889  -9.0597  -8.8518  -8.2713
    -7.9579  -7.8441  -7.7364  -7.5598  -7.1257  -6.9310  -6.5458  -6.5067
    -6.3194  -6.1105  -5.9983  -5.9726  -5.9514  -5.8932  -5.7248  -5.6346
    -5.3018  -5.1723  -5.0659  -4.8926  -4.8077  -4.6839  -4.5718  -4.4777
    -4.4579  -4.3031  -4.1702  -3.9045  -3.8985  -3.8685  -3.7766  -3.7149
    -3.6791  -3.6630  -3.5852  -3.5230  -3.5030  -3.4980  -3.4898  -3.4825
    -3.4568  -3.2907  -3.2586  -3.2327  -3.1798  -3.1736  -3.1353  -3.0733
    -3.0480  -2.9794  -2.8603  -2.8282  -2.8196  -2.7743  -2.7175  -2.6914
    -2.6824  -2.6451  -2.6441  -2.6400  -2.6399  -2.5358  -2.5166  -2.5131
    -2.5068  -2.5048  -2.4733  -2.4439  -2.4282  -2.3459  -2.3345  -2.3232
    -2.2662  -2.2366  -2.2299  -2.2212  -2.2068  -2.1683  -2.1584  -2.1555
    -2.1443  -2.1424  -2.1083  -2.0674  -2.0606  -2.0561  -2.0489  -2.0406
    -2.0358  -2.0226  -2.0069  -2.0039  -1.9978  -1.9508  -1.9425  -1.9158
    -1.9031  -1.8877  -1.8716  -1.8434  -1.8131  -1.7915  -1.7781  -1.7671
    -1.7591  -1.7484  -1.7398  -1.7024  -1.7014  -1.6840  -1.6786  -1.6601
    -1.6531  -1.6155  -1.5934  -1.5667  -1.5449  -1.5425  -1.5313  -1.5294
    -1.5276  -1.5225  -1.5194  -1.5162  -1.5138  -1.5121  -1.5044  -1.4971
    -1.4905  -1.4876  -1.4811  -1.4441  -1.4354  -1.4316  -1.4262  -1.4149
    -1.4112  -1.4073  -1.3909  -1.3700  -1.3534  -1.3519  -1.3492  -1.3464
    -1.3449  -1.3431  -1.3415  -1.3393  -1.3389  -1.3378  -1.3371  -1.3322
    -1.3294  -1.3284  -1.3183  -1.3098  -1.2858  -1.2699  -1.2338  -1.1896
    -1.1876  -1.1792  -1.1749  -1.1736  -1.1511  -1.1353  -1.1318  -1.1217
    -1.1183  -1.1066  -1.1016  -1.0967  -1.0906  -1.0814  -1.0795  -1.0559
    -1.0553  -1.0523  -1.0485  -1.0481  -1.0467  -1.0377  -1.0319  -1.0192
    -0.9885  -0.9785  -0.9386  -0.9328  -0.9308  -0.9245  -0.9175  -0.9153
    -0.9129  -0.9036  -0.9012  -0.8962  -0.8947  -0.8930  -0.8927  -0.8899
    -0.8893  -0.8814  -0.8775  -0.8765  -0.8744  -0.8696  -0.8582  -0.8400
    -0.8396  -0.8036  -0.7951  -0.7839  -0.7836  -0.7829  -0.7600  -0.7587
    -0.7569  -0.7510  -0.7506  -0.7442  -0.7414  -0.7356  -0.7331  -0.7315
    -0.7237  -0.7163  -0.7122  -0.7106  -0.7056  -0.7040  -0.7029  -0.7011
    -0.6999  -0.6851  -0.6821  -0.6797  -0.6749  -0.6636  -0.6578  -0.6386
    -0.6186  -0.6143  -0.6074  -0.6055  -0.5935  -0.5849  -0.5764  -0.5711
    -0.5615  -0.5578  -0.5554  -0.5541  -0.5521  -0.5503  -0.5429  -0.5196
    -0.5092  -0.5077  -0.5031  -0.4976  -0.4956  -0.4916  -0.4791  -0.4729
    -0.4664  -0.4649  -0.4617  -0.4598  -0.4523  -0.4474  -0.4456  -0.4426
    -0.4410  -0.4350  -0.4301  -0.4293  -0.4269  -0.4257  -0.4196  -0.4084
    -0.4040  -0.3905  -0.3896  -0.3688  -0.3608  -0.3514  -0.3425  -0.3306
    -0.3058  -0.2931  -0.2888  -0.2631  -0.2599  -0.2598  -0.2560  -0.2548
    -0.2474  -0.2448  -0.2369  -0.2299  -0.2243  -0.2125  -0.2103  -0.2053
    -0.2014  -0.1859  -0.1610  -0.1562  -0.1536  -0.1494  -0.1469  -0.1417
    -0.1328  -0.1218  -0.1164  -0.1129  -0.1079  -0.1036  -0.0938  -0.0734
    -0.0727  -0.0676  -0.0598  -0.0522  -0.0517  -0.0444  -0.0204  -0.0164
    -0.0082  -0.0043  -0.0034   0.0033   0.0056   0.0126   0.0158   0.0195
     0.0204   0.0283   0.0296   0.0364   0.0383   0.0423   0.0451   0.0508
     0.0521   0.0543   0.0570   0.0602   0.0633   0.0765   0.0780   0.0816
     0.1029   0.1033   0.1077   0.1137   0.1163   0.1202   0.1239   0.1362
     0.1508   0.1550   0.1565   0.1585   0.1624   0.1637   0.1645   0.1800
     0.1808   0.1840   0.1927   0.1961   0.1968   0.1991   0.2016   0.2052
     0.2112   0.2136   0.2255   0.2288   0.2353   0.2427   0.2468   0.2499
     0.2534   0.2590   0.2592   0.2622   0.2657   0.2673   0.2719   0.2748
     0.2972   0.3145   0.3147   0.3215   0.3237   0.3252   0.3315   0.3340
     0.3349   0.3602   0.3652   0.3653   0.3755   0.3863   0.3876   0.3955
     0.3990   0.4033   0.4039   0.4068   0.4129   0.4141   0.4231   0.4278
     0.4335   0.4400   0.4404   0.4455   0.4487   0.4538   0.4617   0.4676
     0.4766   0.4845   0.4870   0.4895   0.4943   0.5026   0.5071   0.5098
     0.5133   0.5162   0.5198   0.5220   0.5263   0.5271   0.5356   0.5376
     0.5406   0.5463   0.5503   0.5543   0.5582   0.5636   0.5691   0.5736
     0.5810   0.5877   0.5898   0.5935   0.6024   0.6065   0.6118   0.6163
     0.6190   0.6207   0.6264   0.6268   0.6296   0.6315   0.6403   0.6443
     0.6460   0.6494   0.6607   0.6683   0.6823   0.6875   0.7015   0.7050
     0.7101   0.7123   0.7152   0.7171   0.7201   0.7230   0.7313   0.7332
     0.7349   0.7400   0.7443   0.7447   0.7493   0.7526   0.7569   0.7611
     0.7654   0.7679   0.7689   0.7753   0.7823   0.7840   0.7861   0.7881
     0.7933   0.7946   0.7986   0.8009   0.8051   0.8092   0.8141   0.8172
     0.8198   0.8218   0.8230   0.8237   0.8269   0.8345   0.8376   0.8538
     0.8558   0.8571   0.8606   0.8645   0.8677   0.8749   0.8776   0.8913
     0.8952   0.9004   0.9006   0.9137   0.9167   0.9180   0.9211   0.9217
     0.9257   0.9306   0.9332   0.9376   0.9403   0.9439   0.9474   0.9521
     0.9548   0.9585   0.9589   0.9611   0.9688   0.9695   0.9768   0.9776
     0.9807   0.9842   0.9849   0.9927   0.9947   1.0011   1.0229   1.0321
     1.0418   1.0510   1.0675   1.0687   1.0716   1.0783   1.0865   1.0908
     1.1079   1.1167   1.1213   1.1347   1.1415   1.1481   1.1517   1.1539
     1.1575   1.1692   1.1771   1.3290   1.3900   1.4666   1.5219   1.6069
     1.6411   1.6740   1.7062   1.7103   1.7164   1.7213   1.7317   1.7344
     1.7387   1.7586   1.8091   1.9314   1.9527   1.9673   1.9755   1.9875
     2.0010   2.0051   2.0471   2.2120   2.2398   2.2649   2.3158   2.6847
     2.7518   2.9770   3.0120   3.0810   3.2831   3.3216   3.3551   3.3651
     3.3764   3.3868   3.4353   3.4540   3.4779   3.5029   3.5137   3.5171
     3.5387   3.5425   3.6131   3.6725   3.7337   3.7550   3.8047   3.8705
     4.0371   4.1249   4.2921   4.4027   4.4916   4.7873   4.8025   4.9114
     4.9459   5.1335   5.1758   5.2420   5.3488   5.3689   5.4241   5.4665
     5.7299   5.7805   5.8470   5.8864   5.9373   5.9909   5.9981   6.0718
     6.1265   6.1493   6.2124   6.2671   6.2798   6.3023   6.3318   6.4052
     6.5079   6.5357   6.5883   6.6481   6.6708   6.7860   6.8530   6.8619
     7.0010   7.1123   7.1595   7.2015   7.2178   7.2669   7.2755   7.3012
     7.3870   7.5620   7.6050   7.6590   7.6804   7.7366   7.8106   7.8430
     7.8490   7.8551   7.9121   7.9333   8.0144   8.0615   8.0696   8.1040
     8.1352   8.1795   8.2349   8.2448   8.2598   8.2858   8.3126   8.3336
     8.3589   8.3778   8.4000   8.4139   8.4668   8.5059   8.5913   8.6263
     8.7375   8.7547   8.7760   8.8126   8.8502   8.8926   8.9742   9.0721
     9.1130   9.1681   9.2086   9.2586   9.2881   9.3432   9.3621   9.4744
     9.5184

          k = 0.0000-0.2165 0.0000 (256176 PWs)   bands (ev):

   -20.9625 -18.4659 -17.5896 -16.3618 -15.4093 -15.2349 -14.9839 -14.3758
   -14.2753 -14.1478 -13.3810 -13.3624 -12.8531 -12.2955 -12.2226 -11.2154
   -10.9401 -10.4947  -9.9549  -9.7044  -9.2910  -9.0596  -8.8513  -8.2701
    -7.9578  -7.8440  -7.7349  -7.5602  -7.1251  -6.9308  -6.5459  -6.3914
    -6.3708  -6.3125  -6.1036  -5.9613  -5.8954  -5.7396  -5.6241  -5.3687
    -5.3252  -5.2821  -5.1689  -5.1210  -4.8839  -4.7528  -4.6771  -4.3761
    -4.2773  -4.1929  -4.1470  -3.8301  -3.8224  -3.8051  -3.7795  -3.7761
    -3.7157  -3.6768  -3.6715  -3.6543  -3.5400  -3.5239  -3.5155  -3.4279
    -3.3830  -3.2539  -3.1902  -3.1398  -3.0907  -3.0732  -3.0693  -3.0673
    -3.0597  -3.0357  -2.9719  -2.9274  -2.9056  -2.7686  -2.7540  -2.7419
    -2.7139  -2.6475  -2.6448  -2.6350  -2.6236  -2.6128  -2.5200  -2.4775
    -2.4764  -2.4673  -2.4516  -2.4508  -2.4312  -2.3729  -2.3443  -2.3324
    -2.2829  -2.2586  -2.2416  -2.2389  -2.2319  -2.2307  -2.2130  -2.2058
    -2.1830  -2.1715  -2.1433  -2.1393  -2.1305  -2.1239  -2.0988  -1.9780
    -1.9589  -1.9509  -1.9459  -1.9037  -1.8785  -1.8627  -1.8592  -1.8120
    -1.8099  -1.8022  -1.7937  -1.7711  -1.7698  -1.7659  -1.7643  -1.7596
    -1.7542  -1.7471  -1.7308  -1.7292  -1.7187  -1.7131  -1.7066  -1.7030
    -1.6990  -1.6880  -1.6607  -1.6489  -1.6257  -1.6201  -1.5797  -1.5777
    -1.5441  -1.5408  -1.5392  -1.5365  -1.5226  -1.4944  -1.4916  -1.4860
    -1.4760  -1.4698  -1.4650  -1.4646  -1.4615  -1.4517  -1.4265  -1.4135
    -1.4114  -1.4102  -1.4093  -1.4040  -1.4025  -1.3963  -1.3779  -1.3733
    -1.3483  -1.3270  -1.3260  -1.3161  -1.3118  -1.3065  -1.3024  -1.2919
    -1.2827  -1.2758  -1.2666  -1.2506  -1.2454  -1.2403  -1.2378  -1.2315
    -1.2109  -1.1549  -1.1539  -1.1382  -1.1367  -1.1293  -1.1241  -1.1227
    -1.1017  -1.0992  -1.0934  -1.0925  -1.0918  -1.0888  -1.0712  -1.0666
    -1.0647  -1.0461  -1.0427  -1.0378  -1.0281  -1.0276  -1.0265  -1.0240
    -1.0189  -0.9975  -0.9874  -0.9750  -0.9750  -0.9583  -0.9510  -0.9482
    -0.9431  -0.9413  -0.9358  -0.9345  -0.9201  -0.9143  -0.9076  -0.9057
    -0.8787  -0.8620  -0.8582  -0.8489  -0.8398  -0.8388  -0.8234  -0.8166
    -0.8015  -0.7935  -0.7898  -0.7852  -0.7817  -0.7797  -0.7737  -0.7712
    -0.7564  -0.7530  -0.7477  -0.7449  -0.7385  -0.7356  -0.7349  -0.7340
    -0.7269  -0.7249  -0.7204  -0.7128  -0.6987  -0.6966  -0.6938  -0.6920
    -0.6753  -0.6498  -0.6471  -0.6348  -0.6308  -0.6299  -0.6269  -0.6225
    -0.6140  -0.6125  -0.6077  -0.6004  -0.5936  -0.5881  -0.5853  -0.5791
    -0.5755  -0.5716  -0.5709  -0.5662  -0.5636  -0.5622  -0.5507  -0.5309
    -0.5250  -0.5140  -0.5139  -0.5120  -0.5083  -0.4897  -0.4850  -0.4828
    -0.4780  -0.4714  -0.4677  -0.4651  -0.4624  -0.4518  -0.4422  -0.4364
    -0.4278  -0.4191  -0.4182  -0.4171  -0.4115  -0.4044  -0.3972  -0.3953
    -0.3881  -0.3786  -0.3750  -0.3716  -0.3678  -0.3582  -0.3542  -0.3318
    -0.3196  -0.3172  -0.3100  -0.3086  -0.3025  -0.2947  -0.2890  -0.2874
    -0.2798  -0.2674  -0.2633  -0.2348  -0.2279  -0.2267  -0.2173  -0.2026
    -0.1973  -0.1765  -0.1477  -0.1402  -0.1305  -0.1169  -0.1130  -0.1085
    -0.1068  -0.1026  -0.0862  -0.0755  -0.0697  -0.0614  -0.0566  -0.0544
    -0.0486  -0.0469  -0.0433  -0.0416  -0.0359  -0.0311  -0.0255  -0.0226
    -0.0200  -0.0134  -0.0104  -0.0099   0.0055   0.0115   0.0156   0.0224
     0.0279   0.0324   0.0355   0.0367   0.0434   0.0463   0.0469   0.0481
     0.0550   0.0607   0.0634   0.0649   0.0671   0.0690   0.0797   0.0811
     0.0846   0.0891   0.0913   0.0940   0.0969   0.1005   0.1019   0.1088
     0.1143   0.1217   0.1277   0.1486   0.1565   0.1654   0.1670   0.1688
     0.1707   0.1752   0.1786   0.1839   0.1880   0.1913   0.1915   0.1924
     0.2002   0.2070   0.2199   0.2274   0.2326   0.2376   0.2391   0.2437
     0.2525   0.2545   0.2608   0.2708   0.2732   0.2801   0.2805   0.2819
     0.2860   0.2930   0.2964   0.3210   0.3258   0.3431   0.3488   0.3745
     0.3927   0.3942   0.3956   0.3995   0.4005   0.4054   0.4103   0.4121
     0.4142   0.4202   0.4238   0.4252   0.4262   0.4323   0.4337   0.4396
     0.4434   0.4451   0.4461   0.4559   0.4598   0.4614   0.4665   0.4706
     0.4736   0.4751   0.4763   0.4769   0.4776   0.4809   0.4845   0.4896
     0.4959   0.4988   0.5001   0.5010   0.5032   0.5095   0.5151   0.5189
     0.5208   0.5286   0.5323   0.5333   0.5387   0.5414   0.5443   0.5457
     0.5491   0.5499   0.5538   0.5572   0.5731   0.5887   0.5962   0.6222
     0.6297   0.6349   0.6413   0.6431   0.6490   0.6579   0.6612   0.6683
     0.6765   0.6782   0.6840   0.6877   0.6887   0.6935   0.6956   0.7024
     0.7065   0.7074   0.7091   0.7103   0.7107   0.7139   0.7148   0.7172
     0.7205   0.7233   0.7276   0.7351   0.7368   0.7393   0.7442   0.7456
     0.7520   0.7597   0.7635   0.7742   0.7757   0.7776   0.7796   0.7825
     0.7854   0.7879   0.7912   0.7931   0.8063   0.8071   0.8080   0.8121
     0.8147   0.8193   0.8252   0.8266   0.8290   0.8383   0.8419   0.8460
     0.8481   0.8584   0.8617   0.8653   0.8714   0.8807   0.8878   0.8931
     0.8934   0.8950   0.8976   0.9011   0.9033   0.9086   0.9114   0.9216
     0.9226   0.9270   0.9362   0.9376   0.9392   0.9503   0.9545   0.9587
     0.9590   0.9609   0.9620   0.9622   0.9637   0.9887   0.9916   0.9968
     0.9985   1.0032   1.0113   1.0142   1.0221   1.0243   1.0324   1.0337
     1.0370   1.0403   1.0439   1.0463   1.0592   1.0856   1.1052   1.1132
     1.1223   1.1975   1.2090   1.2251   1.2360   1.2537   1.2630   1.2683
     1.2873   1.2935   1.2937   1.2997   1.3118   1.3281   1.3286   1.3321
     1.3549   1.3577   1.3691   1.4354   1.6799   1.9103   1.9287   1.9553
     1.9608   1.9939   2.0076   2.0763   2.0802   2.0887   2.1066   2.1293
     2.1837   2.2132   2.2152   2.2394   2.3003   2.3188   2.3370   2.4306
     2.4323   2.5752   2.6640   2.6800   2.6801   2.8310   2.9481   3.0167
     3.1017   3.1625   3.1959   3.5561   3.5889   3.6177   3.6435   3.8262
     3.8531   3.8596   3.8737   3.8895   3.9652   4.1312   4.1715   4.2550
     4.3553   4.4092   4.5323   4.5745   4.6118   4.6511   4.7741   4.8573
     4.8667   4.8734   4.8876   4.9315   5.0440   5.0854   5.1710   5.6515
     5.7496   5.7925   5.8594   5.9383   6.0217   6.0613   6.0785   6.0893
     6.1533   6.1834   6.2093   6.2440   6.3158   6.4217   6.4904   6.5325
     6.5611   6.5747   6.5899   6.6338   6.6585   6.6638   6.6701   6.7287
     6.7472   6.7847   6.8768   6.9719   7.0072   7.1322   7.2046   7.2298
     7.2947   7.3494   7.6284   7.6387   7.6992   7.8117   7.8616   7.8804
     7.9052   7.9801   7.9827   8.0366   8.0637   8.1203   8.1873   8.1952
     8.2227   8.2263   8.2471   8.2674   8.2939   8.3233   8.3495   8.3988
     8.4281   8.5340   8.5800   8.6589   8.7146   8.7429   8.8456   8.8524
     8.8772   8.8929   8.9087   8.9335   8.9566   8.9952   8.9982   9.0081
     9.1106   9.1536   9.1622   9.2748   9.2836   9.3016   9.3101   9.3651
     9.3813

          k = 0.2500 0.0000 0.0000 (256240 PWs)   bands (ev):

   -20.9625 -18.4662 -17.5393 -16.2835 -15.8385 -15.2489 -15.0968 -14.2903
   -14.2147 -13.8966 -13.3047 -13.1085 -12.6178 -12.3791 -11.7761 -11.4840
   -11.2474 -10.5059 -10.3481  -9.9402  -9.5773  -9.3958  -8.9544  -8.5256
    -8.0187  -7.8643  -7.4772  -7.2950  -7.0728  -6.4893  -6.4352  -6.3322
    -6.1687  -5.9945  -5.8219  -5.7962  -5.6514  -5.5702  -5.3115  -5.2599
    -5.1448  -4.9926  -4.9570  -4.9384  -4.7625  -4.6954  -4.6244  -4.5026
    -4.4907  -4.4372  -4.4177  -4.3311  -4.3104  -4.2836  -4.1901  -4.1429
    -3.9524  -3.8531  -3.7284  -3.7092  -3.6625  -3.6142  -3.5383  -3.5292
    -3.4711  -3.3957  -3.3369  -3.2922  -3.2789  -3.2359  -3.1934  -3.1027
    -3.0803  -2.9365  -2.8943  -2.8657  -2.8151  -2.7946  -2.6157  -2.5906
    -2.5821  -2.5754  -2.5706  -2.5054  -2.4591  -2.4091  -2.3755  -2.3603
    -2.3304  -2.3154  -2.2948  -2.2932  -2.2886  -2.2822  -2.2796  -2.2718
    -2.2617  -2.2437  -2.2308  -2.1810  -2.1663  -2.1480  -2.1332  -2.1254
    -2.0978  -2.0734  -2.0711  -2.0688  -2.0666  -2.0593  -2.0452  -2.0288
    -1.9968  -1.9917  -1.9863  -1.9826  -1.9612  -1.8888  -1.8607  -1.8272
    -1.8141  -1.8032  -1.7972  -1.7534  -1.7454  -1.7400  -1.7344  -1.7270
    -1.7193  -1.7004  -1.6839  -1.6772  -1.6759  -1.6721  -1.6707  -1.6664
    -1.6390  -1.6319  -1.6275  -1.6229  -1.6125  -1.6061  -1.6007  -1.5951
    -1.5790  -1.5680  -1.5611  -1.5377  -1.5354  -1.5236  -1.5196  -1.5118
    -1.5053  -1.5016  -1.4991  -1.4961  -1.4867  -1.4791  -1.4765  -1.4741
    -1.4706  -1.4674  -1.4664  -1.4649  -1.4611  -1.4533  -1.4421  -1.4335
    -1.4091  -1.3974  -1.3925  -1.3891  -1.3635  -1.3464  -1.3436  -1.3290
    -1.3055  -1.3033  -1.2942  -1.2859  -1.2760  -1.2625  -1.2617  -1.2535
    -1.2486  -1.2435  -1.2409  -1.2350  -1.2249  -1.2182  -1.2062  -1.1540
    -1.1099  -1.1010  -1.0899  -1.0866  -1.0670  -1.0595  -1.0553  -1.0476
    -1.0432  -1.0411  -1.0388  -1.0310  -1.0266  -1.0225  -1.0211  -1.0151
    -0.9895  -0.9818  -0.9790  -0.9774  -0.9734  -0.9640  -0.9534  -0.9519
    -0.9506  -0.9473  -0.9330  -0.8940  -0.8922  -0.8881  -0.8835  -0.8814
    -0.8785  -0.8730  -0.8701  -0.8500  -0.8467  -0.8403  -0.8344  -0.8242
    -0.8231  -0.8162  -0.7866  -0.7852  -0.7836  -0.7828  -0.7777  -0.7713
    -0.7671  -0.7568  -0.7537  -0.7480  -0.7399  -0.7344  -0.7264  -0.7237
    -0.7105  -0.6948  -0.6915  -0.6895  -0.6845  -0.6798  -0.6739  -0.6721
    -0.6691  -0.6441  -0.6431  -0.6348  -0.6299  -0.6235  -0.6139  -0.6062
    -0.6033  -0.5960  -0.5848  -0.5649  -0.5625  -0.5571  -0.5548  -0.5533
    -0.5421  -0.5302  -0.5158  -0.5110  -0.5058  -0.5048  -0.5005  -0.4959
    -0.4935  -0.4887  -0.4870  -0.4835  -0.4823  -0.4800  -0.4764  -0.4751
    -0.4676  -0.4565  -0.4539  -0.4533  -0.4509  -0.4446  -0.4332  -0.4265
    -0.4197  -0.4145  -0.4110  -0.4033  -0.3840  -0.3805  -0.3752  -0.3723
    -0.3684  -0.3604  -0.3540  -0.3515  -0.3451  -0.3394  -0.3280  -0.3204
    -0.3026  -0.2926  -0.2572  -0.2464  -0.2388  -0.2369  -0.2346  -0.2269
    -0.2251  -0.2192  -0.2154  -0.2119  -0.2108  -0.2066  -0.2048  -0.2019
    -0.1984  -0.1962  -0.1895  -0.1849  -0.1808  -0.1798  -0.1699  -0.1643
    -0.1603  -0.1539  -0.1533  -0.1495  -0.1412  -0.1355  -0.1307  -0.1112
    -0.1042  -0.0862  -0.0835  -0.0764  -0.0712  -0.0639  -0.0586  -0.0539
    -0.0436  -0.0393  -0.0236  -0.0186  -0.0169  -0.0136  -0.0098  -0.0065
    -0.0049  -0.0000   0.0033   0.0054   0.0133   0.0197   0.0207   0.0283
     0.0340   0.0376   0.0423   0.0514   0.0548   0.0590   0.0604   0.0649
     0.0705   0.0825   0.0859   0.0922   0.0978   0.1004   0.1039   0.1065
     0.1097   0.1151   0.1168   0.1226   0.1253   0.1364   0.1439   0.1468
     0.1525   0.1570   0.1664   0.1713   0.1756   0.1807   0.1905   0.1928
     0.2062   0.2125   0.2231   0.2334   0.2429   0.2471   0.2490   0.2522
     0.2552   0.2611   0.2701   0.2764   0.2797   0.2838   0.2882   0.2897
     0.2916   0.2978   0.3057   0.3189   0.3222   0.3287   0.3318   0.3367
     0.3444   0.3563   0.3615   0.3655   0.3686   0.3862   0.3886   0.3898
     0.3970   0.3977   0.4000   0.4029   0.4045   0.4096   0.4123   0.4198
     0.4310   0.4413   0.4508   0.4538   0.4605   0.4621   0.4761   0.4795
     0.4841   0.4903   0.4960   0.4976   0.4988   0.5024   0.5081   0.5096
     0.5142   0.5153   0.5189   0.5245   0.5262   0.5281   0.5298   0.5303
     0.5353   0.5379   0.5432   0.5445   0.5475   0.5537   0.5579   0.5644
     0.5683   0.5755   0.5788   0.5796   0.5815   0.5867   0.5916   0.5993
     0.6057   0.6078   0.6135   0.6180   0.6212   0.6224   0.6259   0.6293
     0.6351   0.6378   0.6461   0.6511   0.6530   0.6599   0.6624   0.6695
     0.6756   0.6843   0.6937   0.6979   0.6992   0.7052   0.7105   0.7197
     0.7276   0.7376   0.7438   0.7453   0.7505   0.7562   0.7617   0.7660
     0.7678   0.7690   0.7748   0.7759   0.7840   0.7885   0.7922   0.7963
     0.7994   0.8009   0.8040   0.8062   0.8082   0.8112   0.8148   0.8149
     0.8209   0.8255   0.8281   0.8300   0.8357   0.8397   0.8431   0.8467
     0.8596   0.8606   0.8638   0.8697   0.8710   0.8754   0.8788   0.8873
     0.8914   0.8926   0.8977   0.9020   0.9033   0.9078   0.9130   0.9244
     0.9279   0.9291   0.9308   0.9335   0.9358   0.9383   0.9393   0.9434
     0.9458   0.9489   0.9519   0.9535   0.9634   0.9712   0.9760   0.9801
     0.9810   0.9844   0.9904   0.9919   0.9941   0.9974   0.9991   1.0067
     1.0110   1.0201   1.0242   1.0257   1.0406   1.0483   1.0588   1.0642
     1.0701   1.0889   1.0932   1.1299   1.1334   1.1345   1.1410   1.1707
     1.2156   1.2623   1.2711   1.2775   1.2858   1.3186   1.3338   1.3471
     1.5345   1.5417   1.5752   1.6036   1.6176   1.6440   1.6633   1.7570
     1.8201   1.8911   2.0516   2.0712   2.0805   2.1144   2.3534   2.4816
     2.4901   2.5682   2.6925   2.7091   2.7275   2.7287   2.7613   2.8595
     2.9551   2.9950   3.0939   3.1383   3.1626   3.1847   3.2007   3.2192
     3.2298   3.2649   3.3296   3.3463   3.3881   3.4261   3.5186   3.5333
     3.6751   3.7384   3.7876   3.8433   3.8809   4.2576   4.3093   4.3339
     4.3588   4.4182   4.6383   4.6827   4.7362   4.7666   4.8171   4.9132
     4.9634   5.0034   5.0180   5.0425   5.0715   5.1230   5.1760   5.2364
     5.3198   5.3332   5.4043   5.4867   5.5002   5.5247   5.5329   5.5568
     5.6192   5.7886   6.1161   6.1713   6.2138   6.2555   6.2837   6.3093
     6.3789   6.5014   6.5194   6.5498   6.5662   6.5729   6.6121   6.6872
     6.7181   6.8688   6.9007   6.9698   7.0193   7.0972   7.1289   7.2196
     7.2574   7.3173   7.3527   7.4414   7.4903   7.5603   7.5674   7.5961
     7.6324   7.6945   7.7705   7.8120   7.8325   7.8772   7.8991   7.9857
     8.0112   8.0585   8.0908   8.1417   8.1631   8.3029   8.4440   8.4579
     8.5088   8.5217   8.5344   8.5807   8.6067   8.6563   8.6902   8.7003
     8.7263   8.7419   8.8194   8.8547   8.8889   8.9126   8.9445   8.9652
     9.0216   9.0451   9.1107   9.2032   9.2360   9.2611   9.3448   9.3635
     9.3876

          k = 0.2500-0.2165 0.0000 (256316 PWs)   bands (ev):

   -20.9625 -18.4662 -17.5393 -16.2835 -15.8385 -15.2489 -15.0969 -14.2902
   -14.2147 -13.8966 -13.3047 -13.1085 -12.6180 -12.3791 -11.7761 -11.4840
   -11.2472 -10.5056 -10.3477  -9.9402  -9.5780  -9.3958  -8.9561  -8.5257
    -8.0161  -7.8634  -7.4767  -7.2957  -7.0728  -6.4901  -6.4364  -6.2154
    -6.1988  -6.1579  -5.9841  -5.6632  -5.5735  -5.3111  -5.2570  -5.2071
    -5.1538  -5.1206  -5.0144  -4.9748  -4.8493  -4.8267  -4.7833  -4.6486
    -4.5795  -4.4314  -4.2957  -4.2323  -4.1894  -4.1531  -4.0186  -3.9648
    -3.9464  -3.9362  -3.8522  -3.7240  -3.7100  -3.6346  -3.5458  -3.5154
    -3.4675  -3.4162  -3.3949  -3.3864  -3.3057  -3.2361  -3.1831  -3.1131
    -2.9359  -2.8645  -2.8133  -2.7924  -2.7157  -2.6927  -2.6613  -2.6590
    -2.6576  -2.5981  -2.5619  -2.5129  -2.5000  -2.4920  -2.4767  -2.4115
    -2.3958  -2.3305  -2.3133  -2.3055  -2.3020  -2.2764  -2.2393  -2.2248
    -2.2159  -2.2062  -2.2039  -2.1940  -2.1903  -2.1750  -2.1687  -2.1639
    -2.1579  -2.1547  -2.1534  -2.1395  -2.0925  -2.0760  -2.0659  -1.9858
    -1.9611  -1.9418  -1.8834  -1.8290  -1.8242  -1.8180  -1.8055  -1.7719
    -1.7679  -1.7654  -1.7553  -1.7533  -1.7454  -1.7406  -1.7329  -1.7258
    -1.7217  -1.7170  -1.7138  -1.7086  -1.7024  -1.6942  -1.6862  -1.6807
    -1.6732  -1.6696  -1.6664  -1.6546  -1.6294  -1.6240  -1.6149  -1.6071
    -1.6045  -1.6018  -1.5932  -1.5674  -1.5438  -1.5361  -1.5297  -1.5282
    -1.5263  -1.5143  -1.5057  -1.4958  -1.4888  -1.4868  -1.4818  -1.4575
    -1.4542  -1.4498  -1.4486  -1.4466  -1.4415  -1.4386  -1.4235  -1.4154
    -1.4083  -1.4003  -1.3832  -1.3734  -1.3646  -1.3538  -1.3500  -1.3474
    -1.3153  -1.2810  -1.2753  -1.2715  -1.2617  -1.2557  -1.2541  -1.2337
    -1.2142  -1.2120  -1.2049  -1.2003  -1.1971  -1.1955  -1.1896  -1.1760
    -1.1493  -1.1405  -1.1346  -1.1088  -1.1055  -1.1002  -1.0625  -1.0567
    -1.0553  -1.0527  -1.0479  -1.0300  -1.0270  -1.0236  -1.0106  -1.0009
    -0.9950  -0.9922  -0.9867  -0.9787  -0.9708  -0.9514  -0.9443  -0.9300
    -0.9265  -0.9190  -0.9067  -0.9028  -0.9012  -0.8866  -0.8838  -0.8815
    -0.8748  -0.8637  -0.8612  -0.8551  -0.8536  -0.8515  -0.8461  -0.8433
    -0.8383  -0.8314  -0.8238  -0.8169  -0.8105  -0.8083  -0.7935  -0.7742
    -0.7682  -0.7624  -0.7580  -0.7510  -0.7386  -0.7328  -0.7302  -0.7207
    -0.7132  -0.7097  -0.7039  -0.6983  -0.6873  -0.6774  -0.6472  -0.6435
    -0.6161  -0.6089  -0.6057  -0.6023  -0.5999  -0.5985  -0.5965  -0.5897
    -0.5788  -0.5770  -0.5653  -0.5622  -0.5573  -0.5553  -0.5456  -0.5371
    -0.5349  -0.5316  -0.5270  -0.5256  -0.5189  -0.5137  -0.5071  -0.5032
    -0.4992  -0.4957  -0.4919  -0.4902  -0.4853  -0.4838  -0.4801  -0.4781
    -0.4732  -0.4662  -0.4640  -0.4598  -0.4565  -0.4484  -0.4299  -0.4260
    -0.4210  -0.4156  -0.4141  -0.3974  -0.3924  -0.3861  -0.3642  -0.3607
    -0.3576  -0.3543  -0.3470  -0.3418  -0.3355  -0.3281  -0.3265  -0.3205
    -0.3178  -0.3148  -0.3059  -0.2937  -0.2871  -0.2608  -0.2370  -0.2254
    -0.2239  -0.2208  -0.2173  -0.2139  -0.2099  -0.2060  -0.2004  -0.1928
    -0.1915  -0.1869  -0.1828  -0.1790  -0.1730  -0.1677  -0.1644  -0.1583
    -0.1567  -0.1527  -0.1423  -0.1343  -0.1301  -0.1241  -0.1216  -0.1144
    -0.1079  -0.1013  -0.0918  -0.0882  -0.0825  -0.0686  -0.0605  -0.0491
    -0.0462  -0.0396  -0.0365  -0.0346  -0.0224  -0.0200  -0.0173  -0.0138
    -0.0123  -0.0079  -0.0048   0.0011   0.0114   0.0191   0.0253   0.0309
     0.0381   0.0480   0.0593   0.0702   0.0748   0.0768   0.0835   0.0964
     0.1006   0.1044   0.1092   0.1136   0.1203   0.1243   0.1285   0.1303
     0.1326   0.1430   0.1515   0.1528   0.1544   0.1592   0.1627   0.1665
     0.1724   0.1769   0.1788   0.1813   0.1841   0.1894   0.1955   0.1986
     0.2010   0.2050   0.2056   0.2086   0.2141   0.2172   0.2181   0.2203
     0.2230   0.2307   0.2369   0.2459   0.2568   0.2607   0.2679   0.2719
     0.2765   0.2882   0.2984   0.3185   0.3252   0.3295   0.3310   0.3330
     0.3356   0.3377   0.3391   0.3463   0.3596   0.3621   0.3629   0.3642
     0.3658   0.3680   0.3776   0.3831   0.3909   0.3934   0.4000   0.4044
     0.4067   0.4125   0.4266   0.4333   0.4368   0.4416   0.4459   0.4571
     0.4591   0.4652   0.4715   0.4734   0.4744   0.4775   0.4873   0.4914
     0.4970   0.5100   0.5118   0.5176   0.5250   0.5299   0.5395   0.5438
     0.5536   0.5605   0.5745   0.5791   0.5877   0.5942   0.5951   0.5968
     0.5983   0.5993   0.6006   0.6024   0.6049   0.6087   0.6102   0.6154
     0.6174   0.6247   0.6269   0.6343   0.6368   0.6450   0.6561   0.6647
     0.6676   0.6694   0.6737   0.6782   0.6807   0.6831   0.6858   0.6899
     0.6934   0.6966   0.6997   0.7017   0.7042   0.7083   0.7105   0.7151
     0.7168   0.7229   0.7251   0.7283   0.7308   0.7338   0.7360   0.7383
     0.7476   0.7588   0.7629   0.7662   0.7743   0.7779   0.7810   0.7857
     0.7895   0.7919   0.8011   0.8048   0.8107   0.8169   0.8184   0.8256
     0.8282   0.8314   0.8370   0.8406   0.8432   0.8455   0.8532   0.8547
     0.8592   0.8618   0.8638   0.8670   0.8727   0.8776   0.8816   0.8847
     0.8872   0.8895   0.8922   0.8942   0.9011   0.9027   0.9034   0.9051
     0.9100   0.9140   0.9151   0.9203   0.9253   0.9347   0.9406   0.9444
     0.9463   0.9486   0.9500   0.9509   0.9534   0.9563   0.9615   0.9642
     0.9660   0.9754   0.9858   0.9876   0.9924   1.0015   1.0068   1.0106
     1.0125   1.0226   1.0298   1.0348   1.0379   1.0516   1.0595   1.0613
     1.0671   1.0691   1.0994   1.1060   1.1724   1.1744   1.1873   1.2078
     1.2603   1.2661   1.2691   1.2846   1.2980   1.3130   1.3340   1.3770
     1.4164   1.4529   1.5975   1.6309   1.6524   1.6676   1.7281   1.7892
     1.9192   2.0874   2.0933   2.2493   2.2647   2.2787   2.3018   2.3138
     2.3196   2.3491   2.3696   2.4338   2.4914   2.5399   2.6210   2.6539
     3.0499   3.0814   3.1154   3.1415   3.2271   3.2753   3.3121   3.3515
     3.3611   3.3922   3.4090   3.5032   3.5229   3.5791   3.6369   3.6715
     3.6861   3.8578   3.8856   3.9037   3.9978   4.0372   4.1766   4.1885
     4.2620   4.3417   4.4299   4.4668   4.6487   4.7041   4.7560   4.8141
     4.8641   4.8972   4.9206   4.9590   4.9868   5.0057   5.1232   5.2422
     5.2763   5.3367   5.3957   5.4283   5.4446   5.5325   5.7446   5.9998
     6.0643   6.0932   6.1068   6.1903   6.2675   6.3271   6.3445   6.3965
     6.4666   6.4831   6.5870   6.6235   6.6557   6.6871   6.7111   6.7459
     6.7638   6.8126   6.8513   6.9039   6.9219   6.9490   6.9726   7.0396
     7.1726   7.2348   7.2866   7.3669   7.3860   7.4548   7.5020   7.5913
     7.6932   7.7051   7.7724   7.8254   7.9473   8.0301   8.0665   8.1107
     8.1453   8.1556   8.1646   8.2078   8.2388   8.2642   8.2997   8.3489
     8.3986   8.4259   8.4635   8.4988   8.6007   8.6313   8.6760   8.6938
     8.7194   8.7460   8.7640   8.7756   8.7947   8.8146   8.8817   8.8910
     8.9268   8.9495   9.0211   9.0782   9.1662   9.1757   9.2241   9.2809
     9.3279

          k =-0.5000 0.0000 0.0000 (256496 PWs)   bands (ev):

   -20.9624 -18.4664 -17.4797 -16.2766 -15.8844 -15.6451 -14.9055 -14.6919
   -14.0012 -13.4964 -13.0748 -12.7715 -12.3579 -12.0988 -12.0669 -11.9688
   -11.2276 -10.8109 -10.4664 -10.0334  -9.8233  -9.4891  -8.9879  -8.7269
    -8.6711  -7.9391  -7.6458  -6.6705  -6.4751  -6.2639  -5.9354  -5.8577
    -5.8117  -5.7993  -5.7235  -5.4916  -5.4279  -5.3026  -5.2945  -5.2879
    -5.2409  -5.2119  -5.0839  -5.0651  -4.8885  -4.7672  -4.7090  -4.6493
    -4.5004  -4.4846  -4.4116  -4.3736  -4.2403  -4.1896  -4.1627  -4.0656
    -4.0463  -3.9977  -3.9372  -3.9203  -3.9119  -3.9047  -3.8860  -3.8184
    -3.7523  -3.5740  -3.4591  -3.3126  -3.2610  -3.1472  -3.1377  -3.1212
    -3.0796  -3.0346  -2.9561  -2.8939  -2.8625  -2.8029  -2.7915  -2.7813
    -2.7485  -2.6680  -2.4047  -2.3761  -2.3727  -2.3708  -2.3663  -2.3659
    -2.3645  -2.3167  -2.3133  -2.2359  -2.2318  -2.2188  -2.1505  -2.1432
    -2.1408  -2.1375  -2.1085  -2.0947  -2.0929  -2.0914  -2.0838  -1.9922
    -1.9854  -1.9802  -1.9789  -1.9468  -1.9135  -1.9111  -1.9086  -1.9018
    -1.8954  -1.8720  -1.8638  -1.8532  -1.8467  -1.8467  -1.8408  -1.8388
    -1.8328  -1.8314  -1.7954  -1.7893  -1.7878  -1.7850  -1.7695  -1.7642
    -1.7610  -1.7572  -1.7560  -1.7364  -1.7288  -1.6960  -1.6948  -1.6832
    -1.6782  -1.6723  -1.6708  -1.6558  -1.6487  -1.6436  -1.6343  -1.6286
    -1.6269  -1.6142  -1.6015  -1.5985  -1.5961  -1.5919  -1.5809  -1.5756
    -1.5747  -1.5480  -1.5452  -1.5298  -1.5061  -1.4989  -1.4789  -1.4740
    -1.4718  -1.4706  -1.4632  -1.4580  -1.4414  -1.4385  -1.4315  -1.4263
    -1.4209  -1.4194  -1.4150  -1.4091  -1.4025  -1.3967  -1.3947  -1.3620
    -1.3368  -1.3326  -1.3319  -1.3285  -1.3153  -1.2873  -1.2839  -1.2511
    -1.2056  -1.2022  -1.1991  -1.1903  -1.1707  -1.1671  -1.1658  -1.1640
    -1.1582  -1.1564  -1.1410  -1.1374  -1.1269  -1.1216  -1.1062  -1.1032
    -1.0986  -1.0968  -1.0920  -1.0816  -1.0677  -1.0645  -1.0502  -1.0360
    -0.9777  -0.9736  -0.9652  -0.9519  -0.9496  -0.9469  -0.9292  -0.9231
    -0.9172  -0.9140  -0.9040  -0.8970  -0.8887  -0.8814  -0.8620  -0.8613
    -0.8589  -0.8575  -0.8457  -0.8365  -0.8265  -0.8237  -0.8228  -0.8190
    -0.8052  -0.8033  -0.7913  -0.7892  -0.7846  -0.7832  -0.7762  -0.7757
    -0.7674  -0.7607  -0.7434  -0.7402  -0.7396  -0.7387  -0.7132  -0.7045
    -0.7019  -0.6960  -0.6348  -0.6326  -0.6284  -0.6268  -0.6232  -0.6207
    -0.6195  -0.6142  -0.5958  -0.5889  -0.5800  -0.5747  -0.5709  -0.5514
    -0.5367  -0.5274  -0.5226  -0.5210  -0.5184  -0.5175  -0.5137  -0.5131
    -0.5110  -0.5092  -0.5080  -0.5059  -0.5023  -0.4857  -0.4732  -0.4553
    -0.4488  -0.4365  -0.4307  -0.4283  -0.4255  -0.4230  -0.4216  -0.4175
    -0.4125  -0.4121  -0.4081  -0.4042  -0.4007  -0.3966  -0.3931  -0.3914
    -0.3886  -0.3820  -0.3765  -0.3753  -0.3722  -0.3707  -0.3685  -0.3675
    -0.3671  -0.3656  -0.3608  -0.3606  -0.3570  -0.3480  -0.3438  -0.3401
    -0.3385  -0.3377  -0.3352  -0.3337  -0.3275  -0.3105  -0.3079  -0.2839
    -0.2299  -0.2235  -0.2216  -0.2136  -0.2094  -0.2001  -0.1797  -0.1772
    -0.1746  -0.1731  -0.1652  -0.1638  -0.1621  -0.1575  -0.1569  -0.1537
    -0.1507  -0.1482  -0.1429  -0.1383  -0.1360  -0.1332  -0.1302  -0.1268
    -0.1246  -0.1195  -0.1162  -0.1148  -0.1049  -0.0995  -0.0955  -0.0928
    -0.0914  -0.0861  -0.0841  -0.0749  -0.0326  -0.0218  -0.0120  -0.0017
    -0.0010   0.0016   0.0124   0.0178   0.0233   0.0255   0.0307   0.0336
     0.0349   0.0359   0.0385   0.0396   0.0424   0.0458   0.0480   0.0526
     0.0530   0.0568   0.0591   0.0634   0.0728   0.0749   0.0844   0.0867
     0.0962   0.0999   0.1054   0.1100   0.1272   0.1332   0.1381   0.1411
     0.1417   0.1428   0.1445   0.1498   0.1519   0.1558   0.1578   0.1605
     0.1679   0.1706   0.1728   0.1762   0.1839   0.1888   0.1995   0.2111
     0.2136   0.2161   0.2175   0.2198   0.2236   0.2320   0.2427   0.2482
     0.2573   0.2639   0.2729   0.2740   0.2967   0.3040   0.3116   0.3179
     0.3283   0.3373   0.3468   0.3479   0.3504   0.3509   0.3519   0.3537
     0.3575   0.3614   0.3629   0.3739   0.3748   0.3787   0.3899   0.3923
     0.3944   0.3977   0.3995   0.4085   0.4114   0.4126   0.4157   0.4174
     0.4223   0.4323   0.4503   0.4561   0.4642   0.4673   0.4821   0.5015
     0.5173   0.5188   0.5225   0.5261   0.5308   0.5345   0.5460   0.5461
     0.5507   0.5591   0.5648   0.5752   0.5790   0.5846   0.5872   0.5939
     0.6037   0.6117   0.6168   0.6197   0.6224   0.6229   0.6244   0.6267
     0.6284   0.6323   0.6346   0.6370   0.6409   0.6447   0.6457   0.6459
     0.6476   0.6503   0.6564   0.6624   0.6782   0.6849   0.6855   0.6862
     0.6948   0.7003   0.7019   0.7084   0.7175   0.7204   0.7219   0.7273
     0.7345   0.7385   0.7457   0.7478   0.7500   0.7507   0.7523   0.7530
     0.7558   0.7617   0.7651   0.7723   0.7743   0.7896   0.7959   0.8023
     0.8071   0.8093   0.8159   0.8215   0.8236   0.8247   0.8259   0.8263
     0.8303   0.8332   0.8335   0.8342   0.8365   0.8395   0.8412   0.8418
     0.8428   0.8449   0.8454   0.8475   0.8494   0.8519   0.8540   0.8613
     0.8626   0.8718   0.8740   0.8792   0.8848   0.8884   0.8927   0.9023
     0.9074   0.9123   0.9217   0.9236   0.9239   0.9249   0.9296   0.9377
     0.9387   0.9432   0.9476   0.9498   0.9546   0.9559   0.9587   0.9705
     0.9751   0.9760   0.9794   0.9802   0.9833   0.9848   0.9892   0.9929
     0.9989   0.9996   1.0107   1.0158   1.0221   1.0227   1.0230   1.0235
     1.0258   1.0316   1.0404   1.0546   1.0743   1.0795   1.0885   1.1007
     1.1158   1.1173   1.1193   1.1220   1.5296   1.5414   1.5451   1.5962
     1.6717   1.7025   1.7771   1.7854   1.7924   1.7951   1.8082   1.8315
     1.9839   2.0887   2.1093   2.1764   2.2546   2.3292   2.3397   2.3465
     2.3560   2.3816   2.6891   2.6911   2.7114   2.7195   2.9905   3.0084
     3.1864   3.2271   3.2609   3.3301   3.3900   3.4158   3.4404   3.4558
     3.4669   3.5704   3.5783   3.6109   3.6537   3.7378   3.8173   3.9725
     4.1387   4.2021   4.2199   4.2816   4.3226   4.3302   4.3431   4.3840
     4.4376   4.4751   4.4985   4.5162   4.5221   4.5373   4.5666   4.5753
     4.5964   4.6099   4.6239   4.6481   4.7665   4.8236   4.9048   4.9985
     5.0344   5.0678   5.1033   5.1678   5.2038   5.4644   5.4864   5.4999
     5.5193   5.5450   5.6329   5.6408   5.6660   5.8117   5.8812   6.0851
     6.1187   6.1793   6.2631   6.5654   6.5946   6.6440   6.6840   6.7300
     6.7433   7.0146   7.0383   7.1050   7.1152   7.1186   7.1319   7.1592
     7.1966   7.2353   7.3166   7.3195   7.3505   7.3822   7.4310   7.4415
     7.4730   7.4901   7.5112   7.5766   7.5983   7.6903   7.7285   7.7828
     7.8630   7.9396   8.0334   8.0767   8.1450   8.2704   8.2920   8.3391
     8.3624   8.4032   8.5260   8.5305   8.5415   8.5513   8.5884   8.6117
     8.6612   8.7446   8.7781   8.8544   8.8967   8.9682   8.9738   9.0141
     9.0257   9.0418   9.0593   9.0733   9.1273   9.1679   9.1975   9.3113
     9.3734

          k =-0.5000-0.2165 0.0000 (256328 PWs)   bands (ev):

   -20.9624 -18.4664 -17.4797 -16.2766 -15.8843 -15.6451 -14.9056 -14.6919
   -14.0011 -13.4964 -13.0749 -12.7715 -12.3582 -12.0989 -12.0669 -11.9687
   -11.2273 -10.8109 -10.4658 -10.0332  -9.8233  -9.4891  -8.9899  -8.7269
    -8.6723  -7.9361  -7.6444  -6.6704  -6.4740  -6.2670  -5.9397  -5.8497
    -5.7572  -5.7095  -5.6812  -5.6576  -5.6299  -5.4890  -5.3658  -5.2179
    -5.0883  -5.0655  -4.8642  -4.7828  -4.7511  -4.7050  -4.6987  -4.6793
    -4.6591  -4.6181  -4.5742  -4.4959  -4.4703  -4.3414  -4.2006  -4.1748
    -4.0781  -4.0468  -4.0236  -3.9274  -3.7817  -3.7671  -3.7508  -3.6757
    -3.6139  -3.5704  -3.4263  -3.1735  -3.1356  -3.0874  -3.0698  -3.0643
    -3.0566  -3.0435  -3.0308  -3.0192  -2.9300  -2.9167  -2.8440  -2.7066
    -2.5876  -2.5743  -2.5633  -2.5569  -2.5316  -2.5077  -2.4606  -2.4448
    -2.3975  -2.3034  -2.3021  -2.2899  -2.2817  -2.2510  -2.1759  -2.1172
    -2.0714  -2.0687  -2.0426  -1.9909  -1.9864  -1.9847  -1.9822  -1.9660
    -1.9498  -1.9425  -1.9318  -1.9283  -1.9198  -1.9194  -1.8870  -1.8839
    -1.8823  -1.8783  -1.8747  -1.8712  -1.8704  -1.8611  -1.8574  -1.8516
    -1.8497  -1.8493  -1.8472  -1.8047  -1.8036  -1.7973  -1.7938  -1.7829
    -1.7653  -1.7379  -1.7310  -1.7230  -1.6961  -1.6843  -1.6833  -1.6820
    -1.6793  -1.6747  -1.6666  -1.6527  -1.6435  -1.6408  -1.6246  -1.6197
    -1.6134  -1.6117  -1.6097  -1.6064  -1.6042  -1.6022  -1.6007  -1.5903
    -1.5643  -1.5563  -1.5526  -1.5430  -1.5405  -1.5392  -1.5357  -1.5325
    -1.5281  -1.5277  -1.5253  -1.5214  -1.5136  -1.4962  -1.4109  -1.3847
    -1.3815  -1.3695  -1.3593  -1.3522  -1.3445  -1.3437  -1.3389  -1.3142
    -1.2813  -1.2681  -1.2678  -1.2641  -1.2571  -1.2565  -1.2525  -1.2504
    -1.2478  -1.2470  -1.2310  -1.2118  -1.1940  -1.1934  -1.1912  -1.1875
    -1.1810  -1.1748  -1.1691  -1.1643  -1.1617  -1.1592  -1.1436  -1.1401
    -1.0906  -1.0765  -1.0706  -1.0668  -1.0423  -1.0347  -1.0293  -1.0201
    -0.9948  -0.9923  -0.9872  -0.9809  -0.9444  -0.9400  -0.9384  -0.9338
    -0.9254  -0.9247  -0.9167  -0.9141  -0.9018  -0.8972  -0.8883  -0.8875
    -0.8829  -0.8821  -0.8799  -0.8768  -0.8409  -0.8265  -0.8177  -0.8118
    -0.7740  -0.7722  -0.7616  -0.7598  -0.7502  -0.7489  -0.7454  -0.7438
    -0.7340  -0.7324  -0.7295  -0.7280  -0.6793  -0.6652  -0.6552  -0.6518
    -0.6489  -0.6460  -0.6446  -0.6429  -0.6414  -0.6403  -0.6360  -0.6313
    -0.6046  -0.6040  -0.6027  -0.6006  -0.5939  -0.5914  -0.5902  -0.5899
    -0.5870  -0.5851  -0.5834  -0.5820  -0.5676  -0.5318  -0.5272  -0.5211
    -0.5199  -0.5115  -0.5026  -0.5002  -0.4906  -0.4806  -0.4623  -0.4516
    -0.4387  -0.4341  -0.4319  -0.4198  -0.4141  -0.4126  -0.4116  -0.4094
    -0.4046  -0.4035  -0.4012  -0.3990  -0.3973  -0.3947  -0.3919  -0.3888
    -0.3864  -0.3840  -0.3838  -0.3798  -0.3792  -0.3769  -0.3740  -0.3685
    -0.3657  -0.3648  -0.3567  -0.3451  -0.3441  -0.3429  -0.3423  -0.3390
    -0.3294  -0.3267  -0.3222  -0.3192  -0.3127  -0.2852  -0.2812  -0.2780
    -0.2762  -0.2733  -0.2518  -0.2483  -0.2450  -0.2402  -0.2146  -0.2124
    -0.1783  -0.1731  -0.1688  -0.1658  -0.1649  -0.1561  -0.1533  -0.1503
    -0.1471  -0.1445  -0.1410  -0.1347  -0.1336  -0.1272  -0.1248  -0.1245
    -0.1199  -0.1182  -0.1154  -0.1134  -0.1087  -0.1031  -0.0705  -0.0639
    -0.0558  -0.0468  -0.0414  -0.0392  -0.0348  -0.0252  -0.0221  -0.0211
    -0.0209  -0.0160  -0.0040   0.0022   0.0061   0.0076   0.0113   0.0137
     0.0159   0.0191   0.0268   0.0384   0.0461   0.0506   0.0524   0.0581
     0.0597   0.0636   0.0702   0.0715   0.0723   0.0751   0.0777   0.0797
     0.0827   0.0853   0.0862   0.0916   0.0945   0.1036   0.1049   0.1115
     0.1219   0.1228   0.1432   0.1506   0.1556   0.1612   0.1663   0.1751
     0.1834   0.1863   0.1899   0.1921   0.1933   0.1946   0.2010   0.2031
     0.2137   0.2244   0.2299   0.2325   0.2353   0.2367   0.2371   0.2387
     0.2410   0.2425   0.2600   0.2753   0.2829   0.2879   0.2912   0.3006
     0.3085   0.3170   0.3213   0.3221   0.3239   0.3306   0.3512   0.3519
     0.3578   0.3623   0.3806   0.3852   0.3892   0.3947   0.4289   0.4318
     0.4321   0.4345   0.4430   0.4504   0.4576   0.4614   0.4667   0.4724
     0.4830   0.4899   0.5036   0.5076   0.5106   0.5169   0.5230   0.5267
     0.5335   0.5378   0.5437   0.5485   0.5499   0.5507   0.5521   0.5525
     0.5535   0.5541   0.5554   0.5573   0.5578   0.5636   0.5646   0.5710
     0.5737   0.5782   0.5802   0.5830   0.5863   0.5920   0.5940   0.6029
     0.6054   0.6112   0.6179   0.6206   0.6244   0.6309   0.6326   0.6351
     0.6380   0.6451   0.6495   0.6521   0.6546   0.6606   0.6793   0.6835
     0.6873   0.6934   0.6968   0.6972   0.7015   0.7016   0.7106   0.7208
     0.7226   0.7282   0.7305   0.7343   0.7409   0.7544   0.7558   0.7663
     0.7680   0.7704   0.7740   0.7759   0.7799   0.7835   0.7869   0.7901
     0.7921   0.7940   0.7951   0.7958   0.7974   0.8026   0.8240   0.8361
     0.8425   0.8461   0.8481   0.8503   0.8537   0.8577   0.8599   0.8614
     0.8620   0.8642   0.8665   0.8689   0.8755   0.8783   0.8829   0.8846
     0.8875   0.8924   0.8936   0.8980   0.8985   0.8992   0.9016   0.9040
     0.9057   0.9074   0.9087   0.9109   0.9137   0.9165   0.9203   0.9257
     0.9304   0.9312   0.9492   0.9592   0.9626   0.9633   0.9669   0.9716
     0.9757   0.9784   0.9854   0.9869   0.9883   0.9908   0.9938   1.0021
     1.0128   1.0175   1.0321   1.0385   1.0426   1.0709   1.0783   1.0797
     1.0808   1.0840   1.1025   1.1055   1.1088   1.1141   1.1198   1.1229
     1.1242   1.1258   1.1292   1.1402   1.1715   1.2095   1.3373   1.3486
     1.3497   1.3619   1.7972   1.8400   1.8763   1.9065   1.9662   2.0035
     2.0637   2.0732   2.1543   2.2724   2.2961   2.3180   2.3278   2.3615
     2.5949   2.6145   2.6596   2.7316   2.9506   2.9580   2.9609   2.9651
     3.1063   3.1514   3.1798   3.2077   3.4108   3.4361   3.4432   3.4455
     3.4882   3.6946   3.7031   3.7342   3.7448   3.7475   3.8357   3.8689
     3.9354   3.9504   4.0182   4.0516   4.1034   4.1326   4.1822   4.1921
     4.2190   4.2714   4.3631   4.5103   4.6174   4.6432   4.6516   4.6671
     4.6967   4.7312   4.7366   4.7488   4.8110   4.8382   4.8786   4.9001
     4.9821   5.0727   5.1717   5.2285   5.2429   5.2511   5.2696   5.4238
     5.4582   5.5164   5.5714   6.0501   6.1412   6.2975   6.3168   6.3410
     6.3579   6.4987   6.5676   6.5881   6.6077   6.6528   6.6714   6.7033
     6.7225   6.7536   6.7699   6.8407   6.8726   6.8822   6.8835   6.8853
     6.9768   7.0387   7.1291   7.1652   7.2158   7.3855   7.4548   7.5089
     7.5608   7.6211   7.6804   7.7490   7.7561   7.7693   7.7859   7.9076
     7.9486   8.2767   8.3305   8.3409   8.3574   8.3768   8.3956   8.4115
     8.4242   8.4496   8.4659   8.4760   8.4846   8.4867   8.5297   8.5778
     8.6223   8.6600   8.6620   8.6697   8.6820   8.7070   8.7971   8.8544
     8.9007   8.9175   8.9864   9.1144   9.1345   9.1562   9.2188   9.2984
     9.3597

     the Fermi energy is     2.8316 ev

!    total energy              =  -12583.75176524 Ry
     Harris-Foulkes estimate   =  -12583.75176528 Ry
     estimated scf accuracy    <          5.9E-09 Ry

     The total energy is the sum of the following terms:

     one-electron contribution = -110477.89885048 Ry
     hartree contribution      =   56561.66506533 Ry
     xc contribution           =   -4405.87302986 Ry
     ewald contribution        =   45744.49235601 Ry
     Dispersion Correction     =      -2.82763875 Ry
     smearing contrib. (-TS)   =      -3.30966750 Ry

     convergence has been achieved in  57 iterations

     Writing output data file gc.save
 
     init_run     :    169.34s CPU    180.75s WALL (       1 calls)
     electrons    :  25547.05s CPU  27309.21s WALL (       1 calls)

     Called by init_run:
     wfcinit      :    166.33s CPU    176.96s WALL (       1 calls)
     potinit      :      1.00s CPU      1.07s WALL (       1 calls)

     Called by electrons:
     c_bands      :  22835.65s CPU  24382.26s WALL (      57 calls)
     sum_band     :   2137.13s CPU   2268.01s WALL (      57 calls)
     v_of_rho     :      7.00s CPU      9.00s WALL (      58 calls)
     newd         :     19.90s CPU     37.75s WALL (      58 calls)
     mix_rho      :    547.35s CPU    612.31s WALL (      57 calls)

     Called by c_bands:
     init_us_2    :    105.18s CPU    107.01s WALL (     690 calls)
     cegterg      :  22409.78s CPU  23938.44s WALL (     343 calls)

     Called by sum_band:
     sum_band:bec :      5.88s CPU      6.74s WALL (     342 calls)
     addusdens    :     29.70s CPU     45.40s WALL (      57 calls)

     Called by *egterg:
     h_psi        :   8880.00s CPU   9557.46s WALL (    2177 calls)
     s_psi        :   2188.60s CPU   2201.99s WALL (    2177 calls)
     g_psi        :     22.68s CPU     22.70s WALL (    1828 calls)
     cdiaghg      :   5920.76s CPU   6242.40s WALL (    2171 calls)

     Called by h_psi:
     add_vuspsi   :   2192.30s CPU   2207.46s WALL (    2177 calls)

     General routines
     calbec       :   3074.23s CPU   3097.48s WALL (    2519 calls)
     fft          :      6.27s CPU      7.41s WALL (     753 calls)
     ffts         :    238.67s CPU    286.00s WALL (   34440 calls)
     fftw         :   4498.30s CPU   5186.68s WALL ( 1471200 calls)
     davcio       :      0.35s CPU      8.70s WALL (       6 calls)
 
     Parallel routines
     fft_scatter  :   2380.68s CPU   2699.08s WALL ( 1506393 calls)
 
     PWSCF        :     7h 8m CPU        7h38m WALL

 
   This run was terminated on:   2: 3: 7  17Sep2017            

=------------------------------------------------------------------------------=
   JOB DONE.
=------------------------------------------------------------------------------=
