
     Program PWSCF v.5.4.0 starts on 26Apr2017 at 21:48:40 

     This program is part of the open-source Quantum ESPRESSO suite
     for quantum simulation of materials; please cite
         "P. Giannozzi et al., J. Phys.:Condens. Matter 21 395502 (2009);
          URL http://www.quantum-espresso.org", 
     in publications or presentations arising from this work. More details at
     http://www.quantum-espresso.org/quote

     Parallel version (MPI & OpenMP), running on      56 processor cores
     Number of MPI processes:                56
     Threads/MPI process:                     1
     R & G space division:  proc/nbgrp/npool/nimage =      56
     Waiting for input...
     Reading input from standard input

     Current dimensions of program PWSCF are:
     Max number of different atomic species (ntypx) = 10
     Max number of k-points (npk) =  40000
     Max angular momentum in pseudopotentials (lmaxx) =  3
     WARNING: atomic wfc #  2 for atom type 3 has zero norm
     WARNING: atomic wfc #  4 for atom type 3 has zero norm
     WARNING: atomic wfc #  5 for atom type 3 has zero norm

     -------------------------------------
     Parameters for Dispersion Correction:
     -------------------------------------
       atom      VdW radius       C_6     

        Cu         2.952        374.666
        C          2.744         60.710
        O          2.536         24.284
        H          1.892          4.857

     Subspace diagonalization in iterative solution of the eigenvalue problem:
     one sub-group per band group will be used
     scalapack distributed-memory algorithm (size of sub-group:  5*  5 procs)

 
     Parallelization info
     --------------------
     sticks:   dense  smooth     PW     G-vecs:    dense   smooth      PW
     Min         204     204     54                36612    36612    4962
     Max         205     205     55                36617    36617    4968
     Sum       11433   11433   3039              2050409  2050409  278033
 


     bravais-lattice index     =            0
     lattice parameter (alat)  =      13.9425  a.u.
     unit-cell volume          =   21209.0878 (a.u.)^3
     number of atoms/cell      =          150
     number of atomic types    =            4
     number of electrons       =      1299.00
     number of Kohn-Sham states=          780
     kinetic-energy cutoff     =      80.0000  Ry
     charge density cutoff     =     320.0000  Ry
     convergence threshold     =      1.0E-08
     mixing beta               =       0.7000
     number of iterations used =            8  local-TF  mixing
     Exchange-correlation      =  SLA  PW   PBE  PBE ( 1  4  3  4 0 0)
     nstep                     =           50


     celldm(1)=  13.942539  celldm(2)=   0.000000  celldm(3)=   0.000000
     celldm(4)=   0.000000  celldm(5)=   0.000000  celldm(6)=   0.000000

     crystal axes: (cart. coord. in units of alat)
               a(1) = (   1.000000   0.000000   0.000000 )  
               a(2) = (   0.000000   2.309401   0.000000 )  
               a(3) = (   0.000000   0.000000   3.388418 )  

     reciprocal axes: (cart. coord. in units 2 pi/alat)
               b(1) = (  1.000000  0.000000  0.000000 )  
               b(2) = (  0.000000  0.433013  0.000000 )  
               b(3) = (  0.000000  0.000000  0.295123 )  


     PseudoPot. # 1 for Cu read from file:
     /home/549/hxw549/Short/pseudopotentials/Cu.pbe-n-van_ak.UPF
     MD5 check sum: 601f7c30f7467666bec936e0661ce3e1
     Pseudo is Ultrasoft + core correction, Zval = 11.0
     Generated by new atomic code, or converted to UPF format
     Using radial grid of  867 points,  6 beta functions with: 
                l(1) =   0
                l(2) =   0
                l(3) =   1
                l(4) =   1
                l(5) =   2
                l(6) =   2
     Q(r) pseudized with  8 coefficients,  rinner =    1.400   1.400   1.400
                                                       1.400   1.400

     PseudoPot. # 2 for C  read from file:
     /home/549/hxw549/Short/pseudopotentials/C.pbe-mt_gipaw.UPF
     MD5 check sum: 5ac2f21f2c440b14befe521540822c15
     Pseudo is Norm-conserving, Zval =  4.0
     Generated by new atomic code, or converted to UPF format
     Using radial grid of 1073 points,  1 beta functions with: 
                l(1) =   0

     PseudoPot. # 3 for O  read from file:
     /home/549/hxw549/Short/pseudopotentials/O.pbe-van_gipaw.UPF
     MD5 check sum: 5ce2a047509d4f331db576c963e74b29
     Pseudo is Ultrasoft, Zval =  6.0
     Generated by new atomic code, or converted to UPF format
     Using radial grid of 1095 points,  4 beta functions with: 
                l(1) =   0
                l(2) =   0
                l(3) =   1
                l(4) =   1
     Q(r) pseudized with 0 coefficients 


     PseudoPot. # 4 for H  read from file:
     /home/549/hxw549/Short/pseudopotentials/H.pbe-van_ak.UPF
     MD5 check sum: 077eb6d537518a38cb46c6de387227b7
     Pseudo is Ultrasoft, Zval =  1.0
     Generated by new atomic code, or converted to UPF format
     Using radial grid of  615 points,  1 beta functions with: 
                l(1) =   0
     Q(r) pseudized with  8 coefficients,  rinner =    0.800

     atomic species   valence    mass     pseudopotential
        Cu            11.00    63.54600     Cu( 1.00)
        C              4.00    12.01070     C ( 1.00)
        O              6.00    15.99940     O ( 1.00)
        H              1.00     1.00783     H ( 1.00)

     No symmetry found



   Cartesian axes

     site n.     atom                  positions (alat units)
         1           Cu  tau(   1) = (  -0.0000117   0.0002060   0.9982405  )
         2           Cu  tau(   2) = (   0.2500072   0.2312540   0.9983025  )
         3           Cu  tau(   3) = (   0.5000021   0.0002402   0.9982709  )
         4           Cu  tau(   4) = (   0.7500042   0.2312573   0.9982812  )
         5           Cu  tau(   5) = (   0.0000215   0.4620499   0.9981871  )
         6           Cu  tau(   6) = (   0.2500039   0.6928012   0.9978287  )
         7           Cu  tau(   7) = (   0.5000128   0.4620481   0.9980743  )
         8           Cu  tau(   8) = (   0.7500472   0.6928020   0.9978074  )
         9           Cu  tau(   9) = (   0.0000349   0.9236587   0.9976663  )
        10           Cu  tau(  10) = (   0.2500335   1.1545257   0.9978205  )
        11           Cu  tau(  11) = (   0.5000216   0.9236350   0.9976202  )
        12           Cu  tau(  12) = (   0.7500155   1.1545151   0.9978009  )
        13           Cu  tau(  13) = (   0.0000059   1.3852979   0.9981504  )
        14           Cu  tau(  14) = (   0.2500162   1.6160641   0.9984136  )
        15           Cu  tau(  15) = (   0.5000246   1.3853132   0.9981931  )
        16           Cu  tau(  16) = (   0.7499905   1.6160920   0.9983936  )
        17           Cu  tau(  17) = (   0.0000129   1.8470837   0.9983486  )
        18           Cu  tau(  18) = (   0.2499877   2.0783508   0.9982383  )
        19           Cu  tau(  19) = (   0.4999744   1.8470531   0.9983662  )
        20           Cu  tau(  20) = (   0.7499929   2.0783274   0.9982348  )
        21           Cu  tau(  21) = (   0.0000419   0.2313299   1.2467086  )
        22           Cu  tau(  22) = (   0.2500447   0.0001799   1.2464110  )
        23           Cu  tau(  23) = (   0.5000505   0.2314715   1.2467544  )
        24           Cu  tau(  24) = (   0.7500170   0.0001934   1.2464154  )
        25           Cu  tau(  25) = (   0.0000753   0.6932198   1.2465834  )
        26           Cu  tau(  26) = (   0.2500809   0.4624402   1.2467986  )
        27           Cu  tau(  27) = (   0.5000766   0.6931555   1.2464904  )
        28           Cu  tau(  28) = (   0.7500461   0.4624484   1.2467804  )
        29           Cu  tau(  29) = (   0.0000714   1.1541900   1.2464610  )
        30           Cu  tau(  30) = (   0.2501077   0.9236848   1.2463322  )
        31           Cu  tau(  31) = (   0.5000830   1.1541164   1.2465031  )
        32           Cu  tau(  32) = (   0.7500559   0.9236787   1.2463135  )
        33           Cu  tau(  33) = (   0.0000450   1.6158307   1.2468047  )
        34           Cu  tau(  34) = (   0.2500999   1.3848323   1.2468419  )
        35           Cu  tau(  35) = (   0.5000490   1.6158260   1.2469750  )
        36           Cu  tau(  36) = (   0.7500304   1.3848267   1.2468363  )
        37           Cu  tau(  37) = (   0.0000198   2.0783403   1.2462885  )
        38           Cu  tau(  38) = (   0.2500402   1.8470745   1.2465451  )
        39           Cu  tau(  39) = (   0.5000290   2.0783370   1.2462490  )
        40           Cu  tau(  40) = (   0.7500210   1.8470641   1.2465373  )
        41           Cu  tau(  41) = (   0.0000860  -0.0001279   1.4957318  )
        42           Cu  tau(  42) = (   0.2502121   0.2312762   1.4959653  )
        43           Cu  tau(  43) = (   0.5001011  -0.0000850   1.4956552  )
        44           Cu  tau(  44) = (   0.7500120   0.2313154   1.4959853  )
        45           Cu  tau(  45) = (   0.0001302   0.4626915   1.4961977  )
        46           Cu  tau(  46) = (   0.2502427   0.6937392   1.4967387  )
        47           Cu  tau(  47) = (   0.5001427   0.4629737   1.4966535  )
        48           Cu  tau(  48) = (   0.7500660   0.6937484   1.4967579  )
        49           Cu  tau(  49) = (   0.0001577   0.9239473   1.4967976  )
        50           Cu  tau(  50) = (   0.2502017   1.1536576   1.4968585  )
        51           Cu  tau(  51) = (   0.5001758   0.9236581   1.4970125  )
        52           Cu  tau(  52) = (   0.7501263   1.1536227   1.4968941  )
        53           Cu  tau(  53) = (   0.0001480   1.3843628   1.4965575  )
        54           Cu  tau(  54) = (   0.2501427   1.6157322   1.4961715  )
        55           Cu  tau(  55) = (   0.5001564   1.3840933   1.4968092  )
        56           Cu  tau(  56) = (   0.7501111   1.6157257   1.4961699  )
        57           Cu  tau(  57) = (   0.0000983   1.8471806   1.4957301  )
        58           Cu  tau(  58) = (   0.2500659   2.0783545   1.4956640  )
        59           Cu  tau(  59) = (   0.5001034   1.8474147   1.4958218  )
        60           Cu  tau(  60) = (   0.7501089   2.0783462   1.4956529  )
        61           Cu  tau(  61) = (   0.0001620   0.2308828   1.7441307  )
        62           Cu  tau(  62) = (   0.2502726  -0.0003505   1.7449594  )
        63           Cu  tau(  63) = (   0.5001785   0.2306143   1.7448863  )
        64           Cu  tau(  64) = (   0.7500430  -0.0003446   1.7449363  )
        65           Cu  tau(  65) = (   0.0002145   0.6936234   1.7459886  )
        66           Cu  tau(  66) = (   0.2507796   0.4625061   1.7450806  )
        67           Cu  tau(  67) = (   0.5002163   0.6944400   1.7480989  )
        68           Cu  tau(  68) = (   0.7496059   0.4625564   1.7451494  )
        69           Cu  tau(  69) = (   0.0002508   1.1536808   1.7478096  )
        70           Cu  tau(  70) = (   0.2505049   0.9238928   1.7483161  )
        71           Cu  tau(  71) = (   0.5002393   1.1527519   1.7482468  )
        72           Cu  tau(  72) = (   0.7499585   0.9238373   1.7484364  )
        73           Cu  tau(  73) = (   0.0002141   1.6161223   1.7449212  )
        74           Cu  tau(  74) = (   0.2500956   1.3841985   1.7458479  )
        75           Cu  tau(  75) = (   0.5002185   1.6161404   1.7443159  )
        76           Cu  tau(  76) = (   0.7503824   1.3841894   1.7458264  )
        77           Cu  tau(  77) = (   0.0001690   2.0781444   1.7452617  )
        78           Cu  tau(  78) = (   0.2500074   1.8475403   1.7448121  )
        79           Cu  tau(  79) = (   0.5001572   2.0785630   1.7453558  )
        80           Cu  tau(  80) = (   0.7503624   1.8475378   1.7448110  )
        81           Cu  tau(  81) = (   0.0002144   0.0002265   1.9905937  )
        82           Cu  tau(  82) = (   0.2500921   0.2306268   1.9901528  )
        83           Cu  tau(  83) = (   0.5001652  -0.0000657   1.9924457  )
        84           Cu  tau(  84) = (   0.7502922   0.2306649   1.9900982  )
        85           Cu  tau(  85) = (   0.0002858   0.4616248   1.9884721  )
        86           Cu  tau(  86) = (   0.2522786   0.6918539   1.9927269  )
        87           Cu  tau(  87) = (   0.5001303   0.4598928   1.9923235  )
        88           Cu  tau(  88) = (   0.7481722   0.6917641   1.9928590  )
        89           Cu  tau(  89) = (   0.0002218   0.9217185   1.9945162  )
        90           Cu  tau(  90) = (   0.2502164   1.1548379   1.9953318  )
        91           Cu  tau(  91) = (   0.5002464   0.9246779   2.0020255  )
        92           Cu  tau(  92) = (   0.7503372   1.1549034   1.9951843  )
        93           Cu  tau(  93) = (   0.0003432   1.3862460   1.9924686  )
        94           Cu  tau(  94) = (   0.2498666   1.6166053   1.9899624  )
        95           Cu  tau(  95) = (   0.5002147   1.3862758   1.9906098  )
        96           Cu  tau(  96) = (   0.7506730   1.6164763   1.9899316  )
        97           Cu  tau(  97) = (   0.0001885   1.8473625   1.9920691  )
        98           Cu  tau(  98) = (   0.2502153   2.0782185   1.9915451  )
        99           Cu  tau(  99) = (   0.5002883   1.8467896   1.9902623  )
       100           Cu  tau( 100) = (   0.7502035   2.0783025   1.9914875  )
       101           C   tau( 101) = (  -0.0001553   0.0970631   2.3880956  )
       102           C   tau( 102) = (  -0.0000117   0.2895546   2.3842127  )
       103           C   tau( 103) = (   0.1664320   0.0008746   2.3886402  )
       104           C   tau( 104) = (   0.1665446   0.3858990   2.3808558  )
       105           C   tau( 105) = (   0.3329657   0.0970135   2.3858469  )
       106           C   tau( 106) = (   0.3330008   0.2894572   2.3819527  )
       107           C   tau( 107) = (   0.4997916   0.0006242   2.3856522  )
       108           C   tau( 108) = (   0.4999386   0.3864118   2.3800412  )
       109           C   tau( 109) = (   0.6666495   0.0969771   2.3856437  )
       110           C   tau( 110) = (   0.6668303   0.2894160   2.3817005  )
       111           C   tau( 111) = (   0.8332088   0.0008905   2.3883818  )
       112           C   tau( 112) = (   0.8334559   0.3857208   2.3804986  )
       113           C   tau( 113) = (   0.0003979   0.6743354   2.3741960  )
       114           C   tau( 114) = (   0.0008021   0.8664696   2.3712978  )
       115           C   tau( 115) = (   0.1667230   0.5779911   2.3771273  )
       116           C   tau( 116) = (   0.1681496   0.9621206   2.3835526  )
       117           C   tau( 117) = (   0.3333024   0.6750833   2.3861426  )
       118           C   tau( 118) = (   0.3316505   0.8653714   2.3969120  )
       119           C   tau( 119) = (   0.5002387   0.5780586   2.3854354  )
       120           C   tau( 120) = (   0.4998932   0.9619206   2.4517700  )
       121           O   tau( 121) = (   0.4805608   0.9544357   2.6602286  )
       122           H   tau( 122) = (   0.6030747   0.9630123   2.7115798  )
       123           C   tau( 123) = (   0.6673669   0.6748105   2.3860441  )
       124           C   tau( 124) = (   0.6693112   0.8655216   2.3989630  )
       125           C   tau( 125) = (   0.8338646   0.5778295   2.3766756  )
       126           C   tau( 126) = (   0.8334463   0.9621676   2.3835063  )
       127           C   tau( 127) = (   0.0006116   1.2505707   2.3779643  )
       128           C   tau( 128) = (   0.0000593   1.4436978   2.3766215  )
       129           C   tau( 129) = (   0.1673866   1.1552294   2.3838464  )
       130           C   tau( 130) = (   0.1669852   1.5397454   2.3790173  )
       131           C   tau( 131) = (   0.3346719   1.2512837   2.3901421  )
       132           C   tau( 132) = (   0.3337441   1.4439538   2.3823351  )
       133           C   tau( 133) = (   0.5006901   1.1577483   2.4035905  )
       134           C   tau( 134) = (   0.4998736   1.5400911   2.3842481  )
       135           C   tau( 135) = (   0.6661354   1.2513540   2.3896668  )
       136           C   tau( 136) = (   0.6665444   1.4441753   2.3820010  )
       137           C   tau( 137) = (   0.8337097   1.1553182   2.3833884  )
       138           C   tau( 138) = (   0.8331125   1.5398983   2.3788324  )
       139           C   tau( 139) = (  -0.0001250   1.8287979   2.3835605  )
       140           C   tau( 140) = (  -0.0001942   2.0211877   2.3878722  )
       141           C   tau( 141) = (   0.1667511   1.7323119   2.3830974  )
       142           C   tau( 142) = (   0.1663327   2.1175889   2.3883259  )
       143           C   tau( 143) = (   0.3331722   1.8287062   2.3874612  )
       144           C   tau( 144) = (   0.3331865   2.0211682   2.3883403  )
       145           C   tau( 145) = (   0.4998699   1.7326343   2.3867652  )
       146           C   tau( 146) = (   0.4997604   2.1174289   2.3886119  )
       147           C   tau( 147) = (   0.6663914   1.8287568   2.3872116  )
       148           C   tau( 148) = (   0.6663715   2.0211654   2.3880404  )
       149           C   tau( 149) = (   0.8329985   1.7323647   2.3829214  )
       150           C   tau( 150) = (   0.8332225   2.1175967   2.3879984  )

     number of k points=     6  gaussian smearing, width (Ry)=  0.1000
                       cart. coord. in units 2pi/alat
        k(    1) = (   0.0000000   0.0000000   0.0000000), wk =   0.2500000
        k(    2) = (   0.0000000  -0.2165064   0.0000000), wk =   0.2500000
        k(    3) = (   0.2500000   0.0000000   0.0000000), wk =   0.5000000
        k(    4) = (   0.2500000  -0.2165064   0.0000000), wk =   0.5000000
        k(    5) = (  -0.5000000   0.0000000   0.0000000), wk =   0.2500000
        k(    6) = (  -0.5000000  -0.2165064   0.0000000), wk =   0.2500000

     Dense  grid:  2050409 G-vectors     FFT dimensions: (  80, 192, 270)

     Largest allocated arrays     est. size (Mb)     dimensions
        Kohn-Sham Wavefunctions        54.80 Mb     (    4604,  780)
        NL pseudopotentials           130.46 Mb     (    4604, 1857)
        Each V/rho on FFT grid          1.17 Mb     (   76800)
        Each G-vector array             0.28 Mb     (   36616)
        G-vector shells                 0.14 Mb     (   17932)
     Largest temporary arrays     est. size (Mb)     dimensions
        Auxiliary wavefunctions       219.18 Mb     (    4604, 3120)
        Each subspace H/S matrix        5.94 Mb     (     624,  624)
        Each <psi_i|beta_j> matrix     22.10 Mb     (    1857,  780)
        Arrays for rho mixing           9.38 Mb     (   76800,    8)

     Initial potential from superposition of free atoms
     Check: negative starting charge=   -0.001745

     starting charge 1273.81750, renormalised to 1299.00000

     negative rho (up, down):  1.779E-03 0.000E+00
     Starting wfc are 1289 randomized atomic wfcs

     total cpu time spent up to now is      107.3 secs

     Self-consistent Calculation

     iteration #  1     ecut=    80.00 Ry     beta=0.70
     Davidson diagonalization with overlap
     c_bands:  1 eigenvalues not converged
     c_bands:  5 eigenvalues not converged
     ethr =  1.00E-04,  avg # of iterations = 20.7

     negative rho (up, down):  2.563E+01 0.000E+00

     total cpu time spent up to now is     1838.5 secs

     total energy              =   -9677.29075540 Ry
     Harris-Foulkes estimate   =  -17094.36417386 Ry
     estimated scf accuracy    <  177167.78335765 Ry

     iteration #  2     ecut=    80.00 Ry     beta=0.70
     Davidson diagonalization with overlap
     ethr =  1.00E-02,  avg # of iterations = 11.0

     negative rho (up, down):  2.724E+01 0.000E+00

     total cpu time spent up to now is     2765.4 secs

     total energy              =  -12369.59056015 Ry
     Harris-Foulkes estimate   =  -13593.64277449 Ry
     estimated scf accuracy    <   16347.08583905 Ry

     iteration #  3     ecut=    80.00 Ry     beta=0.70
     Davidson diagonalization with overlap
     ethr =  1.00E-02,  avg # of iterations =  7.0

     negative rho (up, down):  2.954E+01 0.000E+00

     total cpu time spent up to now is     3374.2 secs

     total energy              =  -12488.04721695 Ry
     Harris-Foulkes estimate   =  -13317.47816168 Ry
     estimated scf accuracy    <    6191.40451331 Ry

     iteration #  4     ecut=    80.00 Ry     beta=0.70
     Davidson diagonalization with overlap
     ethr =  1.00E-02,  avg # of iterations =  5.0

     negative rho (up, down):  2.673E+01 0.000E+00

     total cpu time spent up to now is     3901.5 secs

     total energy              =  -12834.87147796 Ry
     Harris-Foulkes estimate   =  -13139.22987609 Ry
     estimated scf accuracy    <    6564.37625954 Ry

     iteration #  5     ecut=    80.00 Ry     beta=0.70
     Davidson diagonalization with overlap
     ethr =  1.00E-02,  avg # of iterations =  5.3

     negative rho (up, down):  1.804E+01 0.000E+00

     total cpu time spent up to now is     4299.6 secs

     total energy              =  -12853.66538353 Ry
     Harris-Foulkes estimate   =  -13031.98840996 Ry
     estimated scf accuracy    <     976.55354890 Ry

     iteration #  6     ecut=    80.00 Ry     beta=0.70
     Davidson diagonalization with overlap
     ethr =  1.00E-02,  avg # of iterations =  3.0

     negative rho (up, down):  1.088E+01 0.000E+00

     total cpu time spent up to now is     4544.1 secs

     total energy              =  -12849.52224783 Ry
     Harris-Foulkes estimate   =  -12918.05169961 Ry
     estimated scf accuracy    <     718.05754793 Ry

     iteration #  7     ecut=    80.00 Ry     beta=0.70
     Davidson diagonalization with overlap
     ethr =  1.00E-02,  avg # of iterations =  2.0

     negative rho (up, down):  7.915E+00 0.000E+00

     total cpu time spent up to now is     4729.1 secs

     total energy              =  -12830.66984772 Ry
     Harris-Foulkes estimate   =  -12859.54443036 Ry
     estimated scf accuracy    <     671.72946392 Ry

     iteration #  8     ecut=    80.00 Ry     beta=0.70
     Davidson diagonalization with overlap
     ethr =  1.00E-02,  avg # of iterations =  1.5

     negative rho (up, down):  7.006E+00 0.000E+00

     total cpu time spent up to now is     4900.9 secs

     total energy              =  -12822.97958671 Ry
     Harris-Foulkes estimate   =  -12834.63051458 Ry
     estimated scf accuracy    <     371.62835532 Ry

     iteration #  9     ecut=    80.00 Ry     beta=0.70
     Davidson diagonalization with overlap
     ethr =  1.00E-02,  avg # of iterations =  1.0

     negative rho (up, down):  4.705E+00 0.000E+00

     total cpu time spent up to now is     5067.3 secs

     total energy              =  -12800.18029249 Ry
     Harris-Foulkes estimate   =  -12825.86717515 Ry
     estimated scf accuracy    <     322.53972118 Ry

     iteration # 10     ecut=    80.00 Ry     beta=0.70
     Davidson diagonalization with overlap
     ethr =  1.00E-02,  avg # of iterations =  1.5

     negative rho (up, down):  8.125E-01 0.000E+00

     total cpu time spent up to now is     5239.5 secs

     total energy              =  -12760.59322829 Ry
     Harris-Foulkes estimate   =  -12803.72080824 Ry
     estimated scf accuracy    <     203.39148721 Ry

     iteration # 11     ecut=    80.00 Ry     beta=0.70
     Davidson diagonalization with overlap
     ethr =  1.00E-02,  avg # of iterations =  3.5

     negative rho (up, down):  8.295E-01 0.000E+00

     total cpu time spent up to now is     5438.3 secs

     total energy              =  -12752.62793483 Ry
     Harris-Foulkes estimate   =  -12767.31459106 Ry
     estimated scf accuracy    <      86.71466189 Ry

     iteration # 12     ecut=    80.00 Ry     beta=0.70
     Davidson diagonalization with overlap
     ethr =  6.68E-03,  avg # of iterations =  2.7

     negative rho (up, down):  1.100E+00 0.000E+00

     total cpu time spent up to now is     5625.1 secs

     total energy              =  -12747.81373049 Ry
     Harris-Foulkes estimate   =  -12758.02901847 Ry
     estimated scf accuracy    <      56.64948745 Ry

     iteration # 13     ecut=    80.00 Ry     beta=0.70
     Davidson diagonalization with overlap
     ethr =  4.36E-03,  avg # of iterations =  2.2

     negative rho (up, down):  4.894E+00 0.000E+00

     total cpu time spent up to now is     5805.3 secs

     total energy              =  -12739.97034659 Ry
     Harris-Foulkes estimate   =  -12752.23385393 Ry
     estimated scf accuracy    <      53.30395313 Ry

     iteration # 14     ecut=    80.00 Ry     beta=0.70
     Davidson diagonalization with overlap
     ethr =  4.10E-03,  avg # of iterations =  2.3

     negative rho (up, down):  6.992E+00 0.000E+00

     total cpu time spent up to now is     5987.7 secs

     total energy              =  -12739.63739441 Ry
     Harris-Foulkes estimate   =  -12743.50810841 Ry
     estimated scf accuracy    <      27.81936310 Ry

     iteration # 15     ecut=    80.00 Ry     beta=0.70
     Davidson diagonalization with overlap
     ethr =  2.14E-03,  avg # of iterations =  5.5

     negative rho (up, down):  5.437E+00 0.000E+00

     total cpu time spent up to now is     6216.3 secs

     total energy              =  -12738.51452080 Ry
     Harris-Foulkes estimate   =  -12741.02076281 Ry
     estimated scf accuracy    <      17.31326072 Ry

     iteration # 16     ecut=    80.00 Ry     beta=0.70
     Davidson diagonalization with overlap
     ethr =  1.33E-03,  avg # of iterations =  2.3

     negative rho (up, down):  2.998E+00 0.000E+00

     total cpu time spent up to now is     6399.1 secs

     total energy              =  -12737.37381740 Ry
     Harris-Foulkes estimate   =  -12739.29353113 Ry
     estimated scf accuracy    <      12.27052093 Ry

     iteration # 17     ecut=    80.00 Ry     beta=0.70
     Davidson diagonalization with overlap
     ethr =  9.45E-04,  avg # of iterations =  5.0

     negative rho (up, down):  2.727E+00 0.000E+00

     total cpu time spent up to now is     6611.1 secs

     total energy              =  -12736.23996547 Ry
     Harris-Foulkes estimate   =  -12737.61380666 Ry
     estimated scf accuracy    <      11.84309971 Ry

     iteration # 18     ecut=    80.00 Ry     beta=0.70
     Davidson diagonalization with overlap
     ethr =  9.12E-04,  avg # of iterations =  5.0

     negative rho (up, down):  2.125E+00 0.000E+00

     total cpu time spent up to now is     6825.9 secs

     total energy              =  -12735.56432841 Ry
     Harris-Foulkes estimate   =  -12736.41854536 Ry
     estimated scf accuracy    <       7.09115739 Ry

     iteration # 19     ecut=    80.00 Ry     beta=0.70
     Davidson diagonalization with overlap
     ethr =  5.46E-04,  avg # of iterations =  3.2

     negative rho (up, down):  1.845E+00 0.000E+00

     total cpu time spent up to now is     7017.7 secs

     total energy              =  -12734.71207684 Ry
     Harris-Foulkes estimate   =  -12735.70120891 Ry
     estimated scf accuracy    <       6.79740711 Ry

     iteration # 20     ecut=    80.00 Ry     beta=0.70
     Davidson diagonalization with overlap
     ethr =  5.23E-04,  avg # of iterations =  2.5

     negative rho (up, down):  9.809E-01 0.000E+00

     total cpu time spent up to now is     7202.7 secs

     total energy              =  -12733.06873026 Ry
     Harris-Foulkes estimate   =  -12734.88568770 Ry
     estimated scf accuracy    <       5.93684822 Ry

     iteration # 21     ecut=    80.00 Ry     beta=0.70
     Davidson diagonalization with overlap
     ethr =  4.57E-04,  avg # of iterations =  3.8

     negative rho (up, down):  7.274E-01 0.000E+00

     total cpu time spent up to now is     7402.6 secs

     total energy              =  -12732.46216607 Ry
     Harris-Foulkes estimate   =  -12733.16233457 Ry
     estimated scf accuracy    <       3.47165391 Ry

     iteration # 22     ecut=    80.00 Ry     beta=0.70
     Davidson diagonalization with overlap
     ethr =  2.67E-04,  avg # of iterations =  4.3

     negative rho (up, down):  9.163E-01 0.000E+00

     total cpu time spent up to now is     7608.3 secs

     total energy              =  -12732.08306970 Ry
     Harris-Foulkes estimate   =  -12732.54969601 Ry
     estimated scf accuracy    <       1.96083417 Ry

     iteration # 23     ecut=    80.00 Ry     beta=0.70
     Davidson diagonalization with overlap
     ethr =  1.51E-04,  avg # of iterations =  8.3

     negative rho (up, down):  1.066E+00 0.000E+00

     total cpu time spent up to now is     7881.7 secs

     total energy              =  -12731.89386697 Ry
     Harris-Foulkes estimate   =  -12732.17815609 Ry
     estimated scf accuracy    <       1.70777178 Ry

     iteration # 24     ecut=    80.00 Ry     beta=0.70
     Davidson diagonalization with overlap
     ethr =  1.31E-04,  avg # of iterations =  6.7

     negative rho (up, down):  8.384E-01 0.000E+00

     total cpu time spent up to now is     8129.2 secs

     total energy              =  -12731.86069473 Ry
     Harris-Foulkes estimate   =  -12731.99012658 Ry
     estimated scf accuracy    <       0.52138192 Ry

     iteration # 25     ecut=    80.00 Ry     beta=0.70
     Davidson diagonalization with overlap
     ethr =  4.01E-05,  avg # of iterations =  7.7

     negative rho (up, down):  5.690E-01 0.000E+00

     total cpu time spent up to now is     8397.6 secs

     total energy              =  -12731.87142785 Ry
     Harris-Foulkes estimate   =  -12731.89916532 Ry
     estimated scf accuracy    <       0.16902657 Ry

     iteration # 26     ecut=    80.00 Ry     beta=0.70
     Davidson diagonalization with overlap
     c_bands:  1 eigenvalues not converged
     ethr =  1.30E-05,  avg # of iterations = 12.8

     negative rho (up, down):  3.974E-01 0.000E+00

     total cpu time spent up to now is     8719.7 secs

     total energy              =  -12731.85721724 Ry
     Harris-Foulkes estimate   =  -12731.88085147 Ry
     estimated scf accuracy    <       0.11987266 Ry

     iteration # 27     ecut=    80.00 Ry     beta=0.70
     Davidson diagonalization with overlap
     ethr =  9.23E-06,  avg # of iterations =  7.3

     negative rho (up, down):  1.564E-01 0.000E+00

     total cpu time spent up to now is     8986.0 secs

     total energy              =  -12731.85206538 Ry
     Harris-Foulkes estimate   =  -12731.86320114 Ry
     estimated scf accuracy    <       0.04172834 Ry

     iteration # 28     ecut=    80.00 Ry     beta=0.70
     Davidson diagonalization with overlap
     ethr =  3.21E-06,  avg # of iterations = 11.7

     negative rho (up, down):  1.193E-01 0.000E+00

     total cpu time spent up to now is     9326.9 secs

     total energy              =  -12731.85218667 Ry
     Harris-Foulkes estimate   =  -12731.85515733 Ry
     estimated scf accuracy    <       0.01245078 Ry

     iteration # 29     ecut=    80.00 Ry     beta=0.70
     Davidson diagonalization with overlap
     ethr =  9.58E-07,  avg # of iterations =  7.7

     negative rho (up, down):  6.714E-02 0.000E+00

     total cpu time spent up to now is     9592.2 secs

     total energy              =  -12731.85116624 Ry
     Harris-Foulkes estimate   =  -12731.85307984 Ry
     estimated scf accuracy    <       0.00435763 Ry

     iteration # 30     ecut=    80.00 Ry     beta=0.70
     Davidson diagonalization with overlap
     c_bands:  1 eigenvalues not converged
     c_bands:  1 eigenvalues not converged
     c_bands:  2 eigenvalues not converged
     ethr =  3.35E-07,  avg # of iterations = 15.8

     negative rho (up, down):  4.180E-02 0.000E+00

     total cpu time spent up to now is     9965.1 secs

     total energy              =  -12731.85068117 Ry
     Harris-Foulkes estimate   =  -12731.85142048 Ry
     estimated scf accuracy    <       0.00209810 Ry

     iteration # 31     ecut=    80.00 Ry     beta=0.70
     Davidson diagonalization with overlap
     ethr =  1.62E-07,  avg # of iterations = 10.7

     negative rho (up, down):  1.337E-02 0.000E+00

     total cpu time spent up to now is    10267.7 secs

     total energy              =  -12731.85023974 Ry
     Harris-Foulkes estimate   =  -12731.85080973 Ry
     estimated scf accuracy    <       0.00048399 Ry

     iteration # 32     ecut=    80.00 Ry     beta=0.70
     Davidson diagonalization with overlap
     c_bands:  1 eigenvalues not converged
     ethr =  3.73E-08,  avg # of iterations = 11.0

     negative rho (up, down):  5.490E-03 0.000E+00

     total cpu time spent up to now is    10584.0 secs

     total energy              =  -12731.85013655 Ry
     Harris-Foulkes estimate   =  -12731.85029105 Ry
     estimated scf accuracy    <       0.00022614 Ry

     iteration # 33     ecut=    80.00 Ry     beta=0.70
     Davidson diagonalization with overlap
     ethr =  1.74E-08,  avg # of iterations =  8.2

     negative rho (up, down):  1.868E-03 0.000E+00

     total cpu time spent up to now is    10847.0 secs

     total energy              =  -12731.85011720 Ry
     Harris-Foulkes estimate   =  -12731.85014780 Ry
     estimated scf accuracy    <       0.00003590 Ry

     iteration # 34     ecut=    80.00 Ry     beta=0.70
     Davidson diagonalization with overlap
     c_bands:  1 eigenvalues not converged
     c_bands:  2 eigenvalues not converged
     ethr =  2.76E-09,  avg # of iterations = 16.8

     negative rho (up, down):  1.294E-03 0.000E+00

     total cpu time spent up to now is    11226.6 secs

     total energy              =  -12731.85013141 Ry
     Harris-Foulkes estimate   =  -12731.85012115 Ry
     estimated scf accuracy    <       0.00002025 Ry

     iteration # 35     ecut=    80.00 Ry     beta=0.70
     Davidson diagonalization with overlap
     ethr =  1.56E-09,  avg # of iterations =  5.2

     negative rho (up, down):  1.609E-03 0.000E+00

     total cpu time spent up to now is    11449.2 secs

     total energy              =  -12731.85014530 Ry
     Harris-Foulkes estimate   =  -12731.85013306 Ry
     estimated scf accuracy    <       0.00000776 Ry

     iteration # 36     ecut=    80.00 Ry     beta=0.70
     Davidson diagonalization with overlap
     ethr =  5.97E-10,  avg # of iterations =  6.5

     negative rho (up, down):  1.830E-03 0.000E+00

     total cpu time spent up to now is    11694.8 secs

     total energy              =  -12731.85014637 Ry
     Harris-Foulkes estimate   =  -12731.85014602 Ry
     estimated scf accuracy    <       0.00000357 Ry

     iteration # 37     ecut=    80.00 Ry     beta=0.70
     Davidson diagonalization with overlap
     ethr =  2.75E-10,  avg # of iterations =  2.8

     negative rho (up, down):  1.898E-03 0.000E+00

     total cpu time spent up to now is    11891.4 secs

     total energy              =  -12731.85014655 Ry
     Harris-Foulkes estimate   =  -12731.85014669 Ry
     estimated scf accuracy    <       0.00000111 Ry

     iteration # 38     ecut=    80.00 Ry     beta=0.70
     Davidson diagonalization with overlap
     ethr =  8.54E-11,  avg # of iterations =  2.7

     negative rho (up, down):  1.960E-03 0.000E+00

     total cpu time spent up to now is    12086.1 secs

     total energy              =  -12731.85014645 Ry
     Harris-Foulkes estimate   =  -12731.85014666 Ry
     estimated scf accuracy    <       0.00000070 Ry

     iteration # 39     ecut=    80.00 Ry     beta=0.70
     Davidson diagonalization with overlap
     ethr =  5.39E-11,  avg # of iterations =  3.0

     negative rho (up, down):  1.929E-03 0.000E+00

     total cpu time spent up to now is    12283.9 secs

     total energy              =  -12731.85014643 Ry
     Harris-Foulkes estimate   =  -12731.85014650 Ry
     estimated scf accuracy    <       0.00000017 Ry

     iteration # 40     ecut=    80.00 Ry     beta=0.70
     Davidson diagonalization with overlap
     ethr =  1.28E-11,  avg # of iterations =  3.0

     negative rho (up, down):  1.886E-03 0.000E+00

     total cpu time spent up to now is    12505.5 secs

     total energy              =  -12731.85014649 Ry
     Harris-Foulkes estimate   =  -12731.85014646 Ry
     estimated scf accuracy    <       0.00000012 Ry

     iteration # 41     ecut=    80.00 Ry     beta=0.70
     Davidson diagonalization with overlap
     ethr =  9.23E-12,  avg # of iterations =  2.0

     negative rho (up, down):  1.857E-03 0.000E+00

     total cpu time spent up to now is    12688.9 secs

     total energy              =  -12731.85014654 Ry
     Harris-Foulkes estimate   =  -12731.85014650 Ry
     estimated scf accuracy    <       0.00000003 Ry

     iteration # 42     ecut=    80.00 Ry     beta=0.70
     Davidson diagonalization with overlap
     ethr =  2.43E-12,  avg # of iterations =  2.7

     negative rho (up, down):  1.862E-03 0.000E+00

     total cpu time spent up to now is    12873.5 secs

     End of self-consistent calculation

          k = 0.0000 0.0000 0.0000 (256287 PWs)   bands (ev):

   -17.3443 -16.0067 -15.6890 -15.5242 -14.5670 -14.5006 -14.0858 -14.0408
   -13.7398 -13.7317 -13.6975 -13.5581 -12.7699 -12.7450 -12.6588 -12.6465
   -12.6411 -12.5009 -10.9684 -10.9526 -10.9489 -10.9061 -10.7299  -9.7400
    -9.0883  -9.0786  -9.0628  -9.0579  -8.2305  -8.2008  -8.1962  -8.1643
    -7.2505  -7.1981  -7.1769  -7.1352  -7.1265  -7.1215  -7.0845  -7.0759
    -5.7564  -5.7086  -5.5861  -5.5789  -5.5607  -5.4488  -5.4202  -5.3950
    -5.3778  -5.1797  -5.1745  -4.8329  -4.6570  -4.3275  -4.2915  -4.2795
    -4.2374  -4.0600  -3.9433  -3.8653  -3.8124  -3.6858  -3.6807  -3.6269
    -3.1738  -3.1435  -3.1254  -3.1032  -3.0988  -3.0951  -3.0098  -2.9781
    -2.9585  -2.8820  -2.8775  -2.8520  -2.7054  -2.7015  -2.7003  -2.6948
    -2.6628  -2.6160  -2.5361  -2.4841  -2.4344  -2.4247  -2.4006  -2.3341
    -2.3217  -2.2894  -2.2804  -2.2722  -2.0718  -2.0619  -2.0508  -2.0380
    -2.0155  -1.9419  -1.8837  -1.8829  -1.8487  -1.8429  -1.8426  -1.8425
    -1.8412  -1.7492  -1.7432  -1.7135  -1.7134  -1.7088  -1.7087  -1.6492
    -1.6165  -1.5512  -1.5308  -1.4736  -1.4655  -1.4282  -1.4281  -1.4268
    -1.4179  -1.3805  -1.3670  -1.3613  -1.3490  -1.3434  -1.2913  -1.2827
    -1.2598  -1.2538  -1.2533  -1.2500  -1.2272  -1.2219  -1.2190  -1.2050
    -1.2026  -1.2021  -1.1388  -1.1262  -1.1056  -1.0943  -1.0885  -1.0608
    -1.0489  -1.0412  -1.0270  -0.9872  -0.9793  -0.9527  -0.9519  -0.9388
    -0.9221  -0.8999  -0.8994  -0.8807  -0.8769  -0.8558  -0.8520  -0.8170
    -0.8045  -0.7885  -0.7699  -0.7589  -0.7386  -0.7333  -0.7274  -0.7181
    -0.7128  -0.7106  -0.7099  -0.7094  -0.7081  -0.7047  -0.7035  -0.6869
    -0.6854  -0.6506  -0.6407  -0.6302  -0.6169  -0.6157  -0.6080  -0.6059
    -0.6044  -0.5805  -0.5487  -0.5467  -0.5452  -0.5445  -0.5440  -0.5435
    -0.5430  -0.5410  -0.5390  -0.5371  -0.5362  -0.5360  -0.5330  -0.5301
    -0.5298  -0.5197  -0.5170  -0.4801  -0.4733  -0.4519  -0.4158  -0.3784
    -0.3780  -0.3714  -0.3705  -0.3498  -0.3486  -0.3299  -0.3295  -0.3100
    -0.3082  -0.2988  -0.2937  -0.2899  -0.2885  -0.2864  -0.2766  -0.2538
    -0.2533  -0.2490  -0.2481  -0.2432  -0.2416  -0.2317  -0.2302  -0.1811
    -0.1803  -0.1755  -0.1269  -0.1264  -0.1181  -0.1176  -0.1150  -0.1102
    -0.1016  -0.0994  -0.0956  -0.0939  -0.0926  -0.0919  -0.0887  -0.0885
    -0.0869  -0.0733  -0.0730  -0.0645  -0.0624  -0.0583  -0.0396  -0.0383
     0.0094   0.0115   0.0171   0.0201   0.0205   0.0459   0.0461   0.0464
     0.0487   0.0505   0.0637   0.0641   0.0691   0.0694   0.0767   0.0903
     0.0908   0.0937   0.0967   0.0972   0.0978   0.0984   0.0999   0.1027
     0.1129   0.1197   0.1205   0.1233   0.1243   0.1435   0.1631   0.1910
     0.1927   0.1936   0.1956   0.1999   0.2410   0.2420   0.2428   0.2445
     0.2482   0.2497   0.2508   0.2511   0.2519   0.2601   0.2799   0.3007
     0.3037   0.3053   0.3058   0.3115   0.3134   0.3306   0.3323   0.3343
     0.3374   0.3419   0.3470   0.3561   0.3575   0.3581   0.3586   0.3618
     0.3670   0.3744   0.3750   0.3760   0.3761   0.3850   0.3906   0.3920
     0.4035   0.4146   0.4167   0.4440   0.4475   0.4477   0.4752   0.4778
     0.4939   0.4974   0.5071   0.5220   0.5462   0.5475   0.5482   0.5550
     0.5584   0.5589   0.5833   0.5836   0.5848   0.5855   0.5864   0.5929
     0.5933   0.5973   0.6401   0.6510   0.6519   0.6597   0.6616   0.6629
     0.6629   0.6893   0.6909   0.6935   0.6961   0.6980   0.7088   0.7257
     0.7319   0.7368   0.7400   0.7426   0.7487   0.7512   0.7538   0.7613
     0.7894   0.7925   0.8063   0.8064   0.8091   0.8114   0.8122   0.8199
     0.8381   0.8392   0.8425   0.8458   0.8471   0.8486   0.8499   0.8505
     0.8553   0.8562   0.8610   0.8663   0.8669   0.8691   0.8717   0.8760
     0.8776   0.9088   0.9158   0.9158   0.9213   0.9335   0.9588   0.9593
     0.9611   0.9624   0.9636   0.9648   0.9659   0.9678   0.9757   0.9787
     0.9834   0.9896   0.9909   0.9919   0.9949   0.9989   0.9994   1.0066
     1.0070   1.0188   1.0260   1.0321   1.0332   1.0356   1.0392   1.0472
     1.0497   1.0535   1.0577   1.0577   1.0600   1.0645   1.0652   1.0672
     1.0715   1.0799   1.1081   1.1176   1.1179   1.1233   1.1286   1.1320
     1.1346   1.1355   1.1375   1.1381   1.1662   1.1688   1.1832   1.1843
     1.1883   1.1885   1.1997   1.2023   1.2028   1.2112   1.2115   1.2123
     1.2136   1.2213   1.2325   1.2494   1.2510   1.2534   1.2545   1.2555
     1.2562   1.2722   1.2818   1.2891   1.2897   1.2982   1.2985   1.3095
     1.3218   1.3219   1.3242   1.3252   1.3267   1.3276   1.3342   1.3381
     1.3387   1.3392   1.3412   1.3419   1.3424   1.3537   1.3540   1.3674
     1.3743   1.3762   1.3794   1.3812   1.3867   1.3968   1.4165   1.4165
     1.4184   1.4227   1.4230   1.4248   1.4267   1.4279   1.4282   1.4291
     1.4302   1.4344   1.4362   1.4375   1.4460   1.4473   1.4632   1.4735
     1.4946   1.4960   1.5102   1.5116   1.5155   1.5159   1.5170   1.5177
     1.5211   1.5371   1.5497   1.5504   1.5514   1.5531   1.5545   1.5564
     1.5575   1.5582   1.5673   1.5674   1.5728   1.5837   1.5862   1.5868
     1.5874   1.5891   1.5902   1.5910   1.5928   1.6065   1.6067   1.6072
     1.6079   1.6150   1.6221   1.6222   1.6233   1.6239   1.6280   1.6329
     1.6372   1.6396   1.6540   1.6652   1.6660   1.6680   1.6732   1.6768
     1.6771   1.6800   1.6947   1.6961   1.6999   1.7012   1.7043   1.7127
     1.7254   1.7263   1.7278   1.7347   1.7351   1.7456   1.7461   1.7467
     1.7479   1.7483   1.7490   1.7495   1.7506   1.7581   1.7596   1.7603
     1.7620   1.7772   1.7780   1.7791   1.7805   1.7839   1.7902   1.7927
     1.7949   1.8264   1.8317   1.8317   1.8386   1.8681   1.8697   1.8734
     1.8761   1.8919   1.8926   1.8930   1.8987   1.9047   1.9191   1.9402
     1.9435   1.9439   1.9446   1.9466   1.9548   1.9551   1.9566   2.2117
     2.2543   2.2667   2.4207   2.4236   2.4594   2.4678   2.5172   2.5180
     2.5190   2.5233   2.5363   2.5398   2.5405   2.5647   2.7136   2.7177
     2.7757   2.7802   2.7804   2.7814   2.7942   2.7984   3.0284   3.0305
     3.0384   3.0441   3.4115   3.4380   3.4508   3.4557   3.8299   3.8305
     3.9877   4.1249   4.1308   4.1578   4.1632   4.1649   4.1816   4.2376
     4.2719   4.2770   4.2822   4.3156   4.3171   4.3187   4.3229   4.3247
     4.3294   4.5506   4.5600   4.5618   4.5744   4.7112   4.9712   5.0733
     5.2682   5.3266   5.3295   5.6062   5.6760   5.7158   5.7197   5.8648
     6.0047   6.0082   6.0226   6.0458   6.2416   6.2436   6.6374   6.6480
     6.7066   6.7182   6.7704   6.7762   6.7806   6.7873   6.9198   6.9345
     6.9728   6.9986   7.0929   7.0974   7.1226   7.1315   7.2371   7.2968
     7.3414   7.3572   7.3831   7.4049   7.4278   7.4412   7.6657   7.6684
     7.7170   7.8331   7.8344   7.9002   7.9375   7.9898   7.9970   8.0023
     8.0067   8.0189   8.4485   8.4922   8.5027   8.5101   8.5235   8.5852
     8.5901   8.6447   8.6456   8.6738   8.7089   8.7141   8.7230   8.8079
     8.8492   8.8898   8.8981   8.9034   8.9604   8.9634   8.9781   8.9786
     9.1390   9.1398   9.1464   9.1572   9.1713   9.2569   9.3190   9.3495
     9.3900   9.3977   9.4037   9.4113   9.4310   9.4356   9.4593   9.6498
     9.6535   9.7693   9.8860   9.8891   9.9583   9.9988  10.0811  10.0976
    10.1385  10.1642  10.2596  10.3516

          k = 0.0000-0.2165 0.0000 (256176 PWs)   bands (ev):

   -17.3443 -15.9775 -15.8189 -15.2143 -15.0983 -14.0172 -14.0146 -13.9682
   -13.8931 -13.7442 -13.6744 -13.2830 -13.2758 -13.2565 -13.1075 -11.8794
   -11.8659 -11.8599 -11.8144 -11.6489 -11.5908  -9.9737  -9.9601  -9.9561
    -9.9340  -8.7352  -8.6968  -8.5892  -8.5674  -8.5515  -8.5363  -7.7823
    -7.7338  -7.7286  -7.7044  -6.5993  -6.5675  -6.5305  -6.5092  -6.4786
    -6.4030  -6.3887  -6.3795  -5.6489  -5.5800  -5.5742  -5.5679  -5.0785
    -4.7676  -4.7582  -4.7472  -4.6702  -4.6349  -4.5324  -4.5315  -4.3809
    -4.2001  -4.1930  -4.1811  -4.1542  -4.1161  -3.9339  -3.7176  -3.5905
    -3.2647  -3.1841  -2.9990  -2.9978  -2.9971  -2.9870  -2.8983  -2.8818
    -2.7644  -2.7480  -2.7270  -2.7225  -2.6904  -2.6534  -2.6298  -2.6131
    -2.5079  -2.4983  -2.4476  -2.4310  -2.3620  -2.3456  -2.3171  -2.2899
    -2.2798  -2.2724  -2.2720  -2.2705  -2.2684  -2.2189  -2.1747  -2.1678
    -2.0098  -1.9994  -1.9479  -1.9424  -1.9333  -1.9312  -1.8840  -1.8463
    -1.8355  -1.8352  -1.8297  -1.7948  -1.6765  -1.6762  -1.6586  -1.6509
    -1.6506  -1.6304  -1.5574  -1.5536  -1.5126  -1.4590  -1.4552  -1.4523
    -1.4481  -1.4402  -1.4399  -1.4314  -1.4313  -1.4142  -1.4084  -1.3794
    -1.3371  -1.3311  -1.3172  -1.2355  -1.2296  -1.1697  -1.1592  -1.1536
    -1.1533  -1.0926  -1.0691  -1.0644  -1.0605  -1.0593  -1.0065  -1.0033
    -0.9704  -0.9686  -0.9635  -0.9635  -0.9631  -0.9573  -0.9501  -0.9370
    -0.9362  -0.9212  -0.9154  -0.9149  -0.9118  -0.9082  -0.9022  -0.8820
    -0.8333  -0.8284  -0.8247  -0.8243  -0.8119  -0.7773  -0.7768  -0.7695
    -0.7389  -0.7387  -0.7358  -0.7352  -0.6976  -0.6907  -0.6753  -0.6742
    -0.6700  -0.6682  -0.6680  -0.6651  -0.6179  -0.6140  -0.6092  -0.6077
    -0.6042  -0.5996  -0.5995  -0.5858  -0.5857  -0.5851  -0.5500  -0.5194
    -0.5165  -0.5078  -0.5071  -0.5053  -0.4987  -0.4948  -0.4864  -0.4850
    -0.4723  -0.4677  -0.4454  -0.4432  -0.4428  -0.4395  -0.4105  -0.3465
    -0.3458  -0.3389  -0.3376  -0.3212  -0.3209  -0.2963  -0.2939  -0.2934
    -0.2928  -0.2894  -0.2893  -0.2653  -0.2638  -0.2325  -0.2311  -0.2306
    -0.2271  -0.2270  -0.2247  -0.2245  -0.2218  -0.2082  -0.1932  -0.1918
    -0.1729  -0.1728  -0.1728  -0.1488  -0.1375  -0.1361  -0.1359  -0.1337
    -0.1263  -0.1261  -0.1204  -0.1196  -0.1111  -0.0602  -0.0504  -0.0495
    -0.0419  -0.0406  -0.0164  -0.0144   0.0083   0.0086   0.0128   0.0163
     0.0171   0.0173   0.0245   0.0400   0.0402   0.0445   0.0454   0.0543
     0.0593   0.0613   0.0649   0.0657   0.0677   0.0680   0.0684   0.0705
     0.0778   0.0784   0.0905   0.1044   0.1045   0.1081   0.1082   0.1476
     0.1693   0.1701   0.1708   0.1719   0.1784   0.1804   0.1831   0.1838
     0.1987   0.2048   0.2119   0.2195   0.2235   0.2238   0.2260   0.2295
     0.2327   0.2334   0.2345   0.2355   0.2367   0.2392   0.2408   0.2930
     0.2937   0.2949   0.2958   0.2964   0.3126   0.3171   0.3183   0.3186
     0.3203   0.3280   0.3338   0.3381   0.3401   0.3423   0.3472   0.3490
     0.3690   0.3719   0.3826   0.3862   0.3864   0.3880   0.3884   0.3957
     0.4060   0.4137   0.4230   0.4236   0.4313   0.4346   0.4429   0.4464
     0.4467   0.4477   0.4877   0.4880   0.4978   0.5004   0.5050   0.5106
     0.5141   0.5148   0.5384   0.5413   0.5690   0.5764   0.5767   0.5802
     0.6067   0.6197   0.6272   0.6751   0.6928   0.6938   0.6956   0.7018
     0.7037   0.7231   0.7236   0.7241   0.7253   0.7391   0.7607   0.7639
     0.7651   0.7657   0.7671   0.7675   0.7690   0.7706   0.7722   0.7759
     0.7864   0.7878   0.7879   0.7904   0.7925   0.7961   0.7985   0.8023
     0.8264   0.8268   0.8292   0.8369   0.8375   0.8382   0.8394   0.8457
     0.8457   0.8674   0.8681   0.8686   0.8701   0.8703   0.8712   0.8716
     0.8725   0.8855   0.8902   0.8903   0.8924   0.8937   0.8951   0.8960
     0.9004   0.9035   0.9090   0.9177   0.9565   0.9570   0.9683   0.9688
     0.9747   0.9793   0.9802   0.9829   0.9836   0.9853   0.9867   0.9893
     0.9920   0.9921   0.9935   0.9954   1.0274   1.0359   1.0363   1.0366
     1.0380   1.0531   1.0538   1.0554   1.0558   1.0566   1.0684   1.0695
     1.0838   1.0859   1.0877   1.0913   1.0936   1.0955   1.1393   1.1443
     1.1529   1.1913   1.1997   1.1999   1.2017   1.2061   1.2092   1.2106
     1.2168   1.2213   1.2232   1.2236   1.2280   1.2292   1.2366   1.2381
     1.2388   1.2411   1.2507   1.2517   1.2519   1.2529   1.2545   1.2579
     1.2687   1.2758   1.2758   1.2772   1.2784   1.2809   1.2819   1.2822
     1.2861   1.2941   1.2965   1.2985   1.2988   1.3032   1.3039   1.3044
     1.3061   1.3203   1.3235   1.3259   1.3344   1.3395   1.3405   1.3430
     1.3445   1.3493   1.3503   1.3514   1.3516   1.3516   1.3538   1.3899
     1.4027   1.4348   1.4394   1.4396   1.4401   1.4496   1.4557   1.4585
     1.4653   1.4710   1.4759   1.4812   1.4827   1.4925   1.4950   1.4981
     1.5041   1.5048   1.5074   1.5098   1.5102   1.5108   1.5128   1.5133
     1.5146   1.5148   1.5178   1.5217   1.5231   1.5286   1.5391   1.5406
     1.5418   1.5420   1.5455   1.5510   1.5529   1.5623   1.5806   1.5814
     1.5825   1.5870   1.5878   1.5892   1.5903   1.5989   1.6091   1.6108
     1.6112   1.6166   1.6225   1.6239   1.6250   1.6257   1.6279   1.6408
     1.6436   1.6446   1.6455   1.6474   1.6627   1.6628   1.6660   1.6797
     1.6820   1.6863   1.6912   1.6921   1.6922   1.6971   1.7045   1.7051
     1.7074   1.7087   1.7230   1.7242   1.7376   1.7384   1.7389   1.7407
     1.7574   1.7591   1.7595   1.7599   1.7616   1.7617   1.7642   1.7644
     1.7896   1.7915   1.7985   1.7986   1.8061   1.8123   1.8202   1.8290
     1.8299   1.8310   1.8327   1.8378   1.8450   1.8454   1.8508   1.8569
     1.8980   1.8986   1.9009   1.9057   2.0012   2.0017   2.0232   2.0263
     2.0464   2.0520   2.0532   2.0713   2.1005   2.1031   2.1047   2.1050
     2.1238   2.1259   2.1271   2.1393   2.1631   2.1650   2.4854   2.5052
     2.5362   2.7255   2.7281   2.7298   2.7304   2.8052   2.8084   2.8686
     2.8755   2.8761   2.8780   2.8898   2.8910   3.0146   3.0174   3.0629
     3.0706   3.0853   3.0919   3.1690   3.2329   3.2378   3.4716   3.4716
     3.5099   3.5282   3.6902   3.6996   3.9804   3.9825   4.3097   4.3156
     4.3336   4.3836   4.4202   4.4691   4.4776   4.6292   4.6294   4.6379
     4.6421   4.8022   4.8057   4.9114   4.9823   5.0040   5.0612   5.0673
     5.4009   5.4093   5.4154   5.4735   5.6643   5.6672   5.6675   5.6700
     5.7329   5.8036   5.9755   6.0318   6.1452   6.1680   6.2101   6.6529
     6.6870   6.6952   6.7259   6.7268   6.7389   6.7915   6.8544   6.8861
     6.9736   6.9759   7.0992   7.1085   7.3288   7.3448   7.3492   7.3732
     7.3839   7.3952   7.4069   7.4163   7.4335   7.4352   7.4480   7.5335
     7.6489   7.6523   7.6935   7.7094   7.7467   7.7992   8.0728   8.1035
     8.1207   8.1399   8.1559   8.3538   8.4179   8.4482   8.4496   8.5544
     8.6653   8.6656   8.7117   8.7124   8.7184   8.7263   8.8777   8.9248
     8.9440   9.0105   9.0140   9.0169   9.0228   9.0408   9.0662   9.0690
     9.1460   9.1753   9.1980   9.2203   9.3247   9.3418   9.4398   9.4512
     9.5084   9.5263   9.5389   9.6806   9.6834   9.6992   9.6998   9.7609
     9.7700   9.7788   9.7855   9.8459   9.9327   9.9487   9.9656   9.9726
    10.0955  10.0966  10.1261  10.2128

          k = 0.2500 0.0000 0.0000 (256240 PWs)   bands (ev):

   -17.3394 -15.8871 -15.5654 -15.4246 -14.9072 -14.5830 -14.5180 -14.4428
   -14.2986 -13.4800 -13.4157 -12.9915 -12.6675 -12.6526 -12.6397 -12.5340
   -11.7305 -11.6961 -11.6220 -11.5713 -10.6336 -10.3460 -10.3350 -10.2720
    -9.7964  -9.6364  -9.3532  -9.3299  -8.9424  -8.7008  -8.6834  -8.1438
    -7.1968  -7.1370  -7.1259  -7.1047  -7.0400  -6.9941  -6.5370  -6.2852
    -5.7858  -5.5989  -5.5311  -5.5166  -5.5043  -5.4854  -5.0069  -5.0045
    -4.9057  -4.7511  -4.6686  -4.5390  -4.2640  -4.1602  -4.1562  -4.1326
    -4.0406  -3.9728  -3.9529  -3.9303  -3.8232  -3.6950  -3.6900  -3.6708
    -3.6088  -3.5338  -3.5330  -3.4616  -3.3194  -3.2220  -3.2010  -3.1421
    -3.1336  -3.1247  -3.0911  -3.0431  -3.0199  -2.9591  -2.9373  -2.8639
    -2.7811  -2.7461  -2.7223  -2.6796  -2.5660  -2.4918  -2.4909  -2.4787
    -2.3979  -2.3296  -2.3110  -2.2569  -2.0936  -2.0712  -2.0630  -2.0262
    -1.9938  -1.7915  -1.7902  -1.7747  -1.7732  -1.7618  -1.6954  -1.6770
    -1.6588  -1.5931  -1.5898  -1.5691  -1.5403  -1.5224  -1.4914  -1.4912
    -1.4835  -1.4834  -1.4631  -1.4358  -1.4206  -1.4110  -1.4040  -1.3900
    -1.3796  -1.3393  -1.3337  -1.2940  -1.2903  -1.2735  -1.2732  -1.2696
    -1.2689  -1.2686  -1.2615  -1.2268  -1.2146  -1.2029  -1.1937  -1.1903
    -1.1810  -1.1772  -1.0620  -1.0384  -1.0257  -1.0203  -1.0014  -0.9617
    -0.9597  -0.9413  -0.9332  -0.9319  -0.9262  -0.9151  -0.9055  -0.9013
    -0.8964  -0.8752  -0.8728  -0.8710  -0.8646  -0.8525  -0.8249  -0.8244
    -0.8216  -0.8182  -0.8140  -0.8021  -0.8000  -0.7981  -0.7708  -0.7646
    -0.7409  -0.7397  -0.7378  -0.7366  -0.7324  -0.7097  -0.7049  -0.7021
    -0.6968  -0.6907  -0.6845  -0.6800  -0.6720  -0.6715  -0.6694  -0.6674
    -0.6651  -0.6640  -0.6541  -0.6489  -0.6353  -0.6319  -0.6241  -0.6152
    -0.5932  -0.5897  -0.5839  -0.5784  -0.5429  -0.5397  -0.5310  -0.5047
    -0.5044  -0.4906  -0.4860  -0.4825  -0.4754  -0.4597  -0.4586  -0.4447
    -0.4442  -0.4412  -0.4372  -0.4325  -0.4287  -0.4119  -0.3095  -0.2921
    -0.2889  -0.2870  -0.2653  -0.2570  -0.2556  -0.2537  -0.2392  -0.2383
    -0.2378  -0.2368  -0.2173  -0.2157  -0.2155  -0.2084  -0.2022  -0.1961
    -0.1746  -0.1743  -0.1728  -0.1712  -0.1700  -0.1492  -0.1492  -0.1457
    -0.1412  -0.0896  -0.0881  -0.0876  -0.0874  -0.0807  -0.0764  -0.0690
    -0.0630  -0.0546  -0.0458  -0.0452  -0.0250  -0.0221  -0.0217  -0.0161
    -0.0120   0.0155   0.0162   0.0189   0.0205   0.0295   0.0300   0.0380
     0.0406   0.0471   0.0549   0.0600   0.0699   0.0812   0.0836   0.0876
     0.1121   0.1129   0.1141   0.1158   0.1198   0.1294   0.1299   0.1311
     0.1364   0.1594   0.1594   0.1599   0.1707   0.1744   0.1933   0.1981
     0.2001   0.2007   0.2245   0.2419   0.2475   0.2494   0.2543   0.2560
     0.2601   0.2712   0.2915   0.2922   0.2984   0.2998   0.3046   0.3089
     0.3110   0.3143   0.3167   0.3175   0.3193   0.3197   0.3216   0.3245
     0.3435   0.3442   0.3450   0.3469   0.3524   0.3534   0.3699   0.3707
     0.3854   0.3897   0.4070   0.4249   0.4261   0.4277   0.4287   0.4296
     0.4331   0.4442   0.4502   0.4517   0.4526   0.4538   0.4548   0.4882
     0.4899   0.5153   0.5423   0.5641   0.5646   0.5669   0.5764   0.5819
     0.5824   0.5850   0.5861   0.5877   0.5930   0.5967   0.5983   0.6005
     0.6017   0.6078   0.6147   0.6180   0.6185   0.6213   0.6242   0.6322
     0.6325   0.6379   0.6426   0.6461   0.6479   0.6562   0.6662   0.6751
     0.6793   0.7133   0.7172   0.7211   0.7263   0.7356   0.7362   0.7531
     0.7539   0.7549   0.7582   0.7661   0.7747   0.7861   0.7889   0.7915
     0.7973   0.7977   0.8014   0.8024   0.8079   0.8083   0.8268   0.8307
     0.8356   0.8452   0.8539   0.8556   0.8590   0.8610   0.8629   0.8635
     0.8663   0.8688   0.8846   0.8909   0.8918   0.8977   0.9026   0.9055
     0.9086   0.9094   0.9142   0.9211   0.9223   0.9285   0.9303   0.9328
     0.9486   0.9508   0.9686   0.9706   0.9733   0.9751   0.9804   0.9816
     0.9831   1.0016   1.0141   1.0173   1.0347   1.0391   1.0518   1.0525
     1.0560   1.0585   1.0612   1.0641   1.0773   1.0815   1.0846   1.0871
     1.0905   1.0940   1.1051   1.1105   1.1155   1.1246   1.1268   1.1352
     1.1364   1.1373   1.1525   1.1622   1.1662   1.1677   1.1693   1.1729
     1.1913   1.1923   1.2009   1.2040   1.2048   1.2058   1.2081   1.2141
     1.2145   1.2200   1.2233   1.2555   1.2609   1.2632   1.2666   1.2671
     1.2687   1.2803   1.2821   1.2989   1.2995   1.3013   1.3038   1.3049
     1.3114   1.3121   1.3152   1.3258   1.3275   1.3300   1.3301   1.3308
     1.3335   1.3348   1.3372   1.3410   1.3435   1.3441   1.3493   1.3530
     1.3576   1.3606   1.3720   1.3729   1.3755   1.3790   1.3812   1.3869
     1.3879   1.3882   1.4022   1.4023   1.4103   1.4164   1.4187   1.4202
     1.4224   1.4247   1.4330   1.4447   1.4476   1.4489   1.4592   1.4622
     1.4666   1.4699   1.4759   1.4785   1.4905   1.4943   1.4978   1.5030
     1.5044   1.5056   1.5405   1.5415   1.5478   1.5547   1.5561   1.5580
     1.5625   1.5648   1.5659   1.5669   1.5721   1.5742   1.5842   1.5882
     1.5909   1.5911   1.5995   1.6094   1.6119   1.6121   1.6130   1.6171
     1.6224   1.6243   1.6249   1.6268   1.6285   1.6291   1.6348   1.6364
     1.6409   1.6422   1.6494   1.6565   1.6614   1.6640   1.6684   1.6689
     1.6690   1.6720   1.6775   1.6909   1.6912   1.6925   1.7088   1.7144
     1.7167   1.7234   1.7253   1.7336   1.7344   1.7350   1.7362   1.7394
     1.7395   1.7446   1.7460   1.7465   1.7478   1.7522   1.7548   1.7727
     1.7752   1.7756   1.7769   1.7799   1.7810   1.7813   1.7939   1.7944
     1.7976   1.8047   1.8067   1.8172   1.8182   1.8260   1.8271   1.8315
     1.8411   1.8530   1.8579   1.8655   1.8931   1.8995   1.9294   1.9348
     1.9375   1.9416   1.9659   2.0012   2.0555   2.0690   2.0724   2.0742
     2.0935   2.0943   2.1133   2.1475   2.3061   2.3408   2.3726   2.3828
     2.3960   2.3981   2.4285   2.5021   2.5551   2.5660   2.8649   2.8719
     2.8758   2.8780   3.0764   3.2852   3.2856   3.3195   3.5019   3.5025
     3.5271   3.5272   3.5748   3.5923   3.7544   3.7766   3.8867   3.8898
     3.9382   3.9418   4.0084   4.0133   4.0270   4.0277   4.0742   4.1780
     4.1814   4.2763   4.2810   4.4186   4.4772   4.4838   4.5390   4.5852
     4.6920   4.7770   4.9456   5.0620   5.1056   5.1490   5.2109   5.4568
     5.5251   5.5276   5.5378   5.6583   5.6686   5.7571   5.7756   5.8031
     5.8226   5.8860   5.8897   5.9188   5.9626   5.9919   6.0409   6.0492
     6.1156   6.1175   6.2094   6.3129   6.3172   6.3361   6.3741   6.4979
     6.9776   6.9952   7.0116   7.0226   7.0607   7.1046   7.1465   7.1550
     7.2628   7.3205   7.3356   7.3380   7.3443   7.3798   7.4252   7.5240
     7.5590   7.5853   7.6280   7.7089   7.7861   7.7974   7.8606   7.8724
     7.9084   8.0350   8.0464   8.0890   8.1009   8.1634   8.2120   8.3071
     8.3210   8.3653   8.3850   8.5445   8.5639   8.6013   8.6174   8.6279
     8.6581   8.6783   8.6964   8.7138   8.7506   8.8640   8.9447   8.9502
     8.9951   9.0715   9.2052   9.2262   9.3188   9.4345   9.4499   9.4683
     9.4815   9.4867   9.4944   9.5087   9.5118   9.5230   9.5479   9.5700
     9.5789   9.5841   9.6439   9.7073   9.7146   9.7956   9.8009  10.0244
    10.0263  10.0856  10.0917  10.2098

          k = 0.2500-0.2165 0.0000 (256316 PWs)   bands (ev):

   -17.3394 -15.8534 -15.7096 -15.0922 -15.0168 -14.8668 -14.7108 -14.1153
   -14.0293 -13.6248 -13.5612 -12.9403 -12.8589 -12.6762 -12.6254 -12.2186
   -12.1569 -11.5397 -11.4993 -10.9171 -10.8911 -10.6612 -10.6282 -10.2963
   -10.2384  -9.2327  -9.2130  -8.7162  -8.6936  -8.6394  -8.5918  -8.0911
    -8.0451  -7.9809  -7.9656  -6.3644  -6.2607  -6.2278  -6.2126  -6.1248
    -6.0897  -5.9060  -5.8468  -5.5977  -5.5307  -5.4015  -5.3954  -4.9905
    -4.7512  -4.5949  -4.5090  -4.4513  -4.4120  -4.3681  -4.3666  -4.2773
    -4.0429  -4.0379  -4.0174  -3.9237  -3.7911  -3.7725  -3.7424  -3.7131
    -3.5598  -3.5334  -3.4141  -3.3613  -3.2686  -3.2304  -3.1851  -3.1532
    -3.1510  -3.1266  -3.1091  -3.0110  -2.8470  -2.8103  -2.7967  -2.7499
    -2.6697  -2.6557  -2.6175  -2.6019  -2.6012  -2.5839  -2.5299  -2.4786
    -2.4494  -2.3997  -2.2263  -2.2060  -2.1365  -2.0400  -2.0087  -2.0024
    -1.9285  -1.9019  -1.8684  -1.8598  -1.8596  -1.8537  -1.7008  -1.7002
    -1.6887  -1.6628  -1.6579  -1.6248  -1.5372  -1.5159  -1.5043  -1.5036
    -1.5020  -1.4746  -1.4452  -1.4412  -1.4195  -1.4127  -1.4015  -1.3967
    -1.3917  -1.3874  -1.3695  -1.3679  -1.3665  -1.3657  -1.3583  -1.3575
    -1.3480  -1.3252  -1.2742  -1.2675  -1.1591  -1.1581  -1.0579  -1.0543
    -1.0464  -1.0387  -1.0198  -1.0184  -0.9832  -0.9671  -0.9651  -0.9614
    -0.9520  -0.9516  -0.9391  -0.9385  -0.9281  -0.9268  -0.9159  -0.9152
    -0.9043  -0.9010  -0.8978  -0.8920  -0.8860  -0.8835  -0.8793  -0.8716
    -0.8654  -0.8229  -0.8194  -0.8161  -0.8102  -0.8098  -0.8024  -0.8022
    -0.7742  -0.7711  -0.7680  -0.7566  -0.7294  -0.7288  -0.7247  -0.7178
    -0.7151  -0.7142  -0.6847  -0.6847  -0.6667  -0.6605  -0.6507  -0.6505
    -0.6460  -0.6442  -0.6403  -0.6380  -0.6185  -0.6142  -0.6114  -0.5934
    -0.5827  -0.5598  -0.5524  -0.5513  -0.5507  -0.5269  -0.4700  -0.4666
    -0.4660  -0.4602  -0.4597  -0.4580  -0.4126  -0.4109  -0.4030  -0.4016
    -0.4011  -0.3952  -0.3937  -0.3846  -0.3831  -0.3781  -0.3455  -0.3410
    -0.3397  -0.3129  -0.3041  -0.3022  -0.2782  -0.2569  -0.2536  -0.2524
    -0.2520  -0.2344  -0.2229  -0.2223  -0.2136  -0.2059  -0.1917  -0.1895
    -0.1821  -0.1774  -0.1741  -0.1509  -0.1438  -0.1428  -0.1347  -0.1272
    -0.1173  -0.0977  -0.0974  -0.0915  -0.0834  -0.0826  -0.0701  -0.0629
    -0.0580  -0.0573  -0.0531  -0.0522  -0.0482  -0.0467  -0.0414  -0.0402
    -0.0377  -0.0252  -0.0205  -0.0063  -0.0062   0.0106   0.0189   0.0243
     0.0355   0.0423   0.0460   0.0533   0.0707   0.0714   0.0734   0.0865
     0.0931   0.0940   0.0963   0.1002   0.1145   0.1337   0.1569   0.1571
     0.1717   0.1930   0.1941   0.2025   0.2028   0.2060   0.2073   0.2234
     0.2238   0.2285   0.2408   0.2417   0.2451   0.2571   0.2600   0.2650
     0.2680   0.2703   0.2710   0.2728   0.2800   0.2959   0.2997   0.3071
     0.3077   0.3089   0.3093   0.3123   0.3130   0.3138   0.3180   0.3209
     0.3264   0.3415   0.3419   0.3427   0.3431   0.3759   0.3775   0.3844
     0.3862   0.3923   0.3942   0.4109   0.4126   0.4200   0.4359   0.4417
     0.4431   0.4517   0.4533   0.4542   0.4613   0.4631   0.4650   0.4688
     0.4791   0.4829   0.4889   0.4904   0.5150   0.5184   0.5722   0.5792
     0.5890   0.5906   0.5921   0.5937   0.5949   0.5973   0.5977   0.6038
     0.6054   0.6072   0.6111   0.6245   0.6292   0.6317   0.6353   0.6421
     0.6428   0.6442   0.6487   0.6500   0.6644   0.6751   0.6796   0.6917
     0.6927   0.7035   0.7063   0.7149   0.7170   0.7514   0.7562   0.7597
     0.7645   0.7676   0.7691   0.7695   0.7807   0.7816   0.7862   0.7890
     0.7907   0.7912   0.7954   0.7975   0.8146   0.8220   0.8240   0.8314
     0.8337   0.8421   0.8452   0.8780   0.8783   0.8803   0.8807   0.9055
     0.9090   0.9135   0.9162   0.9195   0.9200   0.9235   0.9248   0.9270
     0.9351   0.9376   0.9409   0.9437   0.9473   0.9497   0.9577   0.9625
     0.9678   0.9688   0.9773   0.9777   0.9794   0.9807   0.9903   0.9908
     0.9925   0.9980   1.0005   1.0007   1.0136   1.0165   1.0209   1.0215
     1.0271   1.0281   1.0293   1.0304   1.0323   1.0350   1.0642   1.0664
     1.0760   1.0773   1.0846   1.0992   1.1104   1.1174   1.1207   1.1348
     1.1349   1.1365   1.1368   1.1409   1.1415   1.1444   1.1632   1.1635
     1.1649   1.1660   1.1670   1.1684   1.1774   1.1881   1.1942   1.1959
     1.2023   1.2054   1.2076   1.2146   1.2158   1.2368   1.2374   1.2414
     1.2657   1.2671   1.2738   1.2752   1.2757   1.2771   1.2789   1.2806
     1.2870   1.2910   1.3107   1.3122   1.3147   1.3286   1.3291   1.3412
     1.3478   1.3496   1.3531   1.3674   1.3728   1.3784   1.3911   1.3920
     1.3933   1.3983   1.3990   1.3998   1.4016   1.4025   1.4039   1.4055
     1.4064   1.4151   1.4171   1.4198   1.4285   1.4293   1.4317   1.4422
     1.4503   1.4599   1.4743   1.4760   1.4830   1.4847   1.4859   1.4879
     1.4891   1.4974   1.4980   1.5010   1.5029   1.5030   1.5090   1.5120
     1.5144   1.5157   1.5166   1.5210   1.5273   1.5280   1.5312   1.5341
     1.5347   1.5359   1.5379   1.5466   1.5510   1.5550   1.5566   1.5588
     1.5818   1.5830   1.5893   1.5897   1.6036   1.6070   1.6082   1.6129
     1.6214   1.6216   1.6310   1.6341   1.6368   1.6404   1.6419   1.6451
     1.6482   1.6511   1.6581   1.6593   1.6618   1.6702   1.6710   1.6737
     1.6867   1.6907   1.6928   1.6934   1.6945   1.6978   1.6984   1.6994
     1.7040   1.7044   1.7157   1.7168   1.7213   1.7219   1.7332   1.7366
     1.7395   1.7455   1.7478   1.7482   1.7487   1.7520   1.7551   1.7554
     1.7560   1.7583   1.7645   1.7649   1.7669   1.7889   1.7890   1.7934
     1.7982   1.8010   1.8134   1.8140   1.8333   1.8357   1.8387   1.8405
     1.8606   1.8617   1.8679   1.8685   1.8929   1.8978   1.9585   1.9610
     1.9734   1.9761   1.9858   2.0581   2.0616   2.0739   2.0768   2.0845
     2.0963   2.0981   2.0995   2.1143   2.1460   2.1487   2.1521   2.4338
     2.4372   2.4652   2.4686   2.5922   2.5964   2.8892   2.8941   2.9663
     3.0949   3.0960   3.0974   3.1039   3.1103   3.1324   3.1410   3.1767
     3.2926   3.2939   3.3837   3.3852   3.8450   3.8459   3.9114   3.9151
     3.9523   3.9615   4.1453   4.1468   4.1531   4.1556   4.2987   4.3046
     4.3688   4.3746   4.4697   4.4720   4.6814   4.6817   4.6918   4.8153
     4.8523   4.8551   4.9683   4.9727   5.0335   5.0875   5.1314   5.2130
     5.2178   5.3105   5.3160   5.3762   5.4808   5.5610   5.5649   5.6530
     5.7432   5.7475   5.7613   5.7662   5.7870   5.9824   6.0725   6.0789
     6.1800   6.1936   6.2503   6.2927   6.3571   6.6314   6.8869   6.8985
     6.9127   6.9159   7.0381   7.0461   7.1480   7.1524   7.3174   7.3221
     7.3814   7.3840   7.3975   7.4110   7.4656   7.5169   7.5219   7.5327
     7.5883   7.6329   7.6421   7.6493   7.6710   7.6949   7.7023   7.7313
     7.7321   7.9630   7.9684   8.0661   8.0978   8.1947   8.2670   8.2881
     8.2965   8.3088   8.4948   8.4957   8.5260   8.5419   8.5578   8.7069
     8.7956   8.8931   8.8977   8.9324   8.9347   8.9845   8.9966   9.0001
     9.0375   9.0747   9.1095   9.1629   9.2028   9.2162   9.2526   9.2726
     9.3463   9.3547   9.4194   9.4294   9.4779   9.4931   9.5191   9.5252
     9.5706   9.5796   9.6326   9.6485   9.6607   9.6878   9.6925   9.7183
     9.7418   9.8820   9.9945  10.0873

          k =-0.5000 0.0000 0.0000 (256496 PWs)   bands (ev):

   -17.3344 -15.5645 -15.4941 -15.2088 -15.1862 -15.1757 -14.9263 -14.1004
   -14.0881 -14.0650 -13.8993 -12.3221 -12.3063 -12.2837 -12.2162 -11.7291
   -11.7111 -11.4178 -11.4101 -11.3783 -11.3184 -10.7551 -10.7181 -10.3390
   -10.2952  -9.7539  -9.7327  -9.3592  -9.3161  -8.5314  -8.5231  -8.5035
    -8.4758  -7.0839  -7.0093  -6.9728  -6.9607  -6.9445  -6.8928  -5.5205
    -5.4900  -5.1383  -5.0039  -4.9958  -4.7824  -4.7005  -4.4995  -4.4974
    -4.4966  -4.4888  -4.3846  -4.3652  -4.3535  -4.3232  -4.2847  -4.2756
    -4.2708  -4.1427  -4.1281  -4.0581  -3.9909  -3.9660  -3.9629  -3.8477
    -3.7093  -3.6801  -3.6753  -3.6682  -3.6591  -3.4598  -3.2581  -3.2421
    -3.2372  -3.1149  -3.1131  -3.1127  -3.1124  -3.0514  -2.9893  -2.9773
    -2.9632  -2.9560  -2.9510  -2.8283  -2.4956  -2.4644  -2.4542  -2.4245
    -2.3814  -2.3729  -2.3695  -2.3073  -2.2907  -2.2669  -2.1136  -2.1011
    -2.0691  -2.0041  -1.9930  -1.9897  -1.9879  -1.7905  -1.5704  -1.5700
    -1.5698  -1.5692  -1.5676  -1.5653  -1.4754  -1.4514  -1.4409  -1.4334
    -1.3481  -1.3413  -1.3412  -1.3407  -1.3306  -1.2936  -1.2920  -1.2908
    -1.2890  -1.2256  -1.1937  -1.1886  -1.1789  -1.1777  -1.1539  -1.1352
    -1.1166  -1.1154  -1.1126  -1.1087  -1.0966  -1.0942  -1.0604  -1.0484
    -1.0481  -1.0428  -1.0421  -1.0405  -1.0329  -1.0315  -1.0287  -1.0265
    -1.0250  -1.0133  -0.9821  -0.9816  -0.9802  -0.9759  -0.9579  -0.9575
    -0.9573  -0.9551  -0.8936  -0.8931  -0.8734  -0.8721  -0.8706  -0.8700
    -0.8446  -0.8435  -0.8420  -0.8397  -0.8394  -0.8376  -0.8369  -0.8264
    -0.7975  -0.7972  -0.7960  -0.7953  -0.7746  -0.7730  -0.7446  -0.7437
    -0.7267  -0.6998  -0.6985  -0.6931  -0.6708  -0.6702  -0.6677  -0.6667
    -0.6407  -0.6402  -0.6397  -0.6387  -0.6349  -0.6339  -0.6232  -0.6219
    -0.6210  -0.6186  -0.6170  -0.6041  -0.5933  -0.5907  -0.5400  -0.5314
    -0.5297  -0.5272  -0.5271  -0.4839  -0.4828  -0.4013  -0.4005  -0.4000
    -0.3990  -0.3751  -0.3630  -0.3623  -0.3610  -0.3604  -0.3601  -0.3516
    -0.3496  -0.3312  -0.3208  -0.3204  -0.3194  -0.3178  -0.3151  -0.3056
    -0.3035  -0.2886  -0.2870  -0.2830  -0.2699  -0.1971  -0.1921  -0.1749
    -0.1621  -0.1594  -0.1499  -0.1456  -0.1451  -0.1433  -0.1301  -0.0988
    -0.0964  -0.0959  -0.0953  -0.0931  -0.0914  -0.0861  -0.0664  -0.0606
    -0.0591  -0.0585  -0.0575  -0.0553  -0.0346  -0.0195  -0.0182  -0.0180
    -0.0170   0.0152   0.0153   0.0156   0.0161   0.0276   0.0281   0.0600
     0.0602   0.0625   0.0631   0.0748   0.0788   0.0827   0.0881   0.1052
     0.1146   0.1158   0.1734   0.1747   0.1762   0.1764   0.1807   0.1810
     0.1827   0.1829   0.1968   0.2208   0.2215   0.2252   0.2347   0.2580
     0.2594   0.2849   0.2859   0.2865   0.2875   0.2877   0.2884   0.2895
     0.2896   0.2900   0.2914   0.2918   0.2933   0.3520   0.3546   0.3678
     0.3718   0.3770   0.3776   0.3803   0.3806   0.3826   0.3831   0.3865
     0.3889   0.3894   0.3919   0.3922   0.3969   0.3977   0.3988   0.4015
     0.4070   0.4125   0.4127   0.4263   0.4265   0.4268   0.4268   0.4276
     0.4283   0.4389   0.4392   0.4394   0.4397   0.4516   0.4523   0.4636
     0.4640   0.4646   0.4647   0.4707   0.4778   0.4941   0.4970   0.5710
     0.5906   0.5961   0.5962   0.5988   0.5993   0.6115   0.6304   0.6315
     0.6328   0.6329   0.6432   0.6447   0.6465   0.6516   0.6552   0.6557
     0.6562   0.6596   0.6624   0.6626   0.6642   0.6653   0.6669   0.6712
     0.6724   0.6808   0.6828   0.6924   0.6980   0.6982   0.6990   0.7090
     0.7092   0.7130   0.7145   0.7248   0.7392   0.7795   0.7972   0.8011
     0.8044   0.8047   0.8183   0.8193   0.8304   0.8309   0.8361   0.8368
     0.8396   0.8407   0.8408   0.8415   0.8430   0.8430   0.8455   0.8484
     0.8496   0.8500   0.8561   0.8575   0.8581   0.8593   0.8760   0.8804
     0.8948   0.8953   0.9089   0.9119   0.9154   0.9279   0.9288   0.9305
     0.9330   0.9389   0.9400   0.9409   0.9422   0.9455   0.9457   0.9487
     0.9565   0.9629   0.9632   0.9645   0.9749   0.9783   0.9817   0.9853
     1.0120   1.0162   1.0179   1.0185   1.0220   1.0262   1.0342   1.0380
     1.0527   1.0567   1.0752   1.0754   1.0767   1.0777   1.0784   1.0796
     1.0812   1.1232   1.1248   1.1458   1.1461   1.1490   1.1497   1.1507
     1.1510   1.1577   1.1597   1.1624   1.1647   1.1652   1.1666   1.1758
     1.1780   1.1948   1.1967   1.1988   1.2001   1.2156   1.2166   1.2175
     1.2178   1.2194   1.2201   1.2249   1.2379   1.2557   1.2561   1.2568
     1.2587   1.3146   1.3182   1.3242   1.3247   1.3253   1.3265   1.3573
     1.3584   1.3585   1.3596   1.3650   1.3705   1.3786   1.3801   1.3839
     1.3871   1.3895   1.4034   1.4044   1.4192   1.4213   1.4232   1.4262
     1.4264   1.4280   1.4287   1.4323   1.4344   1.4366   1.4373   1.4440
     1.4445   1.4453   1.4462   1.4478   1.4487   1.4526   1.4541   1.4834
     1.4848   1.4859   1.4865   1.4866   1.5161   1.5201   1.5238   1.5241
     1.5256   1.5272   1.5345   1.5416   1.5435   1.5516   1.5521   1.5525
     1.5527   1.5586   1.5625   1.5635   1.5638   1.5664   1.5720   1.5825
     1.5918   1.5977   1.6083   1.6097   1.6115   1.6183   1.6264   1.6266
     1.6267   1.6269   1.6273   1.6277   1.6296   1.6335   1.6408   1.6411
     1.6426   1.6428   1.6430   1.6434   1.6472   1.6511   1.6522   1.6523
     1.6525   1.6541   1.6555   1.6601   1.6607   1.6748   1.6768   1.6941
     1.6955   1.6961   1.6999   1.7015   1.7030   1.7040   1.7044   1.7206
     1.7218   1.7261   1.7270   1.7395   1.7402   1.7433   1.7479   1.7561
     1.7586   1.7590   1.7594   1.7684   1.7789   1.7804   1.7825   1.7865
     1.7898   1.7899   1.7905   1.7907   1.7938   1.7996   1.8079   1.8099
     1.8148   1.8231   1.8238   1.8241   1.8245   1.8343   1.8372   1.8406
     1.8467   1.8835   1.8909   1.8986   1.9170   1.9177   1.9208   1.9232
     1.9609   2.3334   2.3410   2.3422   2.3439   2.5251   2.5461   2.5562
     2.5635   2.5925   2.5933   2.6012   2.6021   2.8681   2.9220   2.9259
     2.9321   2.9768   3.1382   3.1436   3.1443   3.1659   3.4923   3.4934
     3.4972   3.4973   3.7809   3.7854   4.0538   4.0623   4.0651   4.0672
     4.2274   4.2291   4.2337   4.2345   4.3766   4.3781   4.3801   4.3840
     4.4651   4.4775   4.7389   4.8833   4.9018   5.0139   5.0353   5.0415
     5.0506   5.0568   5.1319   5.1332   5.1806   5.1927   5.3243   5.3256
     5.3514   5.3537   5.3598   5.3655   5.3782   5.3808   5.4025   5.4053
     5.4821   5.4836   5.5339   5.7129   5.8461   5.8506   5.8655   5.9110
     5.9768   5.9803   6.2111   6.2913   6.2945   6.3131   6.3171   6.3246
     6.3357   6.3397   6.3575   6.4929   6.7240   6.7315   6.7357   6.7553
     6.7912   6.8152   6.8766   7.3646   7.3909   7.3938   7.4145   7.4287
     7.4323   7.6078   7.8285   7.8908   7.8920   7.8927   7.8950   7.8974
     7.9023   7.9529   8.0369   8.1232   8.1331   8.1512   8.1778   8.1835
     8.1870   8.2118   8.3267   8.3600   8.3643   8.3795   8.3992   8.4264
     8.4367   8.4529   8.5078   8.5617   8.6310   8.6703   8.6859   8.7664
     9.1170   9.1208   9.1262   9.1278   9.1839   9.2138   9.2247   9.2424
     9.3564   9.3586   9.3615   9.3675   9.4560   9.5094   9.5658   9.5693
     9.6981   9.7598   9.7687   9.8093   9.8145   9.8277   9.8315   9.8428
     9.8575   9.9218   9.9619   9.9792

          k =-0.5000-0.2165 0.0000 (256328 PWs)   bands (ev):

   -17.3344 -15.4871 -15.4785 -15.4546 -15.2642 -14.7414 -14.7237 -14.7107
   -14.4849 -13.2873 -13.2810 -13.2493 -13.1449 -11.6687 -11.6684 -11.6165
   -11.5865 -11.2237 -11.2079 -11.1913 -11.1436 -11.0397 -11.0290 -11.0183
   -10.9289  -9.3443  -9.3417  -9.3104  -9.2804  -8.3846  -8.3753  -8.3648
    -8.3026  -7.6304  -7.6084  -7.6027  -7.5688  -5.6981  -5.5315  -5.5272
    -5.5003  -5.1078  -4.9176  -4.8865  -4.8814  -4.8758  -4.8735  -4.8706
    -4.8614  -4.8125  -4.6883  -4.6806  -4.6691  -4.3958  -4.0626  -4.0333
    -4.0265  -3.9245  -3.8935  -3.8924  -3.8901  -3.8774  -3.8184  -3.8068
    -3.7933  -3.7090  -3.5628  -3.5613  -3.5577  -3.4087  -3.3339  -3.3023
    -3.2715  -3.2680  -3.2537  -3.2372  -3.2341  -3.1591  -3.1532  -3.0948
    -3.0779  -2.9321  -2.7443  -2.7243  -2.7171  -2.4446  -2.2719  -2.2716
    -2.2707  -2.2681  -2.2201  -2.2172  -2.2149  -2.1872  -1.9895  -1.9679
    -1.9239  -1.9206  -1.7913  -1.7884  -1.7820  -1.7794  -1.7508  -1.7125
    -1.7040  -1.6999  -1.6893  -1.6556  -1.6341  -1.5730  -1.4962  -1.4945
    -1.4914  -1.4879  -1.4123  -1.4016  -1.3673  -1.3043  -1.1846  -1.1835
    -1.1834  -1.1831  -1.1825  -1.1794  -1.1759  -1.1468  -1.1461  -1.1419
    -1.1409  -1.1245  -1.1240  -1.1228  -1.1219  -1.0792  -1.0761  -1.0747
    -1.0740  -1.0734  -1.0732  -1.0720  -1.0673  -1.0634  -1.0486  -1.0483
    -1.0477  -1.0475  -0.9996  -0.9978  -0.9976  -0.9963  -0.9350  -0.9244
    -0.9192  -0.9183  -0.8805  -0.8802  -0.8789  -0.8785  -0.8640  -0.8615
    -0.8608  -0.8595  -0.8427  -0.8149  -0.8101  -0.8099  -0.8082  -0.8072
    -0.8056  -0.8055  -0.8053  -0.8020  -0.7739  -0.7704  -0.7492  -0.7486
    -0.7427  -0.7405  -0.7319  -0.7317  -0.7277  -0.7269  -0.7264  -0.7254
    -0.7247  -0.7232  -0.7095  -0.6412  -0.6208  -0.6077  -0.5748  -0.5732
    -0.5712  -0.5684  -0.5418  -0.5413  -0.5412  -0.5408  -0.4915  -0.4608
    -0.4602  -0.4590  -0.4580  -0.4516  -0.4514  -0.4511  -0.4509  -0.4495
    -0.4462  -0.4442  -0.4060  -0.3891  -0.3890  -0.3875  -0.3840  -0.3797
    -0.3791  -0.3767  -0.3672  -0.3586  -0.3578  -0.3543  -0.3498  -0.2649
    -0.2648  -0.2603  -0.2597  -0.2574  -0.2566  -0.2524  -0.2452  -0.1888
    -0.1884  -0.1874  -0.1849  -0.1385  -0.1376  -0.1373  -0.1364  -0.1180
    -0.1179  -0.1160  -0.1151  -0.0930  -0.0915  -0.0857  -0.0843  -0.0792
    -0.0781  -0.0777  -0.0758  -0.0393  -0.0377  -0.0372  -0.0291   0.0357
     0.0361   0.0401   0.0407   0.0540   0.0541   0.0550   0.0553   0.0699
     0.0702   0.0704   0.0717   0.1520   0.1531   0.1534   0.1546   0.1561
     0.1567   0.1582   0.1600   0.1606   0.1613   0.1619   0.1638   0.1980
     0.1982   0.1982   0.1990   0.2101   0.2105   0.2110   0.2111   0.2152
     0.2159   0.2162   0.2175   0.2831   0.2835   0.2844   0.2870   0.3085
     0.3099   0.3116   0.3139   0.3557   0.3584   0.3619   0.3665   0.3710
     0.3724   0.3889   0.3893   0.3909   0.3921   0.3943   0.3963   0.3989
     0.3997   0.4001   0.4022   0.4033   0.4048   0.4113   0.4119   0.4132
     0.4136   0.4157   0.4159   0.4168   0.4172   0.4197   0.4319   0.4344
     0.4347   0.4351   0.4407   0.4614   0.4616   0.4616   0.4617   0.4710
     0.4725   0.4728   0.4758   0.5219   0.5220   0.5225   0.5226   0.5548
     0.5557   0.5558   0.5569   0.6168   0.6194   0.6337   0.6370   0.6372
     0.6397   0.6407   0.6452   0.6527   0.6536   0.6563   0.6583   0.6601
     0.6609   0.6677   0.6696   0.6701   0.6763   0.6773   0.6786   0.6808
     0.6815   0.6823   0.6862   0.6871   0.6914   0.6917   0.6958   0.7108
     0.7245   0.7393   0.7602   0.7633   0.7637   0.7673   0.7685   0.7691
     0.7717   0.7738   0.7759   0.7766   0.7784   0.7913   0.8126   0.8186
     0.8190   0.8207   0.8209   0.8246   0.8288   0.8293   0.8641   0.8649
     0.8656   0.8668   0.8690   0.8777   0.8784   0.8785   0.8800   0.8808
     0.8835   0.8855   0.8864   0.8869   0.8894   0.8908   0.9001   0.9040
     0.9042   0.9047   0.9062   0.9179   0.9209   0.9227   0.9790   0.9804
     0.9881   0.9893   0.9922   0.9928   0.9948   0.9961   0.9971   0.9992
     1.0007   1.0024   1.0025   1.0143   1.0187   1.0269   1.0365   1.0383
     1.0385   1.0393   1.0404   1.0412   1.0421   1.0471   1.0753   1.0923
     1.0935   1.0968   1.0984   1.1228   1.1232   1.1246   1.1253   1.1420
     1.1432   1.1557   1.1566   1.1571   1.1600   1.1653   1.1837   1.1838
     1.1868   1.1871   1.2353   1.2371   1.2375   1.2387   1.2417   1.2692
     1.2693   1.2705   1.2717   1.2873   1.3215   1.3228   1.3232   1.3275
     1.3377   1.3393   1.3433   1.3497   1.3511   1.3517   1.3522   1.3544
     1.3547   1.3551   1.3555   1.3579   1.3581   1.3607   1.3617   1.3682
     1.3831   1.3850   1.3870   1.3890   1.3903   1.3908   1.3924   1.3946
     1.3952   1.3984   1.4050   1.4090   1.4100   1.4118   1.4267   1.4331
     1.4333   1.4350   1.4351   1.4430   1.4446   1.4503   1.4517   1.4541
     1.4549   1.4590   1.4695   1.4936   1.4994   1.5023   1.5027   1.5051
     1.5060   1.5108   1.5279   1.5303   1.5323   1.5330   1.5345   1.5363
     1.5491   1.5494   1.5559   1.5576   1.5687   1.5700   1.5794   1.5801
     1.5817   1.5828   1.5832   1.5905   1.5906   1.5916   1.5918   1.5975
     1.5984   1.5992   1.6022   1.6562   1.6622   1.6642   1.6642   1.6646
     1.6648   1.6650   1.6657   1.6661   1.6735   1.6783   1.6800   1.6814
     1.6838   1.6849   1.6866   1.6880   1.6942   1.6944   1.6945   1.6970
     1.7012   1.7022   1.7045   1.7049   1.7051   1.7063   1.7066   1.7118
     1.7183   1.7217   1.7245   1.7263   1.7273   1.7277   1.7293   1.7587
     1.7593   1.7595   1.7596   1.7728   1.7730   1.7732   1.7765   1.7805
     1.7898   1.7933   1.7950   1.8062   1.8124   1.8131   1.8141   1.8389
     1.8685   1.8696   1.8725   1.8834   1.8840   1.8841   1.8850   1.9107
     1.9138   1.9150   1.9178   1.9198   1.9217   1.9218   1.9220   1.9261
     1.9267   1.9282   1.9299   2.1414   2.1441   2.1459   2.1464   2.6311
     2.6462   2.6479   2.6553   2.8010   2.8669   2.8674   2.8725   2.9430
     3.1030   3.1050   3.1063   3.1447   3.3923   3.3974   3.4021   3.4036
[...]
     atom    5 type  1   force =     0.00000212   -0.00002085    0.00004028
     atom    6 type  1   force =     0.00000241    0.00000648    0.00002595
     atom    7 type  1   force =     0.00000326   -0.00001320    0.00002433
     atom    8 type  1   force =    -0.00000059    0.00000550    0.00001265
     atom    9 type  1   force =     0.00000457    0.00000597    0.00006254
     atom   10 type  1   force =    -0.00000115   -0.00003804    0.00004887
     atom   11 type  1   force =    -0.00000001    0.00000008    0.00003012
     atom   12 type  1   force =     0.00000328   -0.00003785    0.00003569
     atom   13 type  1   force =    -0.00000251   -0.00007383    0.00002824
     atom   14 type  1   force =     0.00000017   -0.00007160   -0.00001805
     atom   15 type  1   force =    -0.00000042   -0.00005904   -0.00001513
     atom   16 type  1   force =    -0.00000419   -0.00007202   -0.00002203
     atom   17 type  1   force =    -0.00000184   -0.00004180   -0.00000272
     atom   18 type  1   force =    -0.00001051   -0.00006556    0.00005876
     atom   19 type  1   force =    -0.00000312   -0.00007002    0.00000316
     atom   20 type  1   force =     0.00000709   -0.00006250    0.00007255
     atom   21 type  1   force =     0.00000891   -0.00003357    0.00004930
     atom   22 type  1   force =     0.00000538   -0.00005821    0.00009222
     atom   23 type  1   force =    -0.00000228   -0.00002717    0.00004311
     atom   24 type  1   force =    -0.00000220   -0.00005565    0.00008643
     atom   25 type  1   force =     0.00000117   -0.00002225    0.00001137
     atom   26 type  1   force =     0.00000854    0.00001173    0.00005187
     atom   27 type  1   force =     0.00000094    0.00000436    0.00006623
     atom   28 type  1   force =     0.00000007    0.00000998    0.00004522
     atom   29 type  1   force =    -0.00000328   -0.00006870    0.00008572
     atom   30 type  1   force =     0.00002789   -0.00003813    0.00008851
     atom   31 type  1   force =     0.00000055   -0.00007644    0.00010812
     atom   32 type  1   force =    -0.00002683   -0.00003477    0.00007767
     atom   33 type  1   force =     0.00000275   -0.00009066    0.00004072
     atom   34 type  1   force =    -0.00000904   -0.00008092    0.00006290
     atom   35 type  1   force =    -0.00001073   -0.00007433    0.00002429
     atom   36 type  1   force =     0.00000035   -0.00008645    0.00006902
     atom   37 type  1   force =    -0.00000380   -0.00005004    0.00008930
     atom   38 type  1   force =     0.00000255   -0.00006090    0.00003560
     atom   39 type  1   force =     0.00000272   -0.00005376    0.00004936
     atom   40 type  1   force =    -0.00000597   -0.00005408    0.00002054
     atom   41 type  1   force =     0.00000111   -0.00000730    0.00006814
     atom   42 type  1   force =     0.00001676    0.00001437    0.00003711
     atom   43 type  1   force =    -0.00000618    0.00000714    0.00008596
     atom   44 type  1   force =    -0.00001965   -0.00001003    0.00000104
     atom   45 type  1   force =     0.00000332    0.00001696    0.00004893
     atom   46 type  1   force =    -0.00000305   -0.00005465    0.00013119
     atom   47 type  1   force =    -0.00001154   -0.00000713    0.00002525
     atom   48 type  1   force =    -0.00000478   -0.00006137    0.00014353
     atom   49 type  1   force =    -0.00000940   -0.00011686    0.00004155
     atom   50 type  1   force =    -0.00003069   -0.00005154    0.00004428
     atom   51 type  1   force =     0.00000519   -0.00008936    0.00010993
     atom   52 type  1   force =     0.00002938   -0.00006097    0.00008147
     atom   53 type  1   force =    -0.00000907   -0.00006450    0.00007322
     atom   54 type  1   force =    -0.00000181   -0.00001665    0.00004444
     atom   55 type  1   force =    -0.00000861   -0.00003480    0.00004401
     atom   56 type  1   force =    -0.00001722    0.00001500    0.00000129
     atom   57 type  1   force =     0.00000124   -0.00000007   -0.00000180
     atom   58 type  1   force =    -0.00001269   -0.00000492    0.00007252
     atom   59 type  1   force =    -0.00001587    0.00003328    0.00001723
     atom   60 type  1   force =     0.00000288   -0.00001826    0.00007274
     atom   61 type  1   force =    -0.00000151   -0.00002852   -0.00000885
     atom   62 type  1   force =    -0.00000776    0.00001343   -0.00000859
     atom   63 type  1   force =    -0.00002782   -0.00000275    0.00006262
     atom   64 type  1   force =    -0.00000187   -0.00002172   -0.00001898
     atom   65 type  1   force =    -0.00001748   -0.00004367    0.00010956
     atom   66 type  1   force =     0.00002132   -0.00012059    0.00006750
     atom   67 type  1   force =    -0.00000038   -0.00005892    0.00013157
     atom   68 type  1   force =    -0.00005914   -0.00012237    0.00008017
     atom   69 type  1   force =    -0.00003620   -0.00001654    0.00016068
     atom   70 type  1   force =    -0.00003532   -0.00005004    0.00002811
     atom   71 type  1   force =     0.00005573   -0.00005484    0.00006369
     atom   72 type  1   force =     0.00001699   -0.00004760    0.00004352
     atom   73 type  1   force =    -0.00000762    0.00002531    0.00000586
     atom   74 type  1   force =    -0.00003751   -0.00000036    0.00002206
     atom   75 type  1   force =    -0.00002914   -0.00001140    0.00004965
     atom   76 type  1   force =     0.00002416   -0.00000056    0.00004670
     atom   77 type  1   force =    -0.00000464   -0.00003201    0.00005566
     atom   78 type  1   force =     0.00000928    0.00002504    0.00004528
     atom   79 type  1   force =    -0.00000779   -0.00005825    0.00003774
     atom   80 type  1   force =    -0.00003131    0.00001470    0.00007023
     atom   81 type  1   force =     0.00000120   -0.00013333   -0.00003221
     atom   82 type  1   force =    -0.00003174   -0.00017184    0.00008020
     atom   83 type  1   force =    -0.00004816   -0.00010801   -0.00009767
     atom   84 type  1   force =    -0.00005020   -0.00011538   -0.00001183
     atom   85 type  1   force =     0.00003553   -0.00004198   -0.00023883
     atom   86 type  1   force =     0.00014292   -0.00012813   -0.00015589
     atom   87 type  1   force =    -0.00010078   -0.00010915    0.00015181
     atom   88 type  1   force =    -0.00017881   -0.00008872   -0.00008124
     atom   89 type  1   force =    -0.00001188   -0.00008835    0.00020856
     atom   90 type  1   force =     0.00005303    0.00007261   -0.00012484
     atom   91 type  1   force =    -0.00003728   -0.00006570    0.00002080
     atom   92 type  1   force =    -0.00001094   -0.00000381   -0.00000984
     atom   93 type  1   force =     0.00006555    0.00003240   -0.00004430
     atom   94 type  1   force =    -0.00000118   -0.00002874    0.00004734
     atom   95 type  1   force =    -0.00000489   -0.00004048    0.00008648
     atom   96 type  1   force =    -0.00003612   -0.00006691   -0.00003082
     atom   97 type  1   force =    -0.00001677    0.00008844   -0.00012310
     atom   98 type  1   force =    -0.00004046    0.00000564    0.00006428
     atom   99 type  1   force =    -0.00000831    0.00002560    0.00003530
     atom  100 type  1   force =     0.00003438    0.00003943    0.00012166
     atom  101 type  2   force =    -0.00022326   -0.00086988   -0.00113430
     atom  102 type  2   force =    -0.00055156   -0.00029238   -0.00143090
     atom  103 type  2   force =     0.00007302    0.00079669    0.00014230
     atom  104 type  2   force =    -0.00044370   -0.00001022    0.00003996
     atom  105 type  2   force =    -0.00007867   -0.00006077    0.00053871
     atom  106 type  2   force =    -0.00051636   -0.00016620    0.00069109
     atom  107 type  2   force =     0.00042760    0.00015363   -0.00089091
     atom  108 type  2   force =    -0.00007600    0.00053281   -0.00020488
     atom  109 type  2   force =    -0.00019855   -0.00016393   -0.00079206
     atom  110 type  2   force =     0.00033865   -0.00056299   -0.00090617
     atom  111 type  2   force =    -0.00001045    0.00020550    0.00034466
     atom  112 type  2   force =    -0.00125459    0.00102111    0.00033160
     atom  113 type  2   force =    -0.00031896    0.00082917    0.00003400
     atom  114 type  2   force =    -0.00057180    0.00007694   -0.00038923
     atom  115 type  2   force =     0.00013763   -0.00102959   -0.00047929
     atom  116 type  2   force =    -0.00025063   -0.00042733   -0.00105421
     atom  117 type  2   force =     0.00082784    0.00030311   -0.00068927
     atom  118 type  2   force =    -0.00025965    0.00001083    0.00082161
     atom  119 type  2   force =    -0.00012427   -0.00040969    0.00143809
     atom  120 type  2   force =     0.00096180    0.00010292    0.00161567
     atom  121 type  3   force =     0.00185664    0.00010435   -0.00165688
     atom  122 type  4   force =    -0.00131129    0.00147062   -0.00004426
     atom  123 type  2   force =     0.00046196    0.00061783   -0.00029401
     atom  124 type  2   force =    -0.00052659    0.00024621    0.00042228
     atom  125 type  2   force =     0.00049841   -0.00035769   -0.00045617
     atom  126 type  2   force =    -0.00013550   -0.00044980   -0.00088752
     atom  127 type  2   force =     0.00051865   -0.00093096   -0.00018895
     atom  128 type  2   force =    -0.00117107    0.00035288   -0.00082486
     atom  129 type  2   force =    -0.00048433    0.00046515    0.00011812
     atom  130 type  2   force =     0.00023935    0.00046820    0.00088317
     atom  131 type  2   force =     0.00064104   -0.00006181   -0.00070578
     atom  132 type  2   force =    -0.00039347    0.00036257    0.00094202
     atom  133 type  2   force =     0.00034326    0.00058985    0.00077999
     atom  134 type  2   force =    -0.00107070    0.00014322    0.00030890
     atom  135 type  2   force =     0.00001715   -0.00075770   -0.00000308
     atom  136 type  2   force =     0.00069995   -0.00006490   -0.00035305
     atom  137 type  2   force =    -0.00005072    0.00097147   -0.00008441
     atom  138 type  2   force =    -0.00109545   -0.00012541   -0.00024587
     atom  139 type  2   force =     0.00040403    0.00044725   -0.00078066
     atom  140 type  2   force =     0.00020094    0.00043373    0.00118940
     atom  141 type  2   force =    -0.00058332    0.00031204   -0.00074027
     atom  142 type  2   force =     0.00057741   -0.00055651    0.00061358
     atom  143 type  2   force =     0.00017215   -0.00046518    0.00013493
     atom  144 type  2   force =     0.00111018    0.00054010    0.00008096
     atom  145 type  2   force =     0.00119855    0.00018865   -0.00002066
     atom  146 type  2   force =     0.00006694   -0.00039818   -0.00092951
     atom  147 type  2   force =    -0.00055805    0.00035114    0.00016510
     atom  148 type  2   force =     0.00045178    0.00069187    0.00001084
     atom  149 type  2   force =    -0.00030910   -0.00030326   -0.00048485
     atom  150 type  2   force =     0.00084433   -0.00043242    0.00108729

     Total force =     0.007972     Total SCF correction =     0.000263

     number of scf cycles    =  18
     number of bfgs steps    =  17

     energy   old            =  -12731.8535267107 Ry
     energy   new            =  -12731.8536022667 Ry

     CASE: energy  _new < energy  _old

     new trust radius        =       0.0259813100 bohr
     new conv_thr            =       0.0000000076 Ry


ATOMIC_POSITIONS (angstrom)
Cu       0.000918624  -0.000609107   7.369381325
Cu       1.845210481   1.707416330   7.370766934
Cu       3.689902298  -0.000042781   7.369610791
Cu       5.534584499   1.707308309   7.370802753
Cu       0.000799662   3.411608413   7.370706184
Cu       1.845253630   5.113223644   7.367755127
Cu       3.689887790   3.411219660   7.370178365
Cu       5.534411128   5.113243996   7.367944421
Cu       0.000748168   6.814697174   7.365424071
Cu       1.845364457   8.515896655   7.366131545
Cu       3.689860778   6.814613671   7.365490092
Cu       5.534322328   8.515916977   7.366311843
Cu       0.000866278  10.216252525   7.369182738
Cu       1.845492288  11.916986010   7.371857539
Cu       3.689874308  10.216458467   7.369822551
Cu       5.534374042  11.917002773   7.371864757
Cu       0.000910378  13.620779983   7.370856200
Cu       1.845659465  15.328591483   7.369395450
Cu       3.689977036  13.620366837   7.371397212
Cu       5.534267775  15.328619795   7.369367691
Cu       0.000886907   1.706399806   9.200826874
Cu       1.845452339  -0.001681511   9.197115262
Cu       3.689978874   1.707365954   9.201315176
Cu       5.534505741  -0.001638210   9.197209367
Cu       0.000848876   5.116908180   9.203359501
Cu       1.845468168   3.413486687   9.203500547
Cu       3.689820056   5.116271555   9.202605190
Cu       5.534347950   3.413391517   9.203491582
Cu       0.000799484   8.513659747   9.202965950
Cu       1.845265383   6.815890994   9.201633837
Cu       3.689784549   8.513222241   9.203033885
Cu       5.534366584   6.815913227   9.201823115
Cu       0.000861132  11.915581070   9.204771609
Cu       1.845496661  10.212579271   9.205740565
Cu       3.689913184  11.915267979   9.206457454
Cu       5.534216161  10.212645216   9.205734642
Cu       0.000937426  15.328665851   9.197005631
Cu       1.845488849  13.621288763   9.201318346
Cu       3.689981083  15.328861700   9.196871964
Cu       5.534402204  13.621298772   9.201392276
Cu       0.001066289  -0.004542111  11.034601986
Cu       1.846223112   1.704849760  11.037216312
Cu       3.690138626  -0.004124676  11.033781990
Cu       5.534059312   1.704942302  11.037429189
Cu       0.001089420   3.414440059  11.041381287
Cu       1.845963743   5.119944224  11.047868736
Cu       3.690041321   3.416136287  11.044508402
Cu       5.533923125   5.119723358  11.047630761
Cu       0.000865046   6.817163525  11.051459375
Cu       1.845519310   8.509752543  11.052457767
Cu       3.689732635   6.815437886  11.051814913
Cu       5.533952120   8.509921282  11.052405878
Cu       0.000901037  10.209798001  11.049393305
Cu       1.845368981  11.915017160  11.044987201
Cu       3.689626788  10.207373605  11.051124714
Cu       5.534386839  11.915044613  11.044903078
Cu       0.000900823  13.622724149  11.039320524
Cu       1.845270596  15.329331383  11.035434024
Cu       3.690000878  13.624553196  11.039634928
Cu       5.534836454  15.329429690  11.035444894
Cu       0.001384567   1.702271991  12.865861385
Cu       1.846760998  -0.004835586  12.871623903
Cu       3.690547635   1.699821636  12.871023829
Cu       5.533930005  -0.004863638  12.871686968
Cu       0.001168163   5.116093173  12.888306900
Cu       1.849604551   3.411945789  12.876256215
Cu       3.689904849   5.122038248  12.900893405
Cu       5.531085242   3.411822718  12.876237526
Cu       0.000958329   8.510857902  12.903879820
Cu       1.847646004   6.815008603  12.907227038
Cu       3.689050392   8.503437469  12.907827121
Cu       5.531836877   6.814701678  12.906066725
Cu       0.000707205  11.917915174  12.881307556
Cu       1.844264290  10.208672738  12.890845023
Cu       3.689736153  11.918950506  12.875209534
Cu       5.534791209  10.209338983  12.889912370
Cu       0.001108380  15.329504814  12.876312174
Cu       1.843505045  13.626677155  12.875555746
Cu       3.690143646  15.332650041  12.876050997
Cu       5.536366354  13.626724909  12.875436143
Cu       0.001386788   0.002675247  14.681723784
Cu       1.847304023   1.700454702  14.680777266
Cu       3.690799374  -0.001390560  14.696530375
Cu       5.534356201   1.699567021  14.681685157
Cu       0.000871210   3.399714039  14.675921020
Cu       1.856238112   5.100394079  14.708711579
Cu       3.691226152   3.391282061  14.697232286
Cu       5.524047994   5.101048246  14.708437990
Cu       0.000386254   6.802592681  14.717879756
Cu       1.845863313   8.518032790  14.731477470
Cu       3.689484736   6.816114250  14.773448646
Cu       5.532622453   8.517803677  14.727975055
Cu      -0.000777163  10.222065495  14.713588324
Cu       1.840785324  11.923913833  14.687622352
Cu       3.689860866  10.227288727  14.697296390
Cu       5.538152594  11.924782385  14.688511167
Cu       0.000857360  13.627655144  14.699003590
Cu       1.845981052  15.332800644  14.689630298
Cu       3.689749834  13.623110394  14.682711907
Cu       5.534468140  15.332575784  14.689873150
C       -0.002373830   0.716693680  17.615899917
C       -0.001047963   2.135341205  17.603464693
C        1.226660940   0.007076281  17.605740661
C        1.226806174   2.845169043  17.575615616
C        2.455420621   0.716453384  17.591936572
C        2.456042872   2.135384484  17.574938341
C        3.686025631   0.005492985  17.593439138
C        3.687186614   2.848715262  17.566949799
C        4.917071858   0.716523719  17.601390262
C        4.918216505   2.135207690  17.582824376
C        6.145689751   0.007245692  17.611187530
C        6.148386032   2.844035258  17.579365582
C       -0.002010551   4.974169532  17.544799142
C       -0.000718103   6.393533647  17.528944027
C        1.225514422   4.264043220  17.547446670
C        1.233047519   7.101379760  17.586105544
C        2.454648094   4.979769527  17.567707742
C        2.442869821   6.386626227  17.628404587
C        3.686353676   4.263973681  17.574736361
C        3.686647693   7.096781688  18.031472194
O        3.624665856   7.033451823  19.551302547
H        4.522801874   7.263772388  19.880267242
C        4.919071324   4.977251086  17.567873439
C        4.930653357   6.385330817  17.629258650
C        6.148519456   4.262571139  17.550039023
C        6.142928980   7.100927179  17.586685480
C       -0.001552541   9.231964503  17.603241444
C       -0.001311592  10.655302801  17.577454848
C        1.228101581   8.526034771  17.614291599
C        1.229576129  11.365939738  17.572582213
C        2.463128996   9.236912346  17.625576308
C        2.459705660  10.658220383  17.592871637
C        3.686561042   8.543658353  17.681268034
C        3.687428117  11.368113016  17.606262606
C        4.910237028   9.237310158  17.626103765
C        4.915380841  10.659474947  17.599479097
C        6.146117226   8.525971301  17.616341053
C        6.145879468  11.366439830  17.580835568
C       -0.002602309  13.496950163  17.572244472
C       -0.004290448  14.916961148  17.589237315
C        1.228548493  12.786095916  17.577502424
C        1.225139276  15.626393989  17.593041341
C        2.456678448  13.496363184  17.597879060
C        2.455648710  14.916147821  17.598002914
C        3.686255095  12.788103212  17.605892166
C        3.684601267  15.624993144  17.609263974
C        4.915285930  13.496118705  17.600856587
C        4.913957449  14.916046284  17.600497583
C        6.144608339  12.786608556  17.582010058
C        6.144622788  15.626558290  17.594732086



     Writing output data file gc.save
     Check: negative starting charge=   -0.001759
     NEW-OLD atomic charge density approx. for the potential
     Check: negative starting charge=   -0.001759

     negative rho (up, down):  1.873E-03 0.000E+00

     total cpu time spent up to now is    55197.5 secs

     Self-consistent Calculation

     iteration #  1     ecut=    80.00 Ry     beta=0.70
     Davidson diagonalization with overlap
     ethr =  1.00E-06,  avg # of iterations =  3.0

     Threshold (ethr) on eigenvalues was too large:
     Diagonalizing with lowered threshold

     Davidson diagonalization with overlap
     ethr =  7.93E-08,  avg # of iterations =  1.3

     negative rho (up, down):  1.761E-03 0.000E+00

     total cpu time spent up to now is    55657.8 secs

     total energy              =  -12731.85362362 Ry
     Harris-Foulkes estimate   =  -12731.85373250 Ry
     estimated scf accuracy    <       0.00103214 Ry

     iteration #  2     ecut=    80.00 Ry     beta=0.70
     Davidson diagonalization with overlap
