
     Program PWSCF v.5.4.0 starts on 10Apr2017 at 10:46:39 

     This program is part of the open-source Quantum ESPRESSO suite
     for quantum simulation of materials; please cite
         "P. Giannozzi et al., J. Phys.:Condens. Matter 21 395502 (2009);
          URL http://www.quantum-espresso.org", 
     in publications or presentations arising from this work. More details at
     http://www.quantum-espresso.org/quote

     Parallel version (MPI & OpenMP), running on      56 processor cores
     Number of MPI processes:                56
     Threads/MPI process:                     1
     R & G space division:  proc/nbgrp/npool/nimage =      56
     Waiting for input...
     Reading input from standard input

     Current dimensions of program PWSCF are:
     Max number of different atomic species (ntypx) = 10
     Max number of k-points (npk) =  40000
     Max angular momentum in pseudopotentials (lmaxx) =  3

     -------------------------------------
     Parameters for Dispersion Correction:
     -------------------------------------
       atom      VdW radius       C_6     

        Cu         2.952        374.666
        C          2.744         60.710
        H          1.892          4.857

     Subspace diagonalization in iterative solution of the eigenvalue problem:
     one sub-group per band group will be used
     scalapack distributed-memory algorithm (size of sub-group:  5*  5 procs)

 
     Parallelization info
     --------------------
     sticks:   dense  smooth     PW     G-vecs:    dense   smooth      PW
     Min         204     204     54                36612    36612    4962
     Max         205     205     55                36617    36617    4968
     Sum       11433   11433   3039              2050409  2050409  278033
 


     bravais-lattice index     =            0
     lattice parameter (alat)  =      13.9425  a.u.
     unit-cell volume          =   21209.0878 (a.u.)^3
     number of atoms/cell      =          153
     number of atomic types    =            3
     number of electrons       =      1300.00
     number of Kohn-Sham states=          780
     kinetic-energy cutoff     =      80.0000  Ry
     charge density cutoff     =     320.0000  Ry
     convergence threshold     =      1.0E-08
     mixing beta               =       0.7000
     number of iterations used =            8  local-TF  mixing
     Exchange-correlation      =  SLA  PW   PBE  PBE ( 1  4  3  4 0 0)
     nstep                     =           50


     celldm(1)=  13.942539  celldm(2)=   0.000000  celldm(3)=   0.000000
     celldm(4)=   0.000000  celldm(5)=   0.000000  celldm(6)=   0.000000

     crystal axes: (cart. coord. in units of alat)
               a(1) = (   1.000000   0.000000   0.000000 )  
               a(2) = (   0.000000   2.309401   0.000000 )  
               a(3) = (   0.000000   0.000000   3.388418 )  

     reciprocal axes: (cart. coord. in units 2 pi/alat)
               b(1) = (  1.000000  0.000000  0.000000 )  
               b(2) = (  0.000000  0.433013  0.000000 )  
               b(3) = (  0.000000  0.000000  0.295123 )  


     PseudoPot. # 1 for Cu read from file:
     /home/549/hxw549/Short/pseudopotentials/Cu.pbe-n-van_ak.UPF
     MD5 check sum: 601f7c30f7467666bec936e0661ce3e1
     Pseudo is Ultrasoft + core correction, Zval = 11.0
     Generated by new atomic code, or converted to UPF format
     Using radial grid of  867 points,  6 beta functions with: 
                l(1) =   0
                l(2) =   0
                l(3) =   1
                l(4) =   1
                l(5) =   2
                l(6) =   2
     Q(r) pseudized with  8 coefficients,  rinner =    1.400   1.400   1.400
                                                       1.400   1.400

     PseudoPot. # 2 for C  read from file:
     /home/549/hxw549/Short/pseudopotentials/C.pbe-mt_gipaw.UPF
     MD5 check sum: 5ac2f21f2c440b14befe521540822c15
     Pseudo is Norm-conserving, Zval =  4.0
     Generated by new atomic code, or converted to UPF format
     Using radial grid of 1073 points,  1 beta functions with: 
                l(1) =   0

     PseudoPot. # 3 for H  read from file:
     /home/549/hxw549/Short/pseudopotentials/H.pbe-van_ak.UPF
     MD5 check sum: 077eb6d537518a38cb46c6de387227b7
     Pseudo is Ultrasoft, Zval =  1.0
     Generated by new atomic code, or converted to UPF format
     Using radial grid of  615 points,  1 beta functions with: 
                l(1) =   0
     Q(r) pseudized with  8 coefficients,  rinner =    0.800

     atomic species   valence    mass     pseudopotential
        Cu            11.00    63.54600     Cu( 1.00)
        C              4.00    12.01070     C ( 1.00)
        H              1.00     1.00783     H ( 1.00)

     No symmetry found



   Cartesian axes

     site n.     atom                  positions (alat units)
         1           Cu  tau(   1) = (   0.0000053  -0.0048271   0.9907412  )
         2           Cu  tau(   2) = (   0.2509304   0.2238701   0.9916562  )
         3           Cu  tau(   3) = (   0.5001310  -0.0064204   0.9900985  )
         4           Cu  tau(   4) = (   0.7494070   0.2236077   0.9906972  )
         5           Cu  tau(   5) = (   0.0002529   0.4567277   0.9933836  )
         6           Cu  tau(   6) = (   0.2504494   0.6906931   0.9971448  )
         7           Cu  tau(   7) = (   0.5003781   0.4571034   0.9939578  )
         8           Cu  tau(   8) = (   0.7506562   0.6907326   0.9972681  )
         9           Cu  tau(   9) = (   0.0008164   0.9233393   0.9984869  )
        10           Cu  tau(  10) = (   0.2503566   1.1563439   0.9969614  )
        11           Cu  tau(  11) = (   0.5005781   0.9234204   0.9990170  )
        12           Cu  tau(  12) = (   0.7506974   1.1563288   0.9970523  )
        13           Cu  tau(  13) = (   0.0001642   1.3909129   0.9927875  )
        14           Cu  tau(  14) = (   0.2509701   1.6242919   0.9904160  )
        15           Cu  tau(  15) = (   0.5003840   1.3905784   0.9931032  )
        16           Cu  tau(  16) = (   0.7493083   1.6244945   0.9897737  )
        17           Cu  tau(  17) = (  -0.0000001   1.8529759   0.9902346  )
        18           Cu  tau(  18) = (   0.2488028   2.0787651   0.9891086  )
        19           Cu  tau(  19) = (   0.5001053   1.8542866   0.9890911  )
        20           Cu  tau(  20) = (   0.7512310   2.0786548   0.9910402  )
        21           Cu  tau(  21) = (   0.0007142   0.2219099   1.2410512  )
        22           Cu  tau(  22) = (   0.2507256  -0.0062375   1.2431854  )
        23           Cu  tau(  23) = (   0.5002411   0.2224119   1.2418938  )
        24           Cu  tau(  24) = (   0.7498937  -0.0051531   1.2437057  )
        25           Cu  tau(  25) = (   0.0013064   0.6870247   1.2445288  )
        26           Cu  tau(  26) = (   0.2512651   0.4531538   1.2417220  )
        27           Cu  tau(  27) = (   0.5017207   0.6873362   1.2443422  )
        28           Cu  tau(  28) = (   0.7505581   0.4532343   1.2418404  )
        29           Cu  tau(  29) = (   0.0013314   1.1610096   1.2434399  )
        30           Cu  tau(  30) = (   0.2505880   0.9238569   1.2462365  )
        31           Cu  tau(  31) = (   0.5015499   1.1605416   1.2435344  )
        32           Cu  tau(  32) = (   0.7520910   0.9238087   1.2452769  )
        33           Cu  tau(  33) = (   0.0005595   1.6260005   1.2401103  )
        34           Cu  tau(  34) = (   0.2512646   1.3948643   1.2405166  )
        35           Cu  tau(  35) = (   0.5002568   1.6256672   1.2410995  )
        36           Cu  tau(  36) = (   0.7503760   1.3948272   1.2407303  )
        37           Cu  tau(  37) = (  -0.0002720   2.0785933   1.2455232  )
        38           Cu  tau(  38) = (   0.2506810   1.8539709   1.2424464  )
        39           Cu  tau(  39) = (   0.5007624   2.0781947   1.2452143  )
        40           Cu  tau(  40) = (   0.7498836   1.8527919   1.2433451  )
        41           Cu  tau(  41) = (   0.0005386  -0.0058513   1.4996851  )
        42           Cu  tau(  42) = (   0.2512955   0.2196618   1.4933431  )
        43           Cu  tau(  43) = (   0.5010767  -0.0056978   1.4974203  )
        44           Cu  tau(  44) = (   0.7509892   0.2208636   1.4943177  )
        45           Cu  tau(  45) = (   0.0015334   0.4489602   1.4899363  )
        46           Cu  tau(  46) = (   0.2513764   0.6843604   1.4870899  )
        47           Cu  tau(  47) = (   0.5022730   0.4486397   1.4903726  )
        48           Cu  tau(  48) = (   0.7531859   0.6850679   1.4889643  )
        49           Cu  tau(  49) = (  -0.0011393   0.9249235   1.4882906  )
        50           Cu  tau(  50) = (   0.2511067   1.1642916   1.4867632  )
        51           Cu  tau(  51) = (   0.5020554   0.9245171   1.4875544  )
        52           Cu  tau(  52) = (   0.7532126   1.1640199   1.4877075  )
        53           Cu  tau(  53) = (   0.0014354   1.3992498   1.4888078  )
        54           Cu  tau(  54) = (   0.2510930   1.6282546   1.4923364  )
        55           Cu  tau(  55) = (   0.5021018   1.4004815   1.4887517  )
        56           Cu  tau(  56) = (   0.7509580   1.6269600   1.4938945  )
        57           Cu  tau(  57) = (   0.0004222   1.8531290   1.4995238  )
        58           Cu  tau(  58) = (   0.2512866   2.0782701   1.5007106  )
        59           Cu  tau(  59) = (   0.5010680   1.8530933   1.4977682  )
        60           Cu  tau(  60) = (   0.7501530   2.0784176   1.5015930  )
        61           Cu  tau(  61) = (   0.0012868   0.2216103   1.7499921  )
        62           Cu  tau(  62) = (   0.2510424  -0.0044549   1.7541430  )
        63           Cu  tau(  63) = (   0.5024258   0.2196191   1.7479647  )
        64           Cu  tau(  64) = (   0.7520005  -0.0042862   1.7562024  )
        65           Cu  tau(  65) = (   0.0001472   0.6828165   1.7283701  )
        66           Cu  tau(  66) = (   0.2515387   0.4468166   1.7366500  )
        67           Cu  tau(  67) = (   0.5027598   0.6841572   1.7270597  )
        68           Cu  tau(  68) = (   0.7527384   0.4493507   1.7408855  )
        69           Cu  tau(  69) = (  -0.0002680   1.1672260   1.7288445  )
        70           Cu  tau(  70) = (   0.2469726   0.9247504   1.7216120  )
        71           Cu  tau(  71) = (   0.5030587   1.1668837   1.7256664  )
        72           Cu  tau(  72) = (   0.7482221   0.9258319   1.7292349  )
        73           Cu  tau(  73) = (   0.0011795   1.6259363   1.7504131  )
        74           Cu  tau(  74) = (   0.2509037   1.4023494   1.7362095  )
        75           Cu  tau(  75) = (   0.5024730   1.6274181   1.7485045  )
        76           Cu  tau(  76) = (   0.7533241   1.3995047   1.7415611  )
        77           Cu  tau(  77) = (   0.0017300   2.0781160   1.7594063  )
        78           Cu  tau(  78) = (   0.2510450   1.8514597   1.7541436  )
        79           Cu  tau(  79) = (   0.5009889   2.0785613   1.7551506  )
        80           Cu  tau(  80) = (   0.7519341   1.8516964   1.7561326  )
        81           Cu  tau(  81) = (   0.0012060   0.0013395   2.0114584  )
        82           Cu  tau(  82) = (   0.2547482   0.2275128   2.0018400  )
        83           Cu  tau(  83) = (   0.5030510  -0.0053226   2.0100546  )
        84           Cu  tau(  84) = (   0.7493645   0.2304410   2.0033568  )
        85           Cu  tau(  85) = (  -0.0007607   0.4590233   1.9880676  )
        86           Cu  tau(  86) = (   0.2455097   0.6835119   1.9620974  )
        87           Cu  tau(  87) = (   0.5021380   0.4587395   1.9858465  )
        88           Cu  tau(  88) = (   0.7549503   0.6932374   1.9709948  )
        89           Cu  tau(  89) = (   0.0028103   0.9251844   1.9618420  )
        90           Cu  tau(  90) = (   0.2447937   1.1672490   1.9619977  )
        91           Cu  tau(  91) = (   0.4981803   0.9311797   1.9416858  )
        92           Cu  tau(  92) = (   0.7548581   1.1562677   1.9736428  )
        93           Cu  tau(  93) = (  -0.0001142   1.3897331   1.9909854  )
        94           Cu  tau(  94) = (   0.2548703   1.6206316   2.0028207  )
        95           Cu  tau(  95) = (   0.5013430   1.3884776   1.9882050  )
        96           Cu  tau(  96) = (   0.7494400   1.6174743   2.0042290  )
        97           Cu  tau(  97) = (   0.0014435   1.8461276   2.0125111  )
        98           Cu  tau(  98) = (   0.2494936   2.0784100   2.0112473  )
        99           Cu  tau(  99) = (   0.5030419   1.8529221   2.0094383  )
       100           Cu  tau( 100) = (   0.7545132   2.0783162   2.0128092  )
       101           C   tau( 101) = (  -0.0003846   0.0983988   2.4933119  )
       102           C   tau( 102) = (  -0.0002505   0.2910158   2.5117220  )
       103           C   tau( 103) = (   0.1666015   0.0014265   2.4923006  )
       104           C   tau( 104) = (   0.1664075   0.3872691   2.5224171  )
       105           C   tau( 105) = (   0.3328715   0.0984330   2.4957617  )
       106           C   tau( 106) = (   0.3330274   0.2914798   2.5070466  )
       107           C   tau( 107) = (   0.4997559   0.0014943   2.4947029  )
       108           C   tau( 108) = (   0.4995710   0.3877884   2.5193231  )
       109           C   tau( 109) = (   0.6662994   0.0984926   2.4959721  )
       110           C   tau( 110) = (   0.6663617   0.2914375   2.5095472  )
       111           C   tau( 111) = (   0.8329349   0.0015785   2.4874838  )
       112           C   tau( 112) = (   0.8330097   0.3874251   2.5226581  )
       113           C   tau( 113) = (  -0.0001449   0.6739249   2.5663670  )
       114           C   tau( 114) = (  -0.0002546   0.8664351   2.5813927  )
       115           C   tau( 115) = (   0.1666133   0.5783282   2.5524572  )
       116           C   tau( 116) = (   0.1667076   0.9627304   2.5862567  )
       117           C   tau( 117) = (   0.3331165   0.6733650   2.5736939  )
       118           C   tau( 118) = (   0.3323981   0.8655956   2.5971313  )
       119           C   tau( 119) = (   0.4994701   0.5782380   2.5533219  )
       120           C   tau( 120) = (   0.5000306   0.9637046   2.5961784  )
       121           C   tau( 121) = (   0.6663394   0.6742001   2.5666572  )
       122           C   tau( 122) = (   0.6663942   0.8663353   2.5876858  )
       123           C   tau( 123) = (   0.8331242   0.5786848   2.5516048  )
       124           C   tau( 124) = (   0.8331360   0.9627839   2.5814089  )
       125           C   tau( 125) = (  -0.0004255   1.2501733   2.5483268  )
       126           C   tau( 126) = (  -0.0003820   1.4414697   2.5191058  )
       127           C   tau( 127) = (   0.1663525   1.1548792   2.5647300  )
       128           C   tau( 128) = (   0.1662906   1.5376800   2.5088987  )
       129           C   tau( 129) = (   0.3330844   1.2511386   2.5530212  )
       130           C   tau( 130) = (   0.3330673   1.4416723   2.5209762  )
       131           C   tau( 131) = (   0.4994795   1.1557864   2.5719212  )
       132           C   tau( 132) = (   0.4996337   1.5378034   2.5089703  )
       133           C   tau( 133) = (   0.6661491   1.2509101   2.5514114  )
       134           C   tau( 134) = (   0.6662847   1.4418218   2.5218542  )
       135           C   tau( 135) = (   0.8328536   1.1550885   2.5646509  )
       136           C   tau( 136) = (   0.8328987   1.5378945   2.5085758  )
       137           C   tau( 137) = (  -0.0000318   1.8275425   2.4868669  )
       138           C   tau( 138) = (   0.0001183   2.0207721   2.4841751  )
       139           C   tau( 139) = (   0.1666946   1.7306591   2.4961041  )
       140           C   tau( 140) = (   0.1665986   2.1176846   2.4890966  )
       141           C   tau( 141) = (   0.3331519   1.8275394   2.4963746  )
       142           C   tau( 142) = (   0.3335091   2.0206316   2.4922121  )
       143           C   tau( 143) = (   0.4999937   1.7308011   2.4977500  )
       144           C   tau( 144) = (   0.4996481   2.1177713   2.4919910  )
       145           C   tau( 145) = (   0.6664105   1.8276658   2.4926617  )
       146           C   tau( 146) = (   0.6665394   2.0208051   2.4890099  )
       147           C   tau( 147) = (   0.8331898   1.7306913   2.4915662  )
       148           C   tau( 148) = (   0.8330418   2.1177556   2.4836106  )
       149           H   tau( 149) = (   0.4421107   0.9101058   2.3566799  )
       150           C   tau( 150) = (   0.3911607   0.8989198   2.2199510  )
       151           H   tau( 151) = (   0.5365597   0.8961358   2.1710749  )
       152           H   tau( 152) = (   0.3141348   0.7708068   2.2211983  )
       153           H   tau( 153) = (   0.3075157   1.0218509   2.2100030  )

     number of k points=     6  gaussian smearing, width (Ry)=  0.1000
                       cart. coord. in units 2pi/alat
        k(    1) = (   0.0000000   0.0000000   0.0000000), wk =   0.2500000
        k(    2) = (   0.0000000  -0.2165064   0.0000000), wk =   0.2500000
        k(    3) = (   0.2500000   0.0000000   0.0000000), wk =   0.5000000
        k(    4) = (   0.2500000  -0.2165064   0.0000000), wk =   0.5000000
        k(    5) = (  -0.5000000   0.0000000   0.0000000), wk =   0.2500000
        k(    6) = (  -0.5000000  -0.2165064   0.0000000), wk =   0.2500000

     Dense  grid:  2050409 G-vectors     FFT dimensions: (  80, 192, 270)

     Largest allocated arrays     est. size (Mb)     dimensions
        Kohn-Sham Wavefunctions        54.80 Mb     (    4604,  780)
        NL pseudopotentials           130.18 Mb     (    4604, 1853)
        Each V/rho on FFT grid          1.17 Mb     (   76800)
        Each G-vector array             0.28 Mb     (   36616)
        G-vector shells                 0.14 Mb     (   17932)
     Largest temporary arrays     est. size (Mb)     dimensions
        Auxiliary wavefunctions       219.18 Mb     (    4604, 3120)
        Each subspace H/S matrix        5.94 Mb     (     624,  624)
        Each <psi_i|beta_j> matrix     22.05 Mb     (    1853,  780)
        Arrays for rho mixing           9.38 Mb     (   76800,    8)

     Initial potential from superposition of free atoms
     Check: negative starting charge=   -0.001551

     starting charge 1274.31747, renormalised to 1300.00000

     negative rho (up, down):  1.582E-03 0.000E+00
     Starting wfc are 1296 randomized atomic wfcs

     total cpu time spent up to now is      107.0 secs

     Self-consistent Calculation

     iteration #  1     ecut=    80.00 Ry     beta=0.70
     Davidson diagonalization with overlap
     c_bands:  5 eigenvalues not converged
     c_bands:  4 eigenvalues not converged
     ethr =  1.00E-04,  avg # of iterations = 43.0

     negative rho (up, down):  2.593E+01 0.000E+00

     total cpu time spent up to now is     2397.5 secs

     total energy              =   -9878.68069419 Ry
     Harris-Foulkes estimate   =  -18131.23689100 Ry
     estimated scf accuracy    <  212583.95314184 Ry

     iteration #  2     ecut=    80.00 Ry     beta=0.70
     Davidson diagonalization with overlap
     ethr =  1.00E-02,  avg # of iterations = 14.8

     negative rho (up, down):  3.283E+01 0.000E+00

     total cpu time spent up to now is     3394.8 secs

     total energy              =  -12050.13654801 Ry
     Harris-Foulkes estimate   =  -13735.32632991 Ry
     estimated scf accuracy    <   27993.11556675 Ry

     iteration #  3     ecut=    80.00 Ry     beta=0.70
     Davidson diagonalization with overlap
     ethr =  1.00E-02,  avg # of iterations =  8.2

     negative rho (up, down):  3.488E+01 0.000E+00

     total cpu time spent up to now is     3926.6 secs

     total energy              =  -12338.53451902 Ry
     Harris-Foulkes estimate   =  -13478.62567778 Ry
     estimated scf accuracy    <    8603.05102495 Ry

     iteration #  4     ecut=    80.00 Ry     beta=0.70
     Davidson diagonalization with overlap
     ethr =  1.00E-02,  avg # of iterations =  5.3

     negative rho (up, down):  2.455E+01 0.000E+00

     total cpu time spent up to now is     4409.0 secs

     total energy              =  -12859.33870411 Ry
     Harris-Foulkes estimate   =  -13121.38331143 Ry
     estimated scf accuracy    <    1237.35723350 Ry

     iteration #  5     ecut=    80.00 Ry     beta=0.70
     Davidson diagonalization with overlap
     ethr =  1.00E-02,  avg # of iterations =  3.2

     negative rho (up, down):  1.510E+01 0.000E+00

     total cpu time spent up to now is     4682.5 secs

     total energy              =  -12828.26279325 Ry
     Harris-Foulkes estimate   =  -12938.29988171 Ry
     estimated scf accuracy    <     818.72033410 Ry

     iteration #  6     ecut=    80.00 Ry     beta=0.70
     Davidson diagonalization with overlap
     ethr =  1.00E-02,  avg # of iterations =  2.0

     negative rho (up, down):  1.005E+01 0.000E+00

     total cpu time spent up to now is     4887.4 secs

     total energy              =  -12819.15469312 Ry
     Harris-Foulkes estimate   =  -12858.99800505 Ry
     estimated scf accuracy    <     481.53184337 Ry

     iteration #  7     ecut=    80.00 Ry     beta=0.70
     Davidson diagonalization with overlap
     ethr =  1.00E-02,  avg # of iterations =  2.0

     negative rho (up, down):  8.307E+00 0.000E+00

     total cpu time spent up to now is     5064.7 secs

     total energy              =  -12806.85214174 Ry
     Harris-Foulkes estimate   =  -12829.56171865 Ry
     estimated scf accuracy    <     307.10480508 Ry

     iteration #  8     ecut=    80.00 Ry     beta=0.70
     Davidson diagonalization with overlap
     ethr =  1.00E-02,  avg # of iterations =  2.3

     negative rho (up, down):  6.269E+00 0.000E+00

     total cpu time spent up to now is     5248.1 secs

     total energy              =  -12791.74772175 Ry
     Harris-Foulkes estimate   =  -12813.59585925 Ry
     estimated scf accuracy    <     231.02179879 Ry

     iteration #  9     ecut=    80.00 Ry     beta=0.70
     Davidson diagonalization with overlap
     ethr =  1.00E-02,  avg # of iterations =  1.0

     negative rho (up, down):  4.237E+00 0.000E+00

     total cpu time spent up to now is     5414.1 secs

     total energy              =  -12773.02711073 Ry
     Harris-Foulkes estimate   =  -12794.47319101 Ry
     estimated scf accuracy    <     219.50981236 Ry

     iteration # 10     ecut=    80.00 Ry     beta=0.70
     Davidson diagonalization with overlap
     ethr =  1.00E-02,  avg # of iterations =  1.7

     negative rho (up, down):  7.076E-01 0.000E+00

     total cpu time spent up to now is     5587.8 secs

     total energy              =  -12739.05868075 Ry
     Harris-Foulkes estimate   =  -12778.08518617 Ry
     estimated scf accuracy    <     163.29016274 Ry

     iteration # 11     ecut=    80.00 Ry     beta=0.70
     Davidson diagonalization with overlap
     ethr =  1.00E-02,  avg # of iterations =  3.0

     negative rho (up, down):  5.647E-01 0.000E+00

     total cpu time spent up to now is     5779.3 secs

     total energy              =  -12736.54163492 Ry
     Harris-Foulkes estimate   =  -12750.30496651 Ry
     estimated scf accuracy    <     146.14986790 Ry

     iteration # 12     ecut=    80.00 Ry     beta=0.70
     Davidson diagonalization with overlap
     ethr =  1.00E-02,  avg # of iterations =  2.0

     negative rho (up, down):  1.262E+00 0.000E+00

     total cpu time spent up to now is     5958.9 secs

     total energy              =  -12731.61108298 Ry
     Harris-Foulkes estimate   =  -12744.06310555 Ry
     estimated scf accuracy    <      68.10951643 Ry

     iteration # 13     ecut=    80.00 Ry     beta=0.70
     Davidson diagonalization with overlap
     ethr =  5.24E-03,  avg # of iterations =  2.0

     negative rho (up, down):  4.658E+00 0.000E+00

     total cpu time spent up to now is     6136.9 secs

     total energy              =  -12723.57268315 Ry
     Harris-Foulkes estimate   =  -12734.84770241 Ry
     estimated scf accuracy    <      57.25890265 Ry

     iteration # 14     ecut=    80.00 Ry     beta=0.70
     Davidson diagonalization with overlap
     ethr =  4.40E-03,  avg # of iterations =  1.0

     negative rho (up, down):  4.533E+00 0.000E+00

     total cpu time spent up to now is     6303.7 secs

     total energy              =  -12720.29582044 Ry
     Harris-Foulkes estimate   =  -12726.56973293 Ry
     estimated scf accuracy    <      31.44072197 Ry

     iteration # 15     ecut=    80.00 Ry     beta=0.70
     Davidson diagonalization with overlap
     ethr =  2.42E-03,  avg # of iterations =  4.7

     negative rho (up, down):  5.427E+00 0.000E+00

     total cpu time spent up to now is     6515.9 secs

     total energy              =  -12720.82800209 Ry
     Harris-Foulkes estimate   =  -12723.25112011 Ry
     estimated scf accuracy    <      21.28233250 Ry

     iteration # 16     ecut=    80.00 Ry     beta=0.70
     Davidson diagonalization with overlap
     ethr =  1.64E-03,  avg # of iterations =  3.3

     negative rho (up, down):  4.504E+00 0.000E+00

     total cpu time spent up to now is     6710.5 secs

     total energy              =  -12720.49491591 Ry
     Harris-Foulkes estimate   =  -12721.74640662 Ry
     estimated scf accuracy    <      12.97591433 Ry

     iteration # 17     ecut=    80.00 Ry     beta=0.70
     Davidson diagonalization with overlap
     ethr =  9.98E-04,  avg # of iterations =  3.2

     negative rho (up, down):  4.130E+00 0.000E+00

     total cpu time spent up to now is     6902.1 secs

     total energy              =  -12720.17993353 Ry
     Harris-Foulkes estimate   =  -12721.02896362 Ry
     estimated scf accuracy    <       8.79980035 Ry

     iteration # 18     ecut=    80.00 Ry     beta=0.70
     Davidson diagonalization with overlap
     ethr =  6.77E-04,  avg # of iterations =  5.3

     negative rho (up, down):  2.123E+00 0.000E+00

     total cpu time spent up to now is     7119.0 secs

     total energy              =  -12718.07433749 Ry
     Harris-Foulkes estimate   =  -12720.30694820 Ry
     estimated scf accuracy    <       7.00263232 Ry

     iteration # 19     ecut=    80.00 Ry     beta=0.70
     Davidson diagonalization with overlap
     ethr =  5.39E-04,  avg # of iterations =  2.7

     negative rho (up, down):  1.971E+00 0.000E+00

     total cpu time spent up to now is     7305.8 secs

     total energy              =  -12716.87560960 Ry
     Harris-Foulkes estimate   =  -12718.48506236 Ry
     estimated scf accuracy    <      19.52547035 Ry

     iteration # 20     ecut=    80.00 Ry     beta=0.70
     Davidson diagonalization with overlap
     ethr =  5.39E-04,  avg # of iterations =  2.5

     negative rho (up, down):  8.121E-01 0.000E+00

     total cpu time spent up to now is     7491.3 secs

     total energy              =  -12716.47923842 Ry
     Harris-Foulkes estimate   =  -12717.57246913 Ry
     estimated scf accuracy    <       6.16135907 Ry

     iteration # 21     ecut=    80.00 Ry     beta=0.70
     Davidson diagonalization with overlap
     ethr =  4.74E-04,  avg # of iterations =  4.3

     negative rho (up, down):  6.142E-01 0.000E+00

     total cpu time spent up to now is     7698.8 secs

     total energy              =  -12715.74079361 Ry
     Harris-Foulkes estimate   =  -12716.74992635 Ry
     estimated scf accuracy    <       3.63479353 Ry

     iteration # 22     ecut=    80.00 Ry     beta=0.70
     Davidson diagonalization with overlap
     ethr =  2.80E-04,  avg # of iterations =  4.2

     negative rho (up, down):  5.291E-01 0.000E+00

     total cpu time spent up to now is     7906.4 secs

     total energy              =  -12715.33548967 Ry
     Harris-Foulkes estimate   =  -12715.82673617 Ry
     estimated scf accuracy    <       2.75129208 Ry

     iteration # 23     ecut=    80.00 Ry     beta=0.70
     Davidson diagonalization with overlap
     ethr =  2.12E-04,  avg # of iterations =  4.5

     negative rho (up, down):  4.727E-01 0.000E+00

     total cpu time spent up to now is     8116.2 secs

     total energy              =  -12715.02706050 Ry
     Harris-Foulkes estimate   =  -12715.39552223 Ry
     estimated scf accuracy    <       3.10150409 Ry

     iteration # 24     ecut=    80.00 Ry     beta=0.70
     Davidson diagonalization with overlap
     ethr =  2.12E-04,  avg # of iterations =  6.3

     negative rho (up, down):  5.045E-01 0.000E+00

     total cpu time spent up to now is     8348.6 secs

     total energy              =  -12714.81757221 Ry
     Harris-Foulkes estimate   =  -12715.12900994 Ry
     estimated scf accuracy    <       4.92763152 Ry

     iteration # 25     ecut=    80.00 Ry     beta=0.70
     Davidson diagonalization with overlap
     ethr =  2.12E-04,  avg # of iterations =  6.2

     negative rho (up, down):  5.944E-01 0.000E+00

     total cpu time spent up to now is     8582.4 secs

     total energy              =  -12714.74816258 Ry
     Harris-Foulkes estimate   =  -12714.93997829 Ry
     estimated scf accuracy    <       2.76755216 Ry

     iteration # 26     ecut=    80.00 Ry     beta=0.70
     Davidson diagonalization with overlap
     ethr =  2.12E-04,  avg # of iterations =  1.0

     negative rho (up, down):  2.543E-01 0.000E+00

     total cpu time spent up to now is     8749.8 secs

     total energy              =  -12714.69390270 Ry
     Harris-Foulkes estimate   =  -12714.90297104 Ry
     estimated scf accuracy    <       1.47193491 Ry

     iteration # 27     ecut=    80.00 Ry     beta=0.70
     Davidson diagonalization with overlap
     ethr =  1.13E-04,  avg # of iterations =  8.0

     negative rho (up, down):  1.950E-01 0.000E+00

     total cpu time spent up to now is     9009.4 secs

     total energy              =  -12714.76286781 Ry
     Harris-Foulkes estimate   =  -12714.79662305 Ry
     estimated scf accuracy    <       0.22229427 Ry

     iteration # 28     ecut=    80.00 Ry     beta=0.70
     Davidson diagonalization with overlap
     ethr =  1.71E-05,  avg # of iterations =  8.3

     negative rho (up, down):  1.597E-01 0.000E+00

     total cpu time spent up to now is     9272.8 secs

     total energy              =  -12714.77672418 Ry
     Harris-Foulkes estimate   =  -12714.78114407 Ry
     estimated scf accuracy    <       0.07888227 Ry

     iteration # 29     ecut=    80.00 Ry     beta=0.70
     Davidson diagonalization with overlap
     ethr =  6.07E-06,  avg # of iterations =  8.3

     negative rho (up, down):  3.401E-02 0.000E+00

     total cpu time spent up to now is     9540.4 secs

     total energy              =  -12714.77845748 Ry
     Harris-Foulkes estimate   =  -12714.77992839 Ry
     estimated scf accuracy    <       0.02936740 Ry

     iteration # 30     ecut=    80.00 Ry     beta=0.70
     Davidson diagonalization with overlap
     ethr =  2.26E-06,  avg # of iterations = 15.0

     negative rho (up, down):  3.431E-02 0.000E+00

     total cpu time spent up to now is     9932.4 secs

     total energy              =  -12714.77881054 Ry
     Harris-Foulkes estimate   =  -12714.78014207 Ry
     estimated scf accuracy    <       0.00930232 Ry

     iteration # 31     ecut=    80.00 Ry     beta=0.70
     Davidson diagonalization with overlap
     ethr =  7.16E-07,  avg # of iterations = 10.7

     negative rho (up, down):  2.477E-02 0.000E+00

     total cpu time spent up to now is    10226.4 secs

     total energy              =  -12714.77878230 Ry
     Harris-Foulkes estimate   =  -12714.77951485 Ry
     estimated scf accuracy    <       0.00360619 Ry

     iteration # 32     ecut=    80.00 Ry     beta=0.70
     Davidson diagonalization with overlap
     ethr =  2.77E-07,  avg # of iterations =  9.3

     negative rho (up, down):  1.205E-02 0.000E+00

     total cpu time spent up to now is    10501.2 secs

     total energy              =  -12714.77920723 Ry
     Harris-Foulkes estimate   =  -12714.77904369 Ry
     estimated scf accuracy    <       0.00139495 Ry

     iteration # 33     ecut=    80.00 Ry     beta=0.70
     Davidson diagonalization with overlap
     c_bands:  1 eigenvalues not converged
     c_bands:  1 eigenvalues not converged
     ethr =  1.07E-07,  avg # of iterations = 11.7

     negative rho (up, down):  2.793E-03 0.000E+00

     total cpu time spent up to now is    10814.5 secs

     total energy              =  -12714.77938417 Ry
     Harris-Foulkes estimate   =  -12714.77928446 Ry
     estimated scf accuracy    <       0.00050257 Ry

     iteration # 34     ecut=    80.00 Ry     beta=0.70
     Davidson diagonalization with overlap
     c_bands:  1 eigenvalues not converged
     ethr =  3.87E-08,  avg # of iterations = 14.8

     negative rho (up, down):  2.181E-03 0.000E+00

     total cpu time spent up to now is    11196.5 secs

     total energy              =  -12714.77943734 Ry
     Harris-Foulkes estimate   =  -12714.77946367 Ry
     estimated scf accuracy    <       0.00033238 Ry

     iteration # 35     ecut=    80.00 Ry     beta=0.70
     Davidson diagonalization with overlap
     ethr =  2.56E-08,  avg # of iterations =  9.5

     negative rho (up, down):  2.275E-03 0.000E+00

     total cpu time spent up to now is    11478.0 secs

     total energy              =  -12714.77948723 Ry
     Harris-Foulkes estimate   =  -12714.77946316 Ry
     estimated scf accuracy    <       0.00002153 Ry

     iteration # 36     ecut=    80.00 Ry     beta=0.70
     Davidson diagonalization with overlap
     ethr =  1.66E-09,  avg # of iterations =  7.2

     negative rho (up, down):  1.797E-03 0.000E+00

     total cpu time spent up to now is    11787.4 secs

     total energy              =  -12714.77948585 Ry
     Harris-Foulkes estimate   =  -12714.77949064 Ry
     estimated scf accuracy    <       0.00000858 Ry

     iteration # 37     ecut=    80.00 Ry     beta=0.70
     Davidson diagonalization with overlap
     ethr =  6.60E-10,  avg # of iterations =  2.7

     negative rho (up, down):  1.882E-03 0.000E+00

     total cpu time spent up to now is    11987.7 secs

     total energy              =  -12714.77948554 Ry
     Harris-Foulkes estimate   =  -12714.77948720 Ry
     estimated scf accuracy    <       0.00000554 Ry

     iteration # 38     ecut=    80.00 Ry     beta=0.70
     Davidson diagonalization with overlap
     ethr =  4.26E-10,  avg # of iterations =  3.0

     negative rho (up, down):  1.677E-03 0.000E+00

     total cpu time spent up to now is    12187.0 secs

     total energy              =  -12714.77948579 Ry
     Harris-Foulkes estimate   =  -12714.77948621 Ry
     estimated scf accuracy    <       0.00000191 Ry

     iteration # 39     ecut=    80.00 Ry     beta=0.70
     Davidson diagonalization with overlap
     ethr =  1.47E-10,  avg # of iterations =  2.0

     negative rho (up, down):  1.537E-03 0.000E+00

     total cpu time spent up to now is    12375.8 secs

     total energy              =  -12714.77948597 Ry
     Harris-Foulkes estimate   =  -12714.77948594 Ry
     estimated scf accuracy    <       0.00000046 Ry

     iteration # 40     ecut=    80.00 Ry     beta=0.70
     Davidson diagonalization with overlap
     ethr =  3.52E-11,  avg # of iterations =  2.8

     negative rho (up, down):  1.469E-03 0.000E+00

     total cpu time spent up to now is    12569.4 secs

     total energy              =  -12714.77948607 Ry
     Harris-Foulkes estimate   =  -12714.77948602 Ry
     estimated scf accuracy    <       0.00000020 Ry

     iteration # 41     ecut=    80.00 Ry     beta=0.70
     Davidson diagonalization with overlap
     ethr =  1.57E-11,  avg # of iterations =  2.5

     negative rho (up, down):  1.488E-03 0.000E+00

     total cpu time spent up to now is    12762.6 secs

     total energy              =  -12714.77948608 Ry
     Harris-Foulkes estimate   =  -12714.77948609 Ry
     estimated scf accuracy    <       0.00000006 Ry

     iteration # 42     ecut=    80.00 Ry     beta=0.70
     Davidson diagonalization with overlap
     ethr =  4.40E-12,  avg # of iterations =  2.3

     negative rho (up, down):  1.510E-03 0.000E+00

     total cpu time spent up to now is    12962.3 secs

     total energy              =  -12714.77948609 Ry
     Harris-Foulkes estimate   =  -12714.77948609 Ry
     estimated scf accuracy    <       0.00000003 Ry

     iteration # 43     ecut=    80.00 Ry     beta=0.70
     Davidson diagonalization with overlap
     ethr =  2.39E-12,  avg # of iterations =  2.8

     negative rho (up, down):  1.529E-03 0.000E+00

     total cpu time spent up to now is    13153.5 secs

     End of self-consistent calculation

          k = 0.0000 0.0000 0.0000 (256287 PWs)   bands (ev):

   -15.8032 -15.4483 -15.4040 -14.3406 -14.3218 -13.8473 -13.8294 -13.5034
   -13.4812 -13.4516 -13.4495 -12.5602 -12.5439 -12.4286 -12.4134 -12.4060
   -12.4029 -10.9460 -10.7359 -10.7319 -10.7308 -10.6898 -10.5723  -9.5083
    -8.9003  -8.8936  -8.8222  -8.8193  -7.9651  -7.9607  -7.9338  -7.9328
    -7.0183  -7.0124  -6.8995  -6.8942  -6.8846  -6.8820  -6.8604  -6.8595
    -5.6808  -5.3590  -5.3535  -5.3479  -5.3465  -5.2174  -5.2154  -5.2052
    -5.2032  -5.1528  -5.1449  -4.5748  -4.3157  -4.2083  -4.0764  -4.0713
    -4.0677  -3.9933  -3.7819  -3.7722  -3.7696  -3.7253  -3.6361  -3.6167
    -3.3982  -3.0918  -3.0611  -3.0285  -2.9623  -2.9582  -2.9376  -2.9361
    -2.8752  -2.7466  -2.7424  -2.7037  -2.6738  -2.6719  -2.6683  -2.6657
    -2.6602  -2.6433  -2.4804  -2.3802  -2.3549  -2.3307  -2.2031  -2.1625
    -2.1545  -2.1327  -2.1317  -2.1140  -2.1093  -2.0929  -1.9498  -1.9472
    -1.9439  -1.9273  -1.8636  -1.8595  -1.8373  -1.8353  -1.8271  -1.8230
    -1.6934  -1.6916  -1.6745  -1.6712  -1.6628  -1.6512  -1.5744  -1.5219
    -1.4504  -1.4068  -1.4027  -1.3978  -1.3965  -1.3855  -1.3778  -1.3717
    -1.3524  -1.3486  -1.3185  -1.3158  -1.3021  -1.2936  -1.2814  -1.2781
    -1.2653  -1.2545  -1.2424  -1.2347  -1.2240  -1.2104  -1.2032  -1.2017
    -1.1969  -1.1903  -1.1824  -1.1327  -1.1209  -1.0806  -1.0407  -1.0174
    -0.9963  -0.9715  -0.9547  -0.9522  -0.9512  -0.9461  -0.9159  -0.9110
    -0.8900  -0.8832  -0.8670  -0.8612  -0.8436  -0.8229  -0.8094  -0.7942
    -0.7550  -0.7390  -0.7360  -0.7248  -0.7140  -0.7122  -0.7107  -0.7073
    -0.7025  -0.6956  -0.6944  -0.6871  -0.6830  -0.6631  -0.6551  -0.6542
    -0.6492  -0.6474  -0.6189  -0.6159  -0.6132  -0.5931  -0.5915  -0.5794
    -0.5646  -0.5572  -0.5446  -0.5355  -0.5333  -0.5295  -0.5236  -0.5223
    -0.5200  -0.5186  -0.5135  -0.5123  -0.5098  -0.5064  -0.5044  -0.5011
    -0.4984  -0.4872  -0.4188  -0.3760  -0.3697  -0.3643  -0.3583  -0.3282
    -0.3153  -0.3083  -0.3068  -0.3006  -0.2965  -0.2919  -0.2831  -0.2760
    -0.2686  -0.2612  -0.2545  -0.2340  -0.2335  -0.2324  -0.2301  -0.2264
    -0.2240  -0.2117  -0.2081  -0.2072  -0.1607  -0.1583  -0.1325  -0.1320
    -0.1283  -0.1226  -0.1154  -0.1125  -0.0968  -0.0957  -0.0936  -0.0872
    -0.0863  -0.0843  -0.0815  -0.0799  -0.0726  -0.0714  -0.0698  -0.0693
    -0.0662  -0.0646  -0.0529  -0.0487  -0.0414  -0.0363  -0.0229  -0.0119
    -0.0064   0.0020   0.0151   0.0243   0.0269   0.0338   0.0363   0.0465
     0.0483   0.0587   0.0630   0.0633   0.0696   0.0735   0.0775   0.0799
     0.0961   0.0996   0.1005   0.1020   0.1052   0.1095   0.1176   0.1251
     0.1315   0.1385   0.1402   0.1425   0.1459   0.1525   0.1608   0.1688
     0.1784   0.1856   0.1939   0.2025   0.2093   0.2344   0.2368   0.2468
     0.2492   0.2551   0.2590   0.2730   0.2760   0.2813   0.2899   0.2921
     0.2987   0.3030   0.3051   0.3157   0.3250   0.3302   0.3355   0.3374
     0.3430   0.3474   0.3556   0.3618   0.3712   0.3747   0.3825   0.3843
     0.3906   0.3971   0.4023   0.4093   0.4132   0.4191   0.4230   0.4264
     0.4324   0.4468   0.4487   0.4556   0.4665   0.4811   0.4871   0.4945
     0.4965   0.4976   0.5021   0.5165   0.5302   0.5329   0.5468   0.5538
     0.5771   0.5862   0.5929   0.6030   0.6165   0.6173   0.6255   0.6356
     0.6392   0.6407   0.6437   0.6555   0.6581   0.6667   0.6756   0.6889
     0.6930   0.6964   0.6983   0.7055   0.7127   0.7161   0.7257   0.7303
     0.7417   0.7441   0.7471   0.7567   0.7670   0.7702   0.7896   0.7930
     0.7975   0.8007   0.8065   0.8090   0.8119   0.8155   0.8238   0.8272
     0.8411   0.8435   0.8519   0.8577   0.8605   0.8667   0.8763   0.8781
     0.8833   0.8834   0.8861   0.8885   0.8897   0.8966   0.8995   0.9080
     0.9141   0.9176   0.9186   0.9287   0.9335   0.9410   0.9422   0.9504
     0.9603   0.9747   0.9761   0.9836   0.9848   0.9858   0.9933   1.0006
     1.0024   1.0037   1.0051   1.0076   1.0085   1.0093   1.0162   1.0247
     1.0308   1.0350   1.0388   1.0427   1.0457   1.0509   1.0541   1.0572
     1.0642   1.0709   1.0714   1.0793   1.0840   1.0908   1.0950   1.1037
     1.1048   1.1212   1.1255   1.1300   1.1354   1.1538   1.1578   1.1739
     1.1784   1.1830   1.1850   1.1864   1.1922   1.1949   1.1970   1.2051
     1.2061   1.2064   1.2161   1.2182   1.2222   1.2333   1.2342   1.2372
     1.2472   1.2555   1.2572   1.2589   1.2603   1.2669   1.2686   1.2742
     1.2774   1.2868   1.3057   1.3095   1.3140   1.3149   1.3212   1.3225
     1.3288   1.3322   1.3363   1.3376   1.3468   1.3480   1.3549   1.3555
     1.3590   1.3621   1.3637   1.3677   1.3722   1.3791   1.3827   1.3867
     1.4010   1.4027   1.4079   1.4124   1.4135   1.4176   1.4241   1.4272
     1.4291   1.4303   1.4334   1.4364   1.4402   1.4460   1.4492   1.4513
     1.4555   1.4593   1.4618   1.4625   1.4690   1.4761   1.4780   1.4869
     1.4943   1.5046   1.5071   1.5079   1.5141   1.5283   1.5289   1.5348
     1.5441   1.5485   1.5574   1.5590   1.5634   1.5642   1.5671   1.5697
     1.5779   1.5794   1.5834   1.5910   1.5929   1.5965   1.5972   1.5988
     1.6020   1.6069   1.6099   1.6107   1.6120   1.6196   1.6257   1.6276
     1.6283   1.6329   1.6343   1.6360   1.6401   1.6415   1.6473   1.6524
     1.6547   1.6567   1.6617   1.6627   1.6695   1.6696   1.6745   1.6809
     1.6862   1.6879   1.6891   1.6996   1.7021   1.7110   1.7138   1.7198
     1.7222   1.7245   1.7344   1.7391   1.7408   1.7443   1.7444   1.7452
     1.7491   1.7508   1.7513   1.7540   1.7594   1.7599   1.7640   1.7725
     1.7774   1.7834   1.7854   1.7870   1.7917   1.7946   1.7964   1.7984
     1.8060   1.8185   1.8290   1.8358   1.8373   1.8423   1.8663   1.8681
     1.8736   1.8771   1.8778   1.8870   1.9076   1.9154   1.9392   1.9435
     1.9473   1.9478   1.9537   1.9566   1.9630   1.9791   1.9811   2.0221
     2.2472   2.2797   2.3615   2.3705   2.4042   2.4803   2.5129   2.5136
     2.5160   2.5204   2.5309   2.5400   2.5435   2.5501   2.6448   2.6458
     2.7305   2.7376   2.7716   2.7881   2.8112   2.8905   2.9913   3.0049
     3.0323   3.0563   3.2950   3.6294   3.6379   3.6737   3.6849   3.7504
     3.7705   4.0470   4.0527   4.0912   4.1006   4.1404   4.1487   4.1569
     4.1762   4.1956   4.2366   4.2532   4.3088   4.3135   4.3254   4.3280
     4.3394   4.3673   4.4348   4.4608   4.5965   4.8264   5.0716   5.2742
     5.3982   5.5096   5.5329   5.5517   5.5780   5.5806   5.6176   5.6307
     5.7976   5.8204   6.0585   6.0704   6.2255   6.2380   6.4016   6.4069
     6.5871   6.6303   6.7156   6.7282   6.7532   6.8445   6.8553   6.9199
     6.9402   7.0253   7.0893   7.2016   7.2035   7.2600   7.2758   7.3260
     7.3582   7.3712   7.3938   7.4071   7.4188   7.4378   7.4803   7.5769
     7.6254   7.6823   7.7508   7.8673   7.9068   7.9162   7.9318   7.9817
     8.0223   8.0748   8.2340   8.2981   8.3156   8.3787   8.4405   8.5081
     8.5420   8.5455   8.5563   8.5726   8.6434   8.6500   8.7383   8.7684
     8.8106   8.8210   8.8335   8.8875   8.8975   8.9827   9.0196   9.0501
     9.0881   9.1115   9.1225   9.1421   9.2122   9.2429   9.2611   9.2695
     9.2824   9.3538   9.3648   9.3849   9.4340   9.4650   9.4916   9.6446
     9.7111   9.8081   9.8903   9.9519   9.9599   9.9690   9.9942  10.0616
    10.0864  10.1109  10.1509  10.3109

          k = 0.0000-0.2165 0.0000 (256176 PWs)   bands (ev):

   -15.7394 -15.6741 -14.9794 -14.9561 -13.7930 -13.7606 -13.7142 -13.7126
   -13.5274 -13.5128 -13.0463 -13.0288 -13.0182 -13.0142 -11.6737 -11.6431
   -11.6346 -11.6325 -11.4613 -11.4356 -10.8711  -9.7588  -9.7545  -9.7463
    -9.7430  -8.5145  -8.5063  -8.3396  -8.3378  -8.3111  -8.3089  -7.4936
    -7.4888  -7.4799  -7.4781  -6.3403  -6.3379  -6.3172  -6.3156  -6.1713
    -6.1675  -6.1612  -6.1597  -5.5503  -5.5423  -5.4172  -5.4082  -4.5754
    -4.5496  -4.5297  -4.5234  -4.5223  -4.5065  -4.4460  -4.4377  -4.2477
    -4.1346  -4.0066  -4.0057  -3.9980  -3.9919  -3.8697  -3.6978  -3.4614
    -3.3663  -3.3466  -2.9664  -2.9635  -2.9620  -2.9567  -2.9445  -2.8266
    -2.7802  -2.6964  -2.6866  -2.6347  -2.5914  -2.5526  -2.4452  -2.4388
    -2.4228  -2.4220  -2.2817  -2.2795  -2.2655  -2.2588  -2.2559  -2.2554
    -2.2410  -2.2397  -2.1918  -2.1869  -2.1133  -2.1129  -2.0745  -2.0717
    -1.9686  -1.9281  -1.9182  -1.9112  -1.8485  -1.8434  -1.7938  -1.7904
    -1.7883  -1.7817  -1.6515  -1.6513  -1.6363  -1.6359  -1.5965  -1.5622
    -1.5604  -1.5578  -1.5267  -1.4597  -1.4543  -1.4315  -1.4231  -1.4173
    -1.4053  -1.4047  -1.3892  -1.3803  -1.3407  -1.3312  -1.3259  -1.3248
    -1.3200  -1.3066  -1.2958  -1.2105  -1.1845  -1.1822  -1.1345  -1.0991
    -1.0456  -1.0289  -1.0130  -0.9964  -0.9951  -0.9865  -0.9740  -0.9712
    -0.9685  -0.9541  -0.9510  -0.9362  -0.9302  -0.9273  -0.9263  -0.9022
    -0.9006  -0.8906  -0.8841  -0.8748  -0.8736  -0.8667  -0.8608  -0.8582
    -0.7933  -0.7794  -0.7680  -0.7592  -0.7537  -0.7520  -0.7386  -0.7313
    -0.7295  -0.7230  -0.7210  -0.7058  -0.6867  -0.6841  -0.6787  -0.6667
    -0.6487  -0.6406  -0.6399  -0.6339  -0.6319  -0.6297  -0.6174  -0.6149
    -0.6063  -0.6004  -0.5817  -0.5807  -0.5731  -0.5646  -0.5479  -0.5375
    -0.5183  -0.5174  -0.5028  -0.4982  -0.4883  -0.4834  -0.4800  -0.4611
    -0.4549  -0.4467  -0.4398  -0.4291  -0.4256  -0.4207  -0.4182  -0.3951
    -0.3623  -0.3553  -0.3136  -0.3124  -0.2955  -0.2916  -0.2904  -0.2839
    -0.2833  -0.2818  -0.2804  -0.2786  -0.2576  -0.2373  -0.2167  -0.2138
    -0.2109  -0.2089  -0.2005  -0.1990  -0.1939  -0.1915  -0.1577  -0.1554
    -0.1519  -0.1459  -0.1444  -0.1415  -0.1330  -0.1283  -0.1248  -0.1201
    -0.1173  -0.1146  -0.0816  -0.0746  -0.0601  -0.0579  -0.0394  -0.0350
    -0.0059   0.0029   0.0045   0.0118   0.0140   0.0153   0.0164   0.0180
     0.0214   0.0276   0.0471   0.0535   0.0646   0.0657   0.0703   0.0732
     0.0740   0.0849   0.0900   0.0913   0.0974   0.0993   0.1017   0.1087
     0.1221   0.1276   0.1332   0.1335   0.1394   0.1412   0.1609   0.1659
     0.1745   0.1769   0.1805   0.1877   0.1887   0.1937   0.1981   0.2073
     0.2106   0.2118   0.2233   0.2311   0.2387   0.2413   0.2441   0.2455
     0.2581   0.2608   0.2715   0.2796   0.2884   0.2936   0.2984   0.3090
     0.3142   0.3204   0.3289   0.3298   0.3357   0.3413   0.3479   0.3505
     0.3643   0.3707   0.3731   0.3895   0.3905   0.3930   0.3960   0.4015
     0.4076   0.4115   0.4155   0.4264   0.4270   0.4289   0.4358   0.4394
     0.4542   0.4575   0.4594   0.4606   0.4623   0.4697   0.4755   0.4828
     0.4877   0.5073   0.5100   0.5196   0.5240   0.5275   0.5502   0.5542
     0.5596   0.5608   0.5656   0.5770   0.6162   0.6307   0.6320   0.6390
     0.6493   0.6636   0.6644   0.6799   0.6930   0.7035   0.7080   0.7131
     0.7181   0.7245   0.7317   0.7416   0.7445   0.7467   0.7513   0.7571
     0.7592   0.7658   0.7676   0.7760   0.7775   0.7815   0.7871   0.7905
     0.8009   0.8048   0.8059   0.8094   0.8176   0.8211   0.8223   0.8256
     0.8272   0.8370   0.8406   0.8429   0.8484   0.8497   0.8537   0.8580
     0.8586   0.8634   0.8680   0.8704   0.8734   0.8819   0.8833   0.8846
     0.8934   0.8950   0.8998   0.9086   0.9094   0.9166   0.9204   0.9213
     0.9326   0.9341   0.9370   0.9382   0.9438   0.9535   0.9558   0.9682
     0.9722   0.9748   0.9776   0.9830   0.9848   0.9909   0.9978   1.0004
     1.0017   1.0110   1.0137   1.0146   1.0174   1.0228   1.0264   1.0334
     1.0452   1.0562   1.0659   1.0712   1.0773   1.0826   1.0848   1.0880
     1.0948   1.1035   1.1125   1.1164   1.1180   1.1190   1.1285   1.1298
     1.1522   1.1552   1.1948   1.1986   1.2015   1.2045   1.2127   1.2228
     1.2275   1.2282   1.2298   1.2392   1.2416   1.2432   1.2439   1.2475
     1.2490   1.2529   1.2541   1.2551   1.2608   1.2654   1.2718   1.2763
     1.2794   1.2855   1.2871   1.2902   1.2918   1.2930   1.2957   1.2983
     1.3038   1.3062   1.3075   1.3107   1.3167   1.3196   1.3204   1.3273
     1.3318   1.3369   1.3381   1.3411   1.3504   1.3519   1.3573   1.3575
     1.3592   1.3611   1.3624   1.3683   1.3705   1.3715   1.3749   1.3820
     1.4078   1.4084   1.4140   1.4183   1.4403   1.4463   1.4484   1.4632
     1.4765   1.4813   1.4870   1.4927   1.4944   1.4993   1.5010   1.5046
     1.5071   1.5159   1.5176   1.5202   1.5230   1.5267   1.5271   1.5272
     1.5286   1.5364   1.5393   1.5402   1.5417   1.5485   1.5488   1.5511
     1.5553   1.5578   1.5603   1.5651   1.5664   1.5721   1.5809   1.5854
     1.5862   1.5899   1.5902   1.5997   1.6046   1.6093   1.6098   1.6135
     1.6158   1.6260   1.6266   1.6356   1.6378   1.6411   1.6512   1.6525
     1.6543   1.6562   1.6581   1.6619   1.6716   1.6881   1.6889   1.6976
     1.7005   1.7024   1.7035   1.7049   1.7053   1.7073   1.7082   1.7132
     1.7152   1.7179   1.7272   1.7288   1.7501   1.7505   1.7516   1.7547
     1.7665   1.7699   1.7705   1.7706   1.7732   1.7800   1.7825   1.7848
     1.7941   1.8038   1.8087   1.8121   1.8151   1.8173   1.8190   1.8229
     1.8293   1.8310   1.8338   1.8353   1.8391   1.8625   1.8834   1.8868
     1.8892   1.9025   1.9100   1.9129   1.9545   1.9749   1.9763   2.0496
     2.0775   2.0806   2.0842   2.0850   2.0951   2.1003   2.1257   2.1417
     2.1441   2.1497   2.1608   2.1755   2.1979   2.2213   2.6282   2.6413
     2.6431   2.6499   2.6562   2.6584   2.7288   2.7441   2.8026   2.8164
     2.8256   2.8509   2.8768   2.8950   2.8988   2.9023   2.9742   2.9993
     3.0312   3.0317   3.0901   3.1797   3.2406   3.2409   3.4131   3.4318
     3.4652   3.4845   3.4860   3.7040   3.9849   3.9988   4.2045   4.2079
     4.3686   4.3861   4.5426   4.5484   4.5767   4.5800   4.6077   4.6441
     4.6468   4.6543   4.6818   4.7167   4.7281   4.7982   4.8938   5.1958
     5.4057   5.4077   5.5502   5.5545   5.6464   5.6541   5.6568   5.6886
     5.7214   5.9493   5.9948   6.1807   6.3986   6.4078   6.4199   6.4294
     6.4453   6.4558   6.4723   6.4852   6.6418   6.6660   6.7334   6.8245
     6.9386   6.9542   6.9687   7.0245   7.0951   7.2239   7.2501   7.3270
     7.3454   7.3508   7.3569   7.3731   7.4709   7.4986   7.5131   7.5181
     7.5414   7.5568   7.5703   7.6147   7.6347   8.0660   8.1376   8.1807
     8.2123   8.2362   8.2801   8.2925   8.3426   8.3590   8.4015   8.4067
     8.4967   8.5149   8.5374   8.6008   8.6593   8.6709   8.8625   8.8789
     8.9639   8.9755   8.9862   9.0018   9.0150   9.0562   9.0645   9.0781
     9.1005   9.1486   9.1936   9.2072   9.2204   9.2656   9.3206   9.3513
     9.4676   9.5322   9.5384   9.6039   9.6129   9.6171   9.6557   9.6925
     9.7121   9.7591   9.7715   9.8286   9.8352   9.8374   9.9732  10.0070
    10.0872  10.1001  10.1120  10.1201

          k = 0.2500 0.0000 0.0000 (256240 PWs)   bands (ev):

   -15.6792 -15.3250 -15.2804 -14.6907 -14.3429 -14.2983 -14.2150 -14.2000
   -13.2522 -13.2351 -12.7623 -12.4488 -12.4271 -12.4145 -12.3819 -11.5239
   -11.5059 -11.3981 -11.3769 -10.8829 -10.4692 -10.1084 -10.0783 -10.0500
    -9.6297  -9.4036  -9.1222  -9.1120  -8.7042  -8.4578  -8.4494  -7.9604
    -6.9441  -6.9385  -6.9116  -6.9041  -6.8035  -6.7833  -6.3076  -6.0182
    -5.5254  -5.5015  -5.2966  -5.2759  -5.2617  -5.2559  -4.9830  -4.9720
    -4.5790  -4.5690  -4.4232  -4.3107  -4.1599  -4.0907  -4.0377  -3.9331
    -3.8452  -3.7905  -3.7717  -3.7149  -3.7122  -3.6951  -3.6723  -3.6291
    -3.6155  -3.4913  -3.4838  -3.2909  -3.2255  -3.1062  -3.0445  -3.0314
    -2.9951  -2.9376  -2.9247  -2.8698  -2.8445  -2.8383  -2.8331  -2.7653
    -2.7249  -2.6918  -2.5750  -2.5501  -2.5473  -2.5358  -2.4675  -2.4651
    -2.3591  -2.3013  -2.2040  -2.1501  -2.0663  -2.0637  -1.9754  -1.9689
    -1.8413  -1.8198  -1.8042  -1.7698  -1.7676  -1.7555  -1.7474  -1.7206
    -1.6066  -1.5615  -1.5255  -1.4986  -1.4766  -1.4745  -1.4701  -1.4689
    -1.4630  -1.4616  -1.4458  -1.4296  -1.4263  -1.4192  -1.4165  -1.3912
    -1.3499  -1.3042  -1.3020  -1.2993  -1.2469  -1.2425  -1.2398  -1.2394
    -1.2281  -1.2265  -1.2122  -1.1960  -1.1784  -1.1748  -1.1664  -1.1607
    -1.0779  -1.0631  -1.0373  -1.0106  -0.9980  -0.9941  -0.9891  -0.9819
    -0.9547  -0.9262  -0.9214  -0.9176  -0.9031  -0.8975  -0.8917  -0.8711
    -0.8694  -0.8582  -0.8570  -0.8479  -0.8430  -0.8419  -0.8309  -0.8161
    -0.8109  -0.8056  -0.7886  -0.7801  -0.7757  -0.7698  -0.7620  -0.7527
    -0.7235  -0.7097  -0.6937  -0.6898  -0.6890  -0.6866  -0.6808  -0.6797
    -0.6762  -0.6705  -0.6684  -0.6646  -0.6615  -0.6500  -0.6455  -0.6418
    -0.6373  -0.6309  -0.6285  -0.6277  -0.6152  -0.6077  -0.5765  -0.5586
    -0.5394  -0.5269  -0.5184  -0.4983  -0.4786  -0.4763  -0.4634  -0.4587
    -0.4540  -0.4397  -0.4325  -0.4207  -0.4133  -0.4096  -0.4046  -0.4023
    -0.4001  -0.3901  -0.3836  -0.3666  -0.2871  -0.2806  -0.2705  -0.2531
    -0.2451  -0.2415  -0.2381  -0.2296  -0.2257  -0.2241  -0.2194  -0.2118
    -0.2001  -0.1934  -0.1895  -0.1854  -0.1653  -0.1573  -0.1518  -0.1506
    -0.1498  -0.1480  -0.1452  -0.1428  -0.1401  -0.1360  -0.1265  -0.1221
    -0.0902  -0.0838  -0.0795  -0.0785  -0.0697  -0.0620  -0.0586  -0.0561
    -0.0379  -0.0356  -0.0342  -0.0277  -0.0232  -0.0199  -0.0157  -0.0083
     0.0172   0.0216   0.0237   0.0335   0.0351   0.0370   0.0400   0.0475
     0.0540   0.0557   0.0646   0.0747   0.0756   0.0858   0.0972   0.1156
     0.1266   0.1308   0.1340   0.1402   0.1453   0.1501   0.1520   0.1528
     0.1547   0.1571   0.1592   0.1830   0.1895   0.1944   0.2080   0.2090
     0.2107   0.2245   0.2306   0.2323   0.2430   0.2526   0.2666   0.2764
     0.2798   0.2926   0.2941   0.3005   0.3014   0.3128   0.3184   0.3213
     0.3237   0.3345   0.3419   0.3436   0.3454   0.3493   0.3555   0.3562
     0.3618   0.3650   0.3701   0.3717   0.3773   0.3793   0.3845   0.3963
     0.4050   0.4085   0.4230   0.4275   0.4315   0.4335   0.4410   0.4465
     0.4509   0.4532   0.4560   0.4672   0.4726   0.4747   0.4802   0.4928
     0.4954   0.5142   0.5358   0.5413   0.5590   0.5625   0.5743   0.5891
     0.5945   0.5986   0.6026   0.6066   0.6130   0.6162   0.6205   0.6238
     0.6296   0.6327   0.6355   0.6541   0.6567   0.6646   0.6669   0.6700
     0.6793   0.6807   0.6884   0.6983   0.7046   0.7107   0.7126   0.7170
     0.7182   0.7379   0.7436   0.7493   0.7602   0.7635   0.7723   0.7759
     0.7809   0.7818   0.7924   0.7932   0.8027   0.8075   0.8134   0.8185
     0.8209   0.8225   0.8270   0.8314   0.8325   0.8359   0.8407   0.8426
     0.8508   0.8583   0.8669   0.8767   0.8803   0.8814   0.8869   0.8902
     0.8917   0.8947   0.9007   0.9021   0.9163   0.9177   0.9217   0.9278
     0.9294   0.9326   0.9376   0.9409   0.9550   0.9570   0.9593   0.9662
     0.9676   0.9716   0.9756   0.9810   0.9825   0.9861   0.9876   0.9974
     1.0001   1.0185   1.0211   1.0275   1.0335   1.0475   1.0559   1.0672
     1.0681   1.0749   1.0784   1.0787   1.0871   1.0903   1.0951   1.0976
     1.1056   1.1107   1.1142   1.1165   1.1212   1.1423   1.1491   1.1539
     1.1600   1.1695   1.1707   1.1748   1.1783   1.1802   1.1825   1.1910
     1.2010   1.2068   1.2091   1.2111   1.2166   1.2223   1.2232   1.2323
     1.2346   1.2356   1.2382   1.2492   1.2532   1.2593   1.2712   1.2748
     1.2927   1.2958   1.3003   1.3075   1.3105   1.3162   1.3253   1.3290
     1.3313   1.3349   1.3359   1.3377   1.3414   1.3430   1.3446   1.3505
     1.3530   1.3558   1.3606   1.3636   1.3666   1.3725   1.3743   1.3762
     1.3795   1.3848   1.3883   1.3906   1.3965   1.3981   1.4053   1.4076
     1.4123   1.4142   1.4197   1.4291   1.4303   1.4320   1.4360   1.4391
     1.4404   1.4452   1.4496   1.4504   1.4518   1.4561   1.4589   1.4638
     1.4725   1.4787   1.4811   1.4863   1.4961   1.5087   1.5104   1.5137
     1.5157   1.5208   1.5285   1.5348   1.5400   1.5455   1.5556   1.5692
     1.5707   1.5739   1.5752   1.5796   1.5811   1.5848   1.5867   1.5949
     1.5963   1.5990   1.6017   1.6061   1.6093   1.6107   1.6212   1.6222
     1.6232   1.6270   1.6291   1.6340   1.6351   1.6393   1.6424   1.6434
     1.6457   1.6485   1.6520   1.6602   1.6642   1.6685   1.6708   1.6743
     1.6841   1.6897   1.6977   1.7035   1.7080   1.7115   1.7137   1.7307
     1.7331   1.7338   1.7355   1.7397   1.7428   1.7517   1.7524   1.7540
     1.7557   1.7607   1.7637   1.7645   1.7701   1.7713   1.7736   1.7808
     1.7827   1.7846   1.7905   1.7963   1.8008   1.8016   1.8023   1.8052
     1.8118   1.8135   1.8183   1.8235   1.8243   1.8254   1.8329   1.8346
     1.8528   1.8675   1.8767   1.8905   1.8986   1.9134   1.9324   1.9384
     1.9414   1.9481   1.9553   1.9633   1.9859   2.0335   2.0378   2.0811
     2.0842   2.1282   2.1529   2.1603   2.3321   2.3451   2.3501   2.3539
     2.3714   2.3875   2.3959   2.4727   2.4800   2.6071   2.6777   2.8643
     2.8681   2.8779   2.9229   3.2167   3.2933   3.2939   3.4700   3.5121
     3.5180   3.5250   3.5355   3.5358   3.6281   3.7181   3.7989   3.8291
     3.9256   3.9328   3.9876   3.9973   3.9999   4.0386   4.0835   4.1427
     4.1476   4.2069   4.2321   4.2898   4.5380   4.5653   4.6157   4.6497
     4.7696   4.9153   5.0671   5.0795   5.1323   5.1406   5.2446   5.2589
     5.5011   5.5062   5.5211   5.5315   5.6489   5.6737   5.6976   5.7209
     5.7931   5.8034   5.8186   5.8432   5.8883   5.8994   5.9671   5.9870
     6.0875   6.2368   6.2938   6.3241   6.3352   6.3862   6.4405   6.4806
     6.8484   6.8874   6.9704   7.0437   7.0556   7.1784   7.2120   7.2582
     7.2796   7.3045   7.3236   7.3490   7.3503   7.3589   7.3675   7.3707
     7.3879   7.4064   7.4780   7.4956   7.5548   7.6827   7.7745   7.7934
     7.8296   7.8620   7.9869   8.0348   8.0648   8.1509   8.1949   8.2520
     8.2719   8.3102   8.3351   8.3529   8.4295   8.4916   8.5549   8.5790
     8.7048   8.7144   8.7481   8.7844   8.8197   8.8404   8.8693   8.9164
     8.9946   9.0652   9.1895   9.2080   9.2882   9.2974   9.3609   9.3749
     9.3962   9.4062   9.4462   9.4634   9.4796   9.4972   9.5090   9.5180
     9.5617   9.5642   9.6014   9.6176   9.7346   9.7725   9.7866   9.9045
     9.9633   9.9918  10.0547  10.1005

          k = 0.2500-0.2165 0.0000 (256316 PWs)   bands (ev):

   -15.6156 -15.5501 -14.8580 -14.8333 -14.6253 -14.5644 -13.8795 -13.8576
   -13.4088 -13.3931 -12.7014 -12.6389 -12.4607 -12.4450 -11.9836 -11.9609
   -11.3578 -11.3239 -10.9107 -10.6802 -10.6639 -10.4537 -10.4435 -10.0407
   -10.0011  -8.9877  -8.9769  -8.5146  -8.4906  -8.4197  -8.4106  -7.8544
    -7.8427  -7.7456  -7.7373  -6.0573  -6.0293  -6.0001  -5.9855  -5.8672
    -5.8293  -5.6684  -5.6531  -5.3752  -5.3730  -5.3661  -5.3638  -4.5260
    -4.5140  -4.4175  -4.3449  -4.2968  -4.2781  -4.2742  -4.2276  -4.2197
    -4.0236  -4.0058  -3.9662  -3.7550  -3.6360  -3.5841  -3.5692  -3.5547
    -3.5460  -3.3466  -3.2624  -3.2510  -3.1510  -3.1158  -3.1126  -3.1103
    -3.0162  -2.9629  -2.9533  -2.9366  -2.8077  -2.6978  -2.6863  -2.6219
    -2.6178  -2.5916  -2.5698  -2.5691  -2.5379  -2.4195  -2.4090  -2.3495
    -2.3442  -2.3104  -2.3046  -2.2193  -2.0135  -2.0015  -1.9835  -1.9799
    -1.9002  -1.8691  -1.8459  -1.8454  -1.8115  -1.8076  -1.7374  -1.6833
    -1.6782  -1.6700  -1.6306  -1.6154  -1.5229  -1.4923  -1.4896  -1.4869
    -1.4793  -1.4187  -1.3844  -1.3779  -1.3765  -1.3737  -1.3665  -1.3540
    -1.3481  -1.3450  -1.3441  -1.3389  -1.3363  -1.3356  -1.3320  -1.3017
    -1.2576  -1.2373  -1.1776  -1.1441  -1.1319  -1.1298  -1.1201  -1.1087
    -1.0621  -1.0289  -1.0048  -0.9914  -0.9728  -0.9627  -0.9512  -0.9448
    -0.9421  -0.9363  -0.9301  -0.9246  -0.9190  -0.9115  -0.9063  -0.9020
    -0.8989  -0.8948  -0.8830  -0.8792  -0.8725  -0.8654  -0.8433  -0.8346
    -0.8322  -0.8300  -0.8139  -0.8030  -0.8013  -0.7922  -0.7790  -0.7753
    -0.7747  -0.7357  -0.7351  -0.7167  -0.7092  -0.6914  -0.6872  -0.6803
    -0.6740  -0.6676  -0.6612  -0.6458  -0.6355  -0.6347  -0.6275  -0.6254
    -0.6207  -0.6179  -0.6093  -0.5976  -0.5945  -0.5852  -0.5821  -0.5762
    -0.5666  -0.5323  -0.5308  -0.5026  -0.4829  -0.4808  -0.4346  -0.4180
    -0.4152  -0.4122  -0.3909  -0.3858  -0.3835  -0.3747  -0.3728  -0.3695
    -0.3665  -0.3593  -0.3447  -0.3223  -0.3098  -0.3018  -0.2822  -0.2789
    -0.2756  -0.2623  -0.2504  -0.2397  -0.2391  -0.2177  -0.2137  -0.2116
    -0.2090  -0.2031  -0.1918  -0.1798  -0.1741  -0.1738  -0.1682  -0.1628
    -0.1610  -0.1487  -0.1434  -0.1143  -0.1116  -0.1044  -0.0983  -0.0966
    -0.0906  -0.0818  -0.0786  -0.0778  -0.0706  -0.0633  -0.0500  -0.0454
    -0.0395  -0.0372  -0.0308  -0.0286  -0.0265  -0.0170  -0.0098  -0.0052
    -0.0028   0.0009   0.0132   0.0158   0.0309   0.0331   0.0457   0.0517
     0.0593   0.0657   0.0815   0.0835   0.0849   0.0897   0.0936   0.1021
     0.1238   0.1285   0.1298   0.1333   0.1488   0.1515   0.1539   0.1599
     0.1728   0.1861   0.1980   0.2110   0.2160   0.2204   0.2223   0.2290
     0.2332   0.2350   0.2406   0.2492   0.2593   0.2661   0.2673   0.2710
     0.2817   0.2841   0.2960   0.3015   0.3122   0.3146   0.3160   0.3175
     0.3181   0.3210   0.3268   0.3326   0.3353   0.3394   0.3409   0.3447
     0.3466   0.3513   0.3583   0.3596   0.3656   0.3701   0.3844   0.3877
     0.3951   0.3977   0.4133   0.4157   0.4244   0.4279   0.4350   0.4520
     0.4548   0.4642   0.4701   0.4743   0.4778   0.4834   0.4871   0.4922
     0.4978   0.5029   0.5081   0.5098   0.5179   0.5325   0.5419   0.5596
     0.5638   0.5773   0.5884   0.6017   0.6058   0.6138   0.6148   0.6170
     0.6300   0.6340   0.6428   0.6437   0.6550   0.6630   0.6707   0.6722
     0.6773   0.6835   0.6840   0.6973   0.7049   0.7093   0.7129   0.7157
     0.7194   0.7271   0.7293   0.7381   0.7445   0.7455   0.7502   0.7532
     0.7567   0.7700   0.7811   0.7842   0.7906   0.8052   0.8117   0.8136
     0.8168   0.8186   0.8310   0.8370   0.8424   0.8497   0.8516   0.8565
     0.8581   0.8687   0.8724   0.8829   0.9059   0.9113   0.9174   0.9209
     0.9218   0.9229   0.9262   0.9299   0.9312   0.9349   0.9404   0.9465
     0.9483   0.9531   0.9581   0.9651   0.9690   0.9751   0.9784   0.9833
     0.9878   0.9890   0.9968   0.9988   1.0030   1.0081   1.0139   1.0147
     1.0182   1.0216   1.0266   1.0291   1.0310   1.0353   1.0366   1.0374
     1.0443   1.0517   1.0536   1.0588   1.0615   1.0824   1.0859   1.0884
     1.0897   1.0966   1.1191   1.1268   1.1324   1.1367   1.1404   1.1494
     1.1502   1.1556   1.1674   1.1680   1.1742   1.1749   1.1765   1.1792
     1.1838   1.1850   1.1864   1.1892   1.1929   1.1985   1.2067   1.2131
     1.2254   1.2351   1.2363   1.2378   1.2385   1.2388   1.2480   1.2499
     1.2543   1.2565   1.2652   1.2756   1.2827   1.2900   1.2936   1.2969
     1.3065   1.3275   1.3308   1.3366   1.3397   1.3409   1.3631   1.3674
     1.3739   1.3774   1.3857   1.3884   1.3958   1.3998   1.4031   1.4064
     1.4083   1.4148   1.4154   1.4222   1.4232   1.4249   1.4262   1.4287
     1.4312   1.4331   1.4370   1.4424   1.4442   1.4499   1.4550   1.4615
     1.4693   1.4710   1.4763   1.4776   1.4793   1.4825   1.4878   1.4906
     1.4969   1.4972   1.5018   1.5061   1.5088   1.5134   1.5155   1.5193
     1.5204   1.5233   1.5274   1.5304   1.5367   1.5418   1.5457   1.5466
     1.5506   1.5523   1.5547   1.5563   1.5633   1.5675   1.5723   1.5777
     1.5791   1.5874   1.5881   1.5953   1.5984   1.6069   1.6111   1.6136
     1.6190   1.6255   1.6311   1.6362   1.6410   1.6481   1.6511   1.6522
     1.6549   1.6612   1.6649   1.6718   1.6740   1.6771   1.6819   1.6874
     1.6904   1.6920   1.6927   1.6987   1.7074   1.7094   1.7135   1.7149
     1.7208   1.7232   1.7313   1.7358   1.7365   1.7388   1.7404   1.7410
     1.7437   1.7476   1.7543   1.7576   1.7586   1.7637   1.7704   1.7753
     1.7781   1.7804   1.7833   1.7841   1.7863   1.7894   1.8014   1.8019
     1.8089   1.8264   1.8266   1.8329   1.8333   1.8407   1.8511   1.8568
     1.8627   1.8676   1.8697   1.8882   1.8980   1.9006   1.9503   1.9589
     1.9872   1.9953   2.0052   2.0271   2.0364   2.0396   2.0516   2.0573
     2.0652   2.0803   2.0984   2.1007   2.1090   2.2475   2.2901   2.3623
     2.4390   2.4435   2.4705   2.4777   2.5570   2.6389   2.8961   2.9005
     3.0186   3.0203   3.0647   3.0758   3.0964   3.1059   3.1331   3.1796
     3.2275   3.2995   3.3037   3.4237   3.6807   3.7434   3.7887   3.8218
     3.8797   4.0206   4.1378   4.1484   4.1582   4.2054   4.2836   4.3170
     4.3906   4.4022   4.4714   4.4758   4.6773   4.6847   4.7693   4.7771
     4.8947   4.9204   4.9553   4.9623   4.9721   5.0376   5.0669   5.2366
     5.2689   5.2802   5.3020   5.4219   5.4419   5.4960   5.5605   5.6118
     5.6300   5.7272   5.7780   5.8505   5.9082   5.9582   6.0234   6.0531
     6.0626   6.0680   6.1773   6.4955   6.6124   6.6340   6.6512   6.6860
     6.8634   6.8717   6.8933   6.9459   6.9619   7.0414   7.0520   7.1698
     7.2266   7.2524   7.2726   7.4286   7.4347   7.5079   7.5175   7.5278
     7.5970   7.6288   7.6661   7.6766   7.6822   7.6955   7.7238   7.7617
     7.7992   7.8895   7.9169   7.9696   7.9946   8.0360   8.0577   8.2810
     8.3103   8.3296   8.3500   8.4739   8.5010   8.6548   8.6623   8.6813
     8.7569   8.7823   8.8116   8.8413   8.8861   8.9188   8.9507   8.9649
     9.0016   9.0159   9.0245   9.0562   9.1258   9.1497   9.1693   9.2136
     9.2472   9.3521   9.3622   9.3664   9.3687   9.4536   9.4817   9.5011
     9.5183   9.5639   9.5980   9.6272   9.6735   9.6831   9.6965   9.7851
     9.8467   9.8676   9.9022  10.0279

          k =-0.5000 0.0000 0.0000 (256496 PWs)   bands (ev):

   -15.3291 -15.2863 -14.9758 -14.9305 -14.9182 -14.9029 -13.8756 -13.8455
   -13.8310 -13.8275 -12.1181 -12.0875 -12.0700 -12.0668 -11.5031 -11.4795
   -11.2075 -11.1638 -11.1296 -11.1283 -10.8536 -10.5053 -10.4979 -10.1671
   -10.1428  -9.5154  -9.5106  -9.1150  -9.0943  -8.2982  -8.2929  -8.2855
    -8.2835  -6.8344  -6.8309  -6.7668  -6.7603  -6.7449  -6.7327  -5.2637
    -5.2627  -4.9804  -4.9729  -4.5252  -4.5140  -4.5032  -4.4769  -4.4705
    -4.4594  -4.2673  -4.1503  -4.1111  -4.0856  -4.0839  -4.0755  -4.0697
    -4.0613  -4.0555  -4.0327  -3.8521  -3.8237  -3.7899  -3.7796  -3.7722
    -3.7628  -3.7185  -3.4289  -3.4262  -3.3771  -3.3644  -3.3125  -3.2221
    -3.0826  -3.0808  -3.0788  -3.0732  -2.9433  -2.9165  -2.8836  -2.8001
    -2.7915  -2.7567  -2.7500  -2.7420  -2.7373  -2.4500  -2.3430  -2.3229
    -2.3046  -2.2968  -2.2796  -2.2648  -2.1630  -2.1542  -2.1464  -2.1446
    -2.0338  -2.0239  -2.0134  -1.8923  -1.6818  -1.6740  -1.6461  -1.5611
    -1.5586  -1.5556  -1.5537  -1.5517  -1.5411  -1.5245  -1.4598  -1.4591
    -1.4497  -1.3421  -1.3248  -1.3226  -1.3213  -1.3148  -1.2830  -1.2757
    -1.2672  -1.2627  -1.2041  -1.1867  -1.1727  -1.1630  -1.1069  -1.0968
    -1.0939  -1.0880  -1.0827  -1.0790  -1.0471  -1.0443  -1.0415  -1.0394
    -1.0274  -1.0262  -1.0170  -1.0157  -1.0112  -1.0041  -0.9962  -0.9865
    -0.9706  -0.9661  -0.9644  -0.9621  -0.9406  -0.9367  -0.9346  -0.9334
    -0.8928  -0.8870  -0.8844  -0.8843  -0.8827  -0.8750  -0.8708  -0.8604
    -0.8555  -0.8532  -0.8426  -0.8371  -0.8346  -0.8117  -0.8064  -0.7999
    -0.7948  -0.7815  -0.7789  -0.7732  -0.7604  -0.7573  -0.7461  -0.7443
    -0.7411  -0.7389  -0.6800  -0.6740  -0.6598  -0.6549  -0.6501  -0.6472
    -0.6312  -0.6305  -0.6227  -0.6212  -0.5982  -0.5970  -0.5949  -0.5905
    -0.5819  -0.5807  -0.5790  -0.5745  -0.5634  -0.5547  -0.4977  -0.4964
    -0.4898  -0.4827  -0.4630  -0.4595  -0.4274  -0.4022  -0.3857  -0.3833
    -0.3784  -0.3781  -0.3633  -0.3430  -0.3362  -0.3313  -0.3309  -0.3273
    -0.3234  -0.3067  -0.2861  -0.2749  -0.2691  -0.2631  -0.2583  -0.2548
    -0.2542  -0.2537  -0.2491  -0.2463  -0.2393  -0.2386  -0.1357  -0.1303
    -0.1251  -0.1172  -0.1105  -0.1080  -0.1027  -0.0960  -0.0832  -0.0827
    -0.0815  -0.0810  -0.0770  -0.0611  -0.0507  -0.0382  -0.0293  -0.0243
    -0.0182  -0.0122  -0.0015   0.0047   0.0052   0.0123   0.0231   0.0242
     0.0279   0.0282   0.0334   0.0376   0.0425   0.0439   0.0488   0.0524
     0.0770   0.0823   0.0892   0.0920   0.1138   0.1150   0.1217   0.1235
     0.1596   0.1636   0.1667   0.1687   0.1841   0.1881   0.1896   0.1911
     0.2059   0.2180   0.2215   0.2376   0.2452   0.2550   0.2738   0.2757
     0.2830   0.2849   0.2856   0.2935   0.2986   0.3011   0.3035   0.3042
     0.3098   0.3119   0.3148   0.3160   0.3203   0.3235   0.3488   0.3571
     0.3793   0.3801   0.3814   0.3865   0.3876   0.3885   0.3965   0.3973
     0.3993   0.4038   0.4053   0.4084   0.4129   0.4135   0.4184   0.4206
     0.4275   0.4302   0.4307   0.4394   0.4427   0.4508   0.4525   0.4528
     0.4549   0.4586   0.4625   0.4642   0.4684   0.4840   0.4897   0.4916
     0.4937   0.4995   0.5056   0.5125   0.5195   0.5218   0.5352   0.5703
     0.5787   0.5816   0.5959   0.6075   0.6173   0.6214   0.6274   0.6338
     0.6401   0.6439   0.6471   0.6482   0.6674   0.6733   0.6790   0.6822
     0.6838   0.6940   0.6972   0.7127   0.7158   0.7206   0.7213   0.7224
     0.7241   0.7321   0.7368   0.7399   0.7404   0.7441   0.7449   0.7505
     0.7631   0.7829   0.8067   0.8161   0.8163   0.8259   0.8268   0.8333
     0.8377   0.8438   0.8495   0.8525   0.8558   0.8598   0.8661   0.8717
     0.8777   0.8787   0.8792   0.8810   0.8835   0.8857   0.8869   0.8928
     0.8938   0.8971   0.8986   0.9061   0.9148   0.9174   0.9218   0.9275
     0.9406   0.9428   0.9485   0.9549   0.9624   0.9645   0.9658   0.9671
     0.9692   0.9721   0.9733   0.9756   0.9776   0.9820   0.9838   0.9920
     0.9953   0.9975   0.9999   1.0028   1.0178   1.0198   1.0428   1.0450
     1.0500   1.0512   1.0523   1.0587   1.0623   1.0657   1.0684   1.0782
     1.0910   1.0932   1.0953   1.1002   1.1034   1.1144   1.1155   1.1251
     1.1387   1.1475   1.1502   1.1535   1.1554   1.1596   1.1610   1.1626
     1.1640   1.1698   1.1713   1.1745   1.1759   1.1833   1.1838   1.1905
     1.1910   1.1936   1.2144   1.2156   1.2168   1.2172   1.2251   1.2307
     1.2341   1.2349   1.2421   1.2446   1.2549   1.2582   1.2594   1.2647
     1.2931   1.2990   1.3171   1.3253   1.3281   1.3365   1.3411   1.3421
     1.3428   1.3487   1.3586   1.3667   1.3782   1.3829   1.3842   1.3859
     1.4046   1.4061   1.4148   1.4175   1.4219   1.4270   1.4300   1.4319
     1.4343   1.4364   1.4388   1.4418   1.4453   1.4503   1.4556   1.4582
     1.4594   1.4621   1.4634   1.4696   1.4712   1.4740   1.4755   1.4782
     1.4797   1.4813   1.4834   1.4920   1.4981   1.5007   1.5229   1.5265
     1.5304   1.5318   1.5326   1.5374   1.5449   1.5487   1.5513   1.5532
     1.5548   1.5560   1.5605   1.5620   1.5625   1.5653   1.5669   1.5714
     1.5749   1.5877   1.6044   1.6055   1.6100   1.6131   1.6168   1.6181
     1.6204   1.6214   1.6225   1.6290   1.6295   1.6321   1.6372   1.6414
     1.6433   1.6513   1.6518   1.6563   1.6604   1.6612   1.6619   1.6635
     1.6652   1.6672   1.6744   1.6756   1.6760   1.6785   1.6810   1.6829
     1.6856   1.6873   1.6993   1.7210   1.7231   1.7243   1.7251   1.7303
     1.7309   1.7338   1.7354   1.7403   1.7446   1.7517   1.7547   1.7549
     1.7608   1.7617   1.7642   1.7655   1.7740   1.7800   1.7823   1.7876
     1.7879   1.8051   1.8088   1.8105   1.8119   1.8136   1.8191   1.8233
     1.8260   1.8288   1.8317   1.8322   1.8366   1.8477   1.8533   1.8683
     1.8812   1.8895   1.8916   1.8996   1.9227   1.9244   1.9270   1.9282
     1.9428   1.9918   2.2926   2.3021   2.3231   2.3525   2.4723   2.4962
     2.5430   2.5516   2.6038   2.6046   2.6092   2.6119   2.8048   2.8304
     2.8636   3.0545   3.1363   3.1443   3.1497   3.2062   3.4917   3.5001
     3.5082   3.5116   3.7600   3.7790   3.9473   3.9659   3.9923   4.0377
     4.1942   4.1973   4.2071   4.2450   4.2593   4.3233   4.3897   4.3947
     4.4003   4.4379   4.8084   4.8373   4.8639   5.0413   5.0564   5.0902
     5.1256   5.1435   5.1489   5.1671   5.2765   5.2903   5.3050   5.3085
     5.3286   5.3335   5.3471   5.3560   5.3573   5.3773   5.3882   5.4253
     5.6400   5.6478   5.7000   5.7289   5.7458   5.8001   5.8559   5.8729
     5.9020   5.9092   6.1286   6.1829   6.2098   6.2591   6.2698   6.2754
     6.3015   6.3155   6.4000   6.4393   6.4414   6.4534   6.5167   6.7130
     7.0128   7.0577   7.0740   7.0916   7.2525   7.2613   7.3168   7.3343
     7.3507   7.4543   7.7229   7.7494   7.7796   7.8312   7.8494   7.8639
     7.8686   7.9174   8.0115   8.0327   8.0558   8.0664   8.0766   8.1162
     8.1220   8.1605   8.1710   8.1747   8.2059   8.2442   8.2884   8.2968
     8.3452   8.5274   8.5329   8.5412   8.5760   8.7008   8.7125   8.8201
     9.0430   9.0608   9.0664   9.0680   9.1843   9.1955   9.2210   9.2304
     9.2308   9.2340   9.3335   9.3373   9.4704   9.5278   9.5767   9.5879
     9.6182   9.6480   9.6530   9.7092   9.7421   9.8103   9.8672   9.8982
     9.9369   9.9604   9.9929  10.0057

          k =-0.5000-0.2165 0.0000 (256328 PWs)   bands (ev):

   -15.2747 -15.2123 -15.1843 -15.1737 -14.5098 -14.4744 -14.4653 -14.4572
   -13.0738 -13.0449 -13.0288 -13.0261 -11.4628 -11.4195 -11.3688 -11.3671
   -11.0855 -10.9982 -10.9906 -10.9824 -10.8867 -10.7924 -10.7685 -10.7653
   -10.7086  -9.1098  -9.1031  -9.0860  -9.0744  -8.1679  -8.1586  -8.1422
    -8.1353  -7.4084  -7.4054  -7.3818  -7.3798  -5.3508  -5.3456  -5.3257
    -5.3210  -4.8648  -4.8561  -4.8453  -4.8328  -4.6929  -4.6905  -4.6770
    -4.6763  -4.4356  -4.4302  -4.3818  -4.3809  -4.3038  -4.1110  -3.9061
    -3.8584  -3.8474  -3.8350  -3.7968  -3.7845  -3.6963  -3.6523  -3.6206
    -3.5626  -3.5589  -3.5517  -3.5508  -3.2657  -3.2547  -3.2449  -3.0824
    -3.0798  -3.0577  -3.0485  -3.0436  -3.0400  -3.0242  -2.9929  -2.9170
    -2.9112  -2.8945  -2.8674  -2.8104  -2.4172  -2.4043  -2.3843  -2.2852
    -2.2706  -2.2502  -2.2496  -2.2475  -2.2401  -2.2003  -2.1971  -1.9462
    -1.7525  -1.7511  -1.7443  -1.7407  -1.7397  -1.7381  -1.7359  -1.7351
    -1.7323  -1.7245  -1.7072  -1.5907  -1.4842  -1.4775  -1.4695  -1.4649
    -1.4232  -1.4183  -1.4032  -1.3909  -1.2640  -1.2610  -1.2532  -1.2492
    -1.1991  -1.1827  -1.1728  -1.1714  -1.1682  -1.1651  -1.1460  -1.1233
    -1.1176  -1.1146  -1.0884  -1.0874  -1.0835  -1.0776  -1.0655  -1.0541
    -1.0486  -1.0406  -1.0401  -1.0376  -1.0327  -1.0309  -1.0208  -1.0206
    -0.9855  -0.9811  -0.9604  -0.9553  -0.9469  -0.9325  -0.9242  -0.8923
    -0.8887  -0.8766  -0.8638  -0.8577  -0.8506  -0.8459  -0.8249  -0.8237
    -0.8222  -0.8163  -0.8132  -0.8094  -0.8043  -0.8037  -0.7947  -0.7941
    -0.7814  -0.7779  -0.7753  -0.7690  -0.7567  -0.7496  -0.7416  -0.7378
    -0.7332  -0.7312  -0.7160  -0.7126  -0.7076  -0.6976  -0.6969  -0.6916
    -0.6894  -0.6884  -0.6835  -0.6433  -0.5506  -0.5439  -0.5438  -0.5319
    -0.5304  -0.5298  -0.5257  -0.5219  -0.4677  -0.4608  -0.4558  -0.4540
    -0.4517  -0.4435  -0.4409  -0.4353  -0.4323  -0.4257  -0.4248  -0.4190
    -0.4189  -0.4161  -0.4112  -0.4012  -0.3795  -0.3732  -0.3702  -0.3685
    -0.3649  -0.3631  -0.3473  -0.3421  -0.3356  -0.3274  -0.2857  -0.2840
    -0.2627  -0.2470  -0.2362  -0.2235  -0.1994  -0.1944  -0.1928  -0.1901
    -0.1749  -0.1700  -0.1618  -0.1607  -0.1259  -0.1240  -0.1170  -0.1134
    -0.1052  -0.1013  -0.0883  -0.0829  -0.0724  -0.0645  -0.0639  -0.0594
    -0.0586  -0.0475  -0.0398  -0.0352   0.0079   0.0132   0.0209   0.0321
     0.0364   0.0413   0.0535   0.0602   0.0733   0.0791   0.0818   0.0841
     0.0856   0.0897   0.0984   0.0996   0.1423   0.1442   0.1480   0.1490
     0.1500   0.1556   0.1598   0.1613   0.1757   0.1788   0.1793   0.1821
     0.1994   0.2005   0.2046   0.2079   0.2103   0.2123   0.2176   0.2254
     0.2301   0.2402   0.2426   0.2505   0.2530   0.2594   0.2925   0.2985
     0.3042   0.3080   0.3371   0.3410   0.3577   0.3661   0.3733   0.3744
     0.3763   0.3786   0.3876   0.3912   0.4011   0.4040   0.4081   0.4098
     0.4143   0.4183   0.4224   0.4249   0.4282   0.4303   0.4336   0.4351
     0.4366   0.4433   0.4468   0.4499   0.4515   0.4524   0.4553   0.4654
     0.4801   0.4834   0.4851   0.4904   0.4934   0.4949   0.4972   0.5036
     0.5100   0.5122   0.5167   0.5289   0.5306   0.5511   0.5531   0.5621
     0.5640   0.5744   0.5807   0.5886   0.5945   0.6116   0.6154   0.6337
     0.6362   0.6417   0.6634   0.6763   0.6889   0.6896   0.6922   0.7007
     0.7131   0.7179   0.7223   0.7282   0.7302   0.7393   0.7404   0.7452
     0.7521   0.7586   0.7709   0.7738   0.7760   0.7787   0.7897   0.7911
     0.7941   0.7977   0.7988   0.8000   0.8016   0.8030   0.8061   0.8221
     0.8262   0.8281   0.8299   0.8318   0.8382   0.8445   0.8579   0.8617
     0.8668   0.8716   0.8779   0.8811   0.8881   0.8936   0.8971   0.9017
     0.9027   0.9099   0.9116   0.9205   0.9328   0.9421   0.9439   0.9452
     0.9465   0.9504   0.9531   0.9546   0.9566   0.9590   0.9614   0.9628
     0.9704   0.9804   0.9826   0.9906   0.9995   1.0016   1.0060   1.0064
     1.0080   1.0112   1.0164   1.0230   1.0234   1.0258   1.0321   1.0405
     1.0483   1.0500   1.0538   1.0563   1.0601   1.0674   1.0707   1.0734
     1.0748   1.0775   1.0802   1.0849   1.0996   1.1013   1.1039   1.1115
     1.1311   1.1360   1.1418   1.1492   1.1589   1.1693   1.1750   1.1768
     1.1900   1.1936   1.1966   1.2007   1.2142   1.2256   1.2317   1.2412
     1.2428   1.2452   1.2487   1.2580   1.2621   1.2672   1.2697   1.2743
     1.2752   1.2852   1.2877   1.2978   1.3044   1.3091   1.3104   1.3130
     1.3251   1.3321   1.3356   1.3385   1.3460   1.3496   1.3518   1.3587
     1.3595   1.3605   1.3623   1.3645   1.3670   1.3696   1.3725   1.3754
     1.3757   1.3779   1.3799   1.3818   1.3842   1.3861   1.3919   1.3935
     1.3973   1.4014   1.4021   1.4069   1.4104   1.4133   1.4223   1.4254
     1.4306   1.4336   1.4451   1.4465   1.4492   1.4513   1.4563   1.4599
     1.4615   1.4623   1.4634   1.4729   1.5036   1.5088   1.5148   1.5167
     1.5192   1.5224   1.5238   1.5245   1.5267   1.5289   1.5334   1.5366
     1.5379   1.5385   1.5403   1.5438   1.5468   1.5482   1.5508   1.5893
     1.5948   1.5954   1.5975   1.6011   1.6018   1.6038   1.6049   1.6063
     1.6067   1.6118   1.6136   1.6266   1.6524   1.6530   1.6543   1.6566
     1.6583   1.6596   1.6688   1.6693   1.6719   1.6761   1.6778   1.6787
     1.6795   1.6802   1.6809   1.6825   1.6859   1.6864   1.6888   1.6933
     1.6952   1.6975   1.7043   1.7094   1.7134   1.7162   1.7187   1.7189
     1.7214   1.7243   1.7253   1.7284   1.7305   1.7343   1.7417   1.7582
     1.7585   1.7605   1.7616   1.7642   1.7674   1.7799   1.7832   1.7845
     1.7931   1.7937   1.8013   1.8205   1.8211   1.8235   1.8244   1.8326
     1.8507   1.8521   1.8536   1.8573   1.8826   1.8853   1.8919   1.8925
     1.8998   1.9004   1.9023   1.9133   1.9227   1.9290   1.9322   1.9356
     1.9380   1.9421   1.9444   2.0404   2.1436   2.1488   2.1532   2.1829
     2.5117   2.5171   2.6139   2.7320   2.8580   2.8655   2.8704   2.8963
     3.0546   3.0602   3.0809   3.0879   3.2816   3.3179   3.3443   3.5520
     3.7674   3.7704   3.7707   3.7767   3.9147   3.9171   3.9609   4.0022
     4.2419   4.2482   4.2488   4.2559   4.3435   4.3523   4.4764   4.5201
     4.5444   4.5452   4.5484   4.5977   4.7708   4.7876   4.8275   4.8962
     4.9927   4.9972   5.0099   5.0206   5.3749   5.3801   5.3968   5.4004
[...]
     atom   73 type  1   force =     0.00071943    0.00023724    0.00059719
     atom   74 type  1   force =     0.00045533    0.00072068    0.00055063
     atom   75 type  1   force =    -0.00023094    0.00060728    0.00084224
     atom   76 type  1   force =    -0.00059774    0.00053053   -0.00063933
     atom   77 type  1   force =    -0.00040217    0.00002681    0.00090277
     atom   78 type  1   force =     0.00017104    0.00090009    0.00060294
     atom   79 type  1   force =    -0.00027126    0.00002123    0.00004990
     atom   80 type  1   force =    -0.00033684    0.00024696    0.00075511
     atom   81 type  1   force =    -0.00104406   -0.00001826    0.00054052
     atom   82 type  1   force =    -0.00074832   -0.00059043   -0.00021196
     atom   83 type  1   force =     0.00095774    0.00018127   -0.00016320
     atom   84 type  1   force =    -0.00035744   -0.00059769    0.00050984
     atom   85 type  1   force =     0.00138919   -0.00039322   -0.00093117
     atom   86 type  1   force =     0.00179415   -0.00007504    0.00052181
     atom   87 type  1   force =     0.00000394    0.00075319   -0.00138363
     atom   88 type  1   force =    -0.00171686    0.00079973    0.00001004
     atom   89 type  1   force =     0.00140108   -0.00028722   -0.00160011
     atom   90 type  1   force =     0.00185718   -0.00032312   -0.00044906
     atom   91 type  1   force =    -0.00524669    0.00176995   -0.00438194
     atom   92 type  1   force =    -0.00248413   -0.00075003   -0.00007276
     atom   93 type  1   force =     0.00141982    0.00101243   -0.00027508
     atom   94 type  1   force =    -0.00071484    0.00089256   -0.00003641
     atom   95 type  1   force =     0.00014227   -0.00107588   -0.00115691
     atom   96 type  1   force =     0.00002707    0.00037716    0.00026926
     atom   97 type  1   force =    -0.00094176    0.00006345    0.00054633
     atom   98 type  1   force =    -0.00035978    0.00003721   -0.00078318
     atom   99 type  1   force =     0.00107673   -0.00035444   -0.00048056
     atom  100 type  1   force =     0.00064567   -0.00010435   -0.00039813
     atom  101 type  2   force =     0.00027463   -0.00165669   -0.00247155
     atom  102 type  2   force =    -0.00007550   -0.00056589    0.00078099
     atom  103 type  2   force =     0.00010806   -0.00041578   -0.00206379
     atom  104 type  2   force =     0.00196762   -0.00131793    0.00118702
     atom  105 type  2   force =     0.00161081   -0.00056505   -0.00278465
     atom  106 type  2   force =    -0.00178693   -0.00024941    0.00073402
     atom  107 type  2   force =    -0.00020243   -0.00043872   -0.00119359
     atom  108 type  2   force =     0.00174759   -0.00100278    0.00068608
     atom  109 type  2   force =     0.00008477   -0.00016191   -0.00144709
     atom  110 type  2   force =    -0.00031529   -0.00063594    0.00036511
     atom  111 type  2   force =     0.00089181   -0.00108420   -0.00328606
     atom  112 type  2   force =     0.00058941    0.00017306    0.00079963
     atom  113 type  2   force =     0.00180211    0.00055453    0.00642178
     atom  114 type  2   force =    -0.00174180   -0.00071079    0.00268171
     atom  115 type  2   force =    -0.00171269    0.00091500   -0.00404497
     atom  116 type  2   force =     0.00154537   -0.00009131    0.00200633
     atom  117 type  2   force =     0.00175645   -0.00052513   -0.00254619
     atom  118 type  2   force =    -0.00069317    0.00090728    0.00013974
     atom  119 type  2   force =    -0.00230725    0.00093722   -0.00295880
     atom  120 type  2   force =     0.00097059   -0.00144813    0.00151840
     atom  121 type  2   force =     0.00081670    0.00024464   -0.00253363
     atom  122 type  2   force =    -0.00251258    0.00103778    0.00217563
     atom  123 type  2   force =    -0.00210347   -0.00118827    0.00650453
     atom  124 type  2   force =     0.00162690    0.00030025    0.00182289
     atom  125 type  2   force =     0.00181783    0.00154260    0.00529521
     atom  126 type  2   force =    -0.00050523   -0.00044091    0.00028286
     atom  127 type  2   force =    -0.00030968   -0.00109634   -0.00193841
     atom  128 type  2   force =     0.00118034    0.00059395   -0.00007759
     atom  129 type  2   force =     0.00196558   -0.00117278   -0.00248815
     atom  130 type  2   force =    -0.00150264    0.00136925    0.00126710
     atom  131 type  2   force =    -0.00178363    0.00099851   -0.00290902
     atom  132 type  2   force =     0.00177197    0.00017748    0.00066302
     atom  133 type  2   force =     0.00198915   -0.00164665   -0.00341548
     atom  134 type  2   force =    -0.00135318    0.00194753    0.00163577
     atom  135 type  2   force =    -0.00230741   -0.00010629    0.00583065
     atom  136 type  2   force =     0.00014870    0.00056313    0.00049850
     atom  137 type  2   force =    -0.00058155    0.00123702   -0.00381953
     atom  138 type  2   force =     0.00000377   -0.00017274   -0.00283247
     atom  139 type  2   force =    -0.00080024    0.00018575   -0.00190764
     atom  140 type  2   force =     0.00116854    0.00082574   -0.00220492
     atom  141 type  2   force =     0.00048111    0.00130536   -0.00037836
     atom  142 type  2   force =    -0.00054393   -0.00104576    0.00054891
     atom  143 type  2   force =    -0.00097122    0.00061717   -0.00209302
     atom  144 type  2   force =     0.00006306    0.00135981    0.00003774
     atom  145 type  2   force =    -0.00108327    0.00094776   -0.00230239
     atom  146 type  2   force =    -0.00054783   -0.00070553   -0.00230104
     atom  147 type  2   force =     0.00029830    0.00149250   -0.00394941
     atom  148 type  2   force =    -0.00048259    0.00027090   -0.00271793
     atom  149 type  3   force =     0.00324386   -0.00096975    0.00226286
     atom  150 type  2   force =     0.00029399    0.00033561    0.00345487
     atom  151 type  3   force =    -0.00434472   -0.00262126    0.00624975
     atom  152 type  3   force =     0.00209478    0.00329431   -0.00141626
     atom  153 type  3   force =     0.00004869   -0.00414221   -0.00139450

     Total force =     0.031549     Total SCF correction =     0.000246

     number of scf cycles    =  14
     number of bfgs steps    =  13

     energy   old            =  -12714.7987315925 Ry
     energy   new            =  -12714.7999109890 Ry

     CASE: energy  _new < energy  _old

     new trust radius        =       0.0630423314 bohr
     new conv_thr            =       0.0000000100 Ry


ATOMIC_POSITIONS (angstrom)
Cu       0.005825600  -0.020879828   7.309069376
Cu       1.851551875   1.662320170   7.321608923
Cu       3.698158252  -0.024752648   7.304355143
Cu       5.542192858   1.662110926   7.323481967
Cu       0.007843898   3.363051371   7.344362965
Cu       1.849461623   5.084764814   7.367224864
Cu       3.694441466   3.362823346   7.348424709
Cu       5.538896325   5.084482584   7.369030019
Cu       0.003718235   6.817741028   7.374290543
Cu       1.849423911   8.549412063   7.361901447
Cu       3.696408748   6.817149015   7.373943210
Cu       5.538602831   8.549594042   7.362677034
Cu       0.007207986  10.271503505   7.335075280
Cu       1.851665057  11.975637777   7.312890747
Cu       3.694848757  10.272270356   7.339380318
Cu       5.541881037  11.976452842   7.313278120
Cu       0.006658657  13.660599776   7.303560838
Cu       1.851665121  15.340961338   7.299017530
Cu       3.697148696  13.664734218   7.297105078
Cu       5.540355353  15.338658113   7.302010089
Cu       0.006241515   1.638958457   9.182279182
Cu       1.853434181  -0.039469896   9.173582053
Cu       3.694947885   1.630780946   9.170770806
Cu       5.541300963  -0.038196129   9.176359945
Cu       0.003794192   5.066788903   9.166861349
Cu       1.847451170   3.336263309   9.174512329
Cu       3.692439955   5.068566168   9.175372371
Cu       5.537413198   3.335920718   9.171984852
Cu       0.003014422   8.572798497   9.161534690
Cu       1.850116342   6.819708731   9.168009736
Cu       3.692372725   8.570079250   9.170154879
Cu       5.535149852   6.818960322   9.173484130
Cu       0.006089837  11.998478219   9.172480502
Cu       1.846626947  10.302041892   9.164334374
Cu       3.695341323  12.007694056   9.158862680
Cu       5.538051623  10.302764842   9.162267022
Cu       0.009616428  15.337349522   9.172555702
Cu       1.853132377  13.676747423   9.166084342
Cu       3.697447674  15.336334498   9.175583305
Cu       5.541837946  13.673202031   9.171275101
Cu       0.008503498  -0.045796564  11.066731980
Cu       1.846207567   1.624884109  11.032857031
Cu       3.697275649  -0.044521326  11.062027319
Cu       5.541317987   1.631387982  11.036312201
Cu       0.003192772   3.338168760  11.003457062
Cu       1.845963976   5.065547463  10.967553406
Cu       3.693553330   3.318722146  10.988735706
Cu       5.544967795   5.064250194  10.967950685
Cu       0.004910614   6.822316591  10.955240247
Cu       1.842452934   8.577946691  10.961320394
Cu       3.687382301   6.820832214  10.960060749
Cu       5.546163954   8.579741667  10.960020411
Cu       0.001974380  10.303684587  10.997224512
Cu       1.845853977  12.014162848  11.024490365
Cu       3.692834681  10.327967043  10.976300124
Cu       5.541865087  12.005154386  11.032927009
Cu       0.007438553  13.679462687  11.063165024
Cu       1.857835276  15.334262516  11.077640458
Cu       3.698683305  13.676157819  11.061820072
Cu       5.541143369  15.335985275  11.071553486
Cu       0.000903021   1.659224790  12.906060002
Cu       1.850648922  -0.015568478  12.954663418
Cu       3.702033363   1.656163681  12.893500856
Cu       5.542876392  -0.028914207  12.952928040
Cu      -0.002452971   5.077516762  12.772984563
Cu       1.843618988   3.335494181  12.813368022
Cu       3.700028359   5.033666285  12.724815451
Cu       5.549036218   3.346305241  12.836046341
Cu      -0.003660554   8.571275496  12.773435837
Cu       1.815761177   6.826222072  12.733071259
Cu       3.698160335   8.632724015  12.698297503
Cu       5.579607124   6.828877700  12.706217492
Cu      -0.002217163  11.978962059  12.906140984
Cu       1.838262885  10.308659715  12.806148259
Cu       3.701929501  11.972398305  12.897961001
Cu       5.550648682  10.292067382  12.838970009
Cu       0.014343887  15.333736101  12.972967376
Cu       1.851676531  13.645780126  12.954768772
Cu       3.691479652  15.336451436  12.974145559
Cu       5.540175771  13.662538000  12.954418696
Cu       0.020834128   0.018401931  14.810696017
Cu       1.864708259   1.733204356  14.763576139
Cu       3.684513330   0.007296887  14.819847266
Cu       5.532299314   1.706158505  14.762623282
Cu      -0.010229599   3.397594322  14.708291842
Cu       1.807400225   5.074686029  14.493921269
Cu       3.707342365   3.412356413  14.657686770
Cu       5.576518568   5.099120053  14.562158450
Cu      -0.022580652   6.830029550  14.568266750
Cu       1.811302918   8.581027287  14.501402859
Cu       3.761764442   6.860112305  14.348661926
Cu       5.577498030   8.552387926  14.590952104
Cu      -0.007724628  10.242302205  14.711516713
Cu       1.864547248  11.901926203  14.765833336
Cu       3.701964371  10.212304481  14.673651713
Cu       5.527274567  11.927256276  14.768236268
Cu       0.017719130  13.614044561  14.816547537
Cu       1.848083081  15.334715799  14.844016740
Cu       3.683876952  13.627854143  14.818703755
Cu       5.541597525  15.337376701  14.841010921
C       -0.003101320   0.736131708  18.329805746
C       -0.003139338   2.155328430  18.503730494
C        1.225338245   0.018886509  18.264802748
C        1.228005773   2.857276191  18.659976573
C        2.455555546   0.732898775  18.339524913
C        2.455848749   2.147427722  18.555100167
C        3.684803065   0.018175347  18.254939611
C        3.684109673   2.856347062  18.683084668
C        4.913910037   0.735368134  18.322184351
C        4.912253856   2.152471603  18.520090727
C        6.144552494   0.020466940  18.264923349
C        6.143261136   2.860378248  18.613286384
C       -0.002102633   4.973084722  18.955598869
C       -0.000288568   6.392860850  19.073186576
C        1.229049714   4.260456697  18.934987533
C        1.228228124   7.106495010  19.178212620
C        2.454268013   4.961598721  19.145422893
C        2.451999135   6.387393742  19.317085614
C        3.684642122   4.257556577  18.981995273
C        3.692019880   7.113564901  19.306123913
C        4.916923403   4.970993773  19.032203051
C        4.920405188   6.392675363  19.186185773
C        6.143725242   4.270027822  18.842525537
C        6.147088779   7.107188988  19.073558847
C        0.001695585   9.228199444  18.830420199
C        0.000944451  10.638574615  18.601034827
C        1.229141335   8.527987456  19.014925354
C        1.231698909  11.346975161  18.509181611
C        2.460020774   9.240988505  18.956082309
C        2.460079580  10.642279204  18.664398803
C        3.689935333   8.536309878  19.116800092
C        3.687812268  11.350998378  18.539333112
C        4.916033054   9.237685873  18.913107951
C        4.915672091  10.640443403  18.641413446
C        6.147596436   8.526422839  18.947328286
C        6.146999559  11.343544971  18.494268597
C       -0.000481082  13.479279678  18.263108757
C       -0.002141757  14.908911484  18.196003353
C        1.231017832  12.764444991  18.317241104
C        1.226835725  15.628720460  18.186203127
C        2.459430174  13.480973235  18.249525887
C        2.457156635  14.910068680  18.182012033
C        3.688055264  12.766337982  18.330478756
C        3.687143720  15.628614196  18.186543165
C        4.918700578  13.480618313  18.262802432
C        4.917428307  14.909655479  18.187831893
C        6.146593795  12.763637227  18.329940303
C        6.146250817  15.629434025  18.195343244
H        3.238528634   6.682027796  17.492340651
C        2.921069769   6.588371303  16.463983740
H        3.952687849   6.540896227  15.998245294
H        2.341563594   5.648614164  16.399730119
H        2.318621189   7.490398036  16.277491338



     Writing output data file gc.save
     Check: negative starting charge=   -0.001563
     NEW-OLD atomic charge density approx. for the potential
     Check: negative starting charge=   -0.001564

     negative rho (up, down):  1.532E-03 0.000E+00

     total cpu time spent up to now is    51126.0 secs

     Self-consistent Calculation

     iteration #  1     ecut=    80.00 Ry     beta=0.70
     Davidson diagonalization with overlap
     ethr =  1.00E-06,  avg # of iterations =  6.8

     negative rho (up, down):  1.476E-03 0.000E+00

     total cpu time spent up to now is    51685.6 secs

     total energy              =  -12714.79949425 Ry
     Harris-Foulkes estimate   =  -12714.81578720 Ry
     estimated scf accuracy    <       0.12900111 Ry

     iteration #  2     ecut=    80.00 Ry     beta=0.70
     Davidson diagonalization with overlap
     ethr =  9.92E-06,  avg # of iterations =  2.2

     negative rho (up, down):  1.562E-03 0.000E+00

     total cpu time spent up to now is    51882.5 secs

     total energy              =  -12714.79927762 Ry
     Harris-Foulkes estimate   =  -12714.80583311 Ry
     estimated scf accuracy    <       0.02244511 Ry

     iteration #  3     ecut=    80.00 Ry     beta=0.70
     Davidson diagonalization with overlap
     ethr =  1.73E-06,  avg # of iterations =  5.3

     negative rho (up, down):  1.653E-03 0.000E+00

     total cpu time spent up to now is    52132.9 secs

     total energy              =  -12714.80001154 Ry
     Harris-Foulkes estimate   =  -12714.80380118 Ry
     estimated scf accuracy    <       0.03637834 Ry

     iteration #  4     ecut=    80.00 Ry     beta=0.70
     Davidson diagonalization with overlap
     ethr =  1.73E-06,  avg # of iterations =  4.2

     negative rho (up, down):  1.516E-03 0.000E+00

     total cpu time spent up to now is    52342.1 secs

     total energy              =  -12714.80160932 Ry
     Harris-Foulkes estimate   =  -12714.80171122 Ry
     estimated scf accuracy    <       0.00120492 Ry

     iteration #  5     ecut=    80.00 Ry     beta=0.70
     Davidson diagonalization with overlap
     ethr =  9.27E-08,  avg # of iterations =  3.0

     negative rho (up, down):  1.246E-03 0.000E+00

     total cpu time spent up to now is    52542.8 secs

     total energy              =  -12714.80160662 Ry
     Harris-Foulkes estimate   =  -12714.80168877 Ry
     estimated scf accuracy    <       0.00071213 Ry

     iteration #  6     ecut=    80.00 Ry     beta=0.70
     Davidson diagonalization with overlap
     ethr =  5.48E-08,  avg # of iterations =  2.0

     negative rho (up, down):  1.172E-03 0.000E+00

     total cpu time spent up to now is    52733.7 secs

     total energy              =  -12714.80163566 Ry
     Harris-Foulkes estimate   =  -12714.80164803 Ry
     estimated scf accuracy    <       0.00020118 Ry

     iteration #  7     ecut=    80.00 Ry     beta=0.70
     Davidson diagonalization with overlap
     ethr =  1.55E-08,  avg # of iterations =  2.5

     negative rho (up, down):  1.206E-03 0.000E+00

     total cpu time spent up to now is    52924.3 secs

     total energy              =  -12714.80164452 Ry
     Harris-Foulkes estimate   =  -12714.80164888 Ry
     estimated scf accuracy    <       0.00004363 Ry

     iteration #  8     ecut=    80.00 Ry     beta=0.70
     Davidson diagonalization with overlap
     ethr =  3.36E-09,  avg # of iterations =  2.3

     negative rho (up, down):  1.298E-03 0.000E+00

     total cpu time spent up to now is    53120.1 secs

     total energy              =  -12714.80164658 Ry
     Harris-Foulkes estimate   =  -12714.80164845 Ry
     estimated scf accuracy    <       0.00001558 Ry

     iteration #  9     ecut=    80.00 Ry     beta=0.70
     Davidson diagonalization with overlap
     ethr =  1.20E-09,  avg # of iterations =  2.0

     negative rho (up, down):  1.387E-03 0.000E+00

     total cpu time spent up to now is    53307.5 secs

     total energy              =  -12714.80164688 Ry
     Harris-Foulkes estimate   =  -12714.80164754 Ry
     estimated scf accuracy    <       0.00000546 Ry

     iteration # 10     ecut=    80.00 Ry     beta=0.70
     Davidson diagonalization with overlap
     ethr =  4.20E-10,  avg # of iterations =  2.0

     negative rho (up, down):  1.442E-03 0.000E+00

     total cpu time spent up to now is    53496.3 secs

     total energy              =  -12714.80164713 Ry
     Harris-Foulkes estimate   =  -12714.80164732 Ry
     estimated scf accuracy    <       0.00000158 Ry

     iteration # 11     ecut=    80.00 Ry     beta=0.70
     Davidson diagonalization with overlap
     ethr =  1.22E-10,  avg # of iterations =  2.2

     negative rho (up, down):  1.474E-03 0.000E+00

     total cpu time spent up to now is    53689.2 secs

     total energy              =  -12714.80164715 Ry
     Harris-Foulkes estimate   =  -12714.80164730 Ry
     estimated scf accuracy    <       0.00000058 Ry

     iteration # 12     ecut=    80.00 Ry     beta=0.70
     Davidson diagonalization with overlap
     ethr =  4.44E-11,  avg # of iterations =  2.0

     negative rho (up, down):  1.497E-03 0.000E+00

     total cpu time spent up to now is    53875.7 secs

     total energy              =  -12714.80164715 Ry
     Harris-Foulkes estimate   =  -12714.80164721 Ry
     estimated scf accuracy    <       0.00000029 Ry

     iteration # 13     ecut=    80.00 Ry     beta=0.70
     Davidson diagonalization with overlap
     ethr =  2.24E-11,  avg # of iterations =  2.0

     negative rho (up, down):  1.503E-03 0.000E+00

     total cpu time spent up to now is    54067.1 secs

     total energy              =  -12714.80164714 Ry
     Harris-Foulkes estimate   =  -12714.80164717 Ry
     estimated scf accuracy    <       0.00000007 Ry

     iteration # 14     ecut=    80.00 Ry     beta=0.70
     Davidson diagonalization with overlap
