
     Program PWSCF v.5.4.0 starts on 17Mar2017 at  1:36:44 

     This program is part of the open-source Quantum ESPRESSO suite
     for quantum simulation of materials; please cite
         "P. Giannozzi et al., J. Phys.:Condens. Matter 21 395502 (2009);
          URL http://www.quantum-espresso.org", 
     in publications or presentations arising from this work. More details at
     http://www.quantum-espresso.org/quote

     Parallel version (MPI & OpenMP), running on      56 processor cores
     Number of MPI processes:                56
     Threads/MPI process:                     1
     R & G space division:  proc/nbgrp/npool/nimage =      56
     Waiting for input...
     Reading input from standard input

     Current dimensions of program PWSCF are:
     Max number of different atomic species (ntypx) = 10
     Max number of k-points (npk) =  40000
     Max angular momentum in pseudopotentials (lmaxx) =  3

     -------------------------------------
     Parameters for Dispersion Correction:
     -------------------------------------
       atom      VdW radius       C_6     

        Cu         2.952        374.666
        C          2.744         60.710
        H          1.892          4.857

     Subspace diagonalization in iterative solution of the eigenvalue problem:
     one sub-group per band group will be used
     scalapack distributed-memory algorithm (size of sub-group:  5*  5 procs)

 
     Parallelization info
     --------------------
     sticks:   dense  smooth     PW     G-vecs:    dense   smooth      PW
     Min         204     204     54                36612    36612    4962
     Max         205     205     55                36617    36617    4968
     Sum       11433   11433   3039              2050409  2050409  278033
 


     bravais-lattice index     =            0
     lattice parameter (alat)  =      13.9425  a.u.
     unit-cell volume          =   21209.0878 (a.u.)^3
     number of atoms/cell      =          153
     number of atomic types    =            3
     number of electrons       =      1300.00
     number of Kohn-Sham states=          780
     kinetic-energy cutoff     =      80.0000  Ry
     charge density cutoff     =     320.0000  Ry
     convergence threshold     =      1.0E-08
     mixing beta               =       0.7000
     number of iterations used =            8  local-TF  mixing
     Exchange-correlation      =  SLA  PW   PBE  PBE ( 1  4  3  4 0 0)
     nstep                     =           50


     celldm(1)=  13.942539  celldm(2)=   0.000000  celldm(3)=   0.000000
     celldm(4)=   0.000000  celldm(5)=   0.000000  celldm(6)=   0.000000

     crystal axes: (cart. coord. in units of alat)
               a(1) = (   1.000000   0.000000   0.000000 )  
               a(2) = (   0.000000   2.309401   0.000000 )  
               a(3) = (   0.000000   0.000000   3.388418 )  

     reciprocal axes: (cart. coord. in units 2 pi/alat)
               b(1) = (  1.000000  0.000000  0.000000 )  
               b(2) = (  0.000000  0.433013  0.000000 )  
               b(3) = (  0.000000  0.000000  0.295123 )  


     PseudoPot. # 1 for Cu read from file:
     /home/549/hxw549/Short/pseudopotentials/Cu.pbe-n-van_ak.UPF
     MD5 check sum: 601f7c30f7467666bec936e0661ce3e1
     Pseudo is Ultrasoft + core correction, Zval = 11.0
     Generated by new atomic code, or converted to UPF format
     Using radial grid of  867 points,  6 beta functions with: 
                l(1) =   0
                l(2) =   0
                l(3) =   1
                l(4) =   1
                l(5) =   2
                l(6) =   2
     Q(r) pseudized with  8 coefficients,  rinner =    1.400   1.400   1.400
                                                       1.400   1.400

     PseudoPot. # 2 for C  read from file:
     /home/549/hxw549/Short/pseudopotentials/C.pbe-mt_gipaw.UPF
     MD5 check sum: 5ac2f21f2c440b14befe521540822c15
     Pseudo is Norm-conserving, Zval =  4.0
     Generated by new atomic code, or converted to UPF format
     Using radial grid of 1073 points,  1 beta functions with: 
                l(1) =   0

     PseudoPot. # 3 for H  read from file:
     /home/549/hxw549/Short/pseudopotentials/H.pbe-van_ak.UPF
     MD5 check sum: 077eb6d537518a38cb46c6de387227b7
     Pseudo is Ultrasoft, Zval =  1.0
     Generated by new atomic code, or converted to UPF format
     Using radial grid of  615 points,  1 beta functions with: 
                l(1) =   0
     Q(r) pseudized with  8 coefficients,  rinner =    0.800

     atomic species   valence    mass     pseudopotential
        Cu            11.00    63.54600     Cu( 1.00)
        C              4.00    12.01070     C ( 1.00)
        H              1.00     1.00783     H ( 1.00)

     No symmetry found



   Cartesian axes

     site n.     atom                  positions (alat units)
         1           Cu  tau(   1) = (  -0.0000061   0.0000859   0.9974453  )
         2           Cu  tau(   2) = (   0.2499834   0.2309435   0.9974857  )
         3           Cu  tau(   3) = (   0.4999820   0.0000292   0.9973921  )
         4           Cu  tau(   4) = (   0.7499943   0.2309608   0.9975192  )
         5           Cu  tau(   5) = (  -0.0000148   0.4618129   0.9975194  )
         6           Cu  tau(   6) = (   0.2499854   0.6927730   0.9973716  )
         7           Cu  tau(   7) = (   0.4999975   0.4618632   0.9975075  )
         8           Cu  tau(   8) = (   0.7500019   0.6927697   0.9973799  )
         9           Cu  tau(   9) = (  -0.0000106   0.9237787   0.9972545  )
        10           Cu  tau(  10) = (   0.2500158   1.1547493   0.9973328  )
        11           Cu  tau(  11) = (   0.4999952   0.9237374   0.9972820  )
        12           Cu  tau(  12) = (   0.7499663   1.1547437   0.9973571  )
        13           Cu  tau(  13) = (  -0.0000104   1.3856717   0.9974709  )
        14           Cu  tau(  14) = (   0.2499853   1.6165564   0.9975482  )
        15           Cu  tau(  15) = (   0.4999900   1.3856800   0.9975628  )
        16           Cu  tau(  16) = (   0.7499916   1.6165628   0.9975545  )
        17           Cu  tau(  17) = (  -0.0000073   1.8474464   0.9974902  )
        18           Cu  tau(  18) = (   0.2499750   2.0784722   0.9974066  )
        19           Cu  tau(  19) = (   0.4999832   1.8474812   0.9974253  )
        20           Cu  tau(  20) = (   0.7500006   2.0784589   0.9973454  )
        21           Cu  tau(  21) = (   0.0000109   0.2310340   1.2461899  )
        22           Cu  tau(  22) = (   0.2499611   0.0001434   1.2460132  )
        23           Cu  tau(  23) = (   0.4999655   0.2309886   1.2459791  )
        24           Cu  tau(  24) = (   0.7500092   0.0000164   1.2458673  )
        25           Cu  tau(  25) = (   0.0000112   0.6929613   1.2458008  )
        26           Cu  tau(  26) = (   0.2499727   0.4619415   1.2459274  )
        27           Cu  tau(  27) = (   0.5000148   0.6929143   1.2458515  )
        28           Cu  tau(  28) = (   0.7500244   0.4619772   1.2460084  )
        29           Cu  tau(  29) = (   0.0000256   1.1545435   1.2458302  )
        30           Cu  tau(  30) = (   0.2500054   0.9237705   1.2457457  )
        31           Cu  tau(  31) = (   0.4999823   1.1544964   1.2459093  )
        32           Cu  tau(  32) = (   0.7500144   0.9237499   1.2457813  )
        33           Cu  tau(  33) = (   0.0000043   1.6164167   1.2460943  )
        34           Cu  tau(  34) = (   0.2499800   1.3854236   1.2460378  )
        35           Cu  tau(  35) = (   0.4999700   1.6165683   1.2460311  )
        36           Cu  tau(  36) = (   0.7500068   1.3854772   1.2459916  )
        37           Cu  tau(  37) = (   0.0000062   2.0785055   1.2457744  )
        38           Cu  tau(  38) = (   0.2499628   1.8474789   1.2459507  )
        39           Cu  tau(  39) = (   0.4999638   2.0784842   1.2457312  )
        40           Cu  tau(  40) = (   0.7500076   1.8475446   1.2458854  )
        41           Cu  tau(  41) = (   0.0000421  -0.0000984   1.4956486  )
        42           Cu  tau(  42) = (   0.2499623   0.2315383   1.4961046  )
        43           Cu  tau(  43) = (   0.4999233  -0.0000235   1.4954027  )
        44           Cu  tau(  44) = (   0.7500237   0.2310909   1.4955939  )
        45           Cu  tau(  45) = (   0.0001374   0.4625534   1.4958692  )
        46           Cu  tau(  46) = (   0.2500592   0.6931357   1.4956891  )
        47           Cu  tau(  47) = (   0.4999375   0.4622726   1.4956622  )
        48           Cu  tau(  48) = (   0.7501621   0.6931585   1.4957151  )
        49           Cu  tau(  49) = (   0.0001828   0.9236847   1.4959747  )
        50           Cu  tau(  50) = (   0.2499626   1.1539495   1.4960842  )
        51           Cu  tau(  51) = (   0.5000381   0.9235334   1.4959102  )
        52           Cu  tau(  52) = (   0.7502011   1.1541901   1.4957430  )
        53           Cu  tau(  53) = (   0.0000953   1.3849016   1.4959015  )
        54           Cu  tau(  54) = (   0.2498984   1.6162198   1.4957240  )
        55           Cu  tau(  55) = (   0.4999417   1.3851159   1.4955146  )
        56           Cu  tau(  56) = (   0.7500739   1.6163865   1.4955053  )
        57           Cu  tau(  57) = (   0.0000045   1.8475864   1.4954591  )
        58           Cu  tau(  58) = (   0.2499675   2.0785101   1.4955159  )
        59           Cu  tau(  59) = (   0.4999572   1.8477277   1.4954640  )
        60           Cu  tau(  60) = (   0.7499945   2.0785278   1.4955203  )
        61           Cu  tau(  61) = (   0.0002526   0.2313820   1.7443139  )
        62           Cu  tau(  62) = (   0.2500737  -0.0001503   1.7450533  )
        63           Cu  tau(  63) = (   0.4998469   0.2308748   1.7445869  )
        64           Cu  tau(  64) = (   0.7499076  -0.0000485   1.7449958  )
        65           Cu  tau(  65) = (   0.0007880   0.6933814   1.7462931  )
        66           Cu  tau(  66) = (   0.2505091   0.4637436   1.7464953  )
        67           Cu  tau(  67) = (   0.5001093   0.6932142   1.7459778  )
        68           Cu  tau(  68) = (   0.7499111   0.4624311   1.7447734  )
        69           Cu  tau(  69) = (   0.0006026   1.1535406   1.7467850  )
        70           Cu  tau(  70) = (   0.2504681   0.9227611   1.7472317  )
        71           Cu  tau(  71) = (   0.5001426   1.1538995   1.7452058  )
        72           Cu  tau(  72) = (   0.7505891   0.9235710   1.7460410  )
        73           Cu  tau(  73) = (   0.0000939   1.6164061   1.7446895  )
        74           Cu  tau(  74) = (   0.2497645   1.3844234   1.7455021  )
        75           Cu  tau(  75) = (   0.4999242   1.6163742   1.7438986  )
        76           Cu  tau(  76) = (   0.7504900   1.3848341   1.7447937  )
        77           Cu  tau(  77) = (  -0.0000473   2.0782602   1.7454104  )
        78           Cu  tau(  78) = (   0.2498110   1.8476558   1.7448167  )
        79           Cu  tau(  79) = (   0.5000051   2.0786793   1.7453087  )
        80           Cu  tau(  80) = (   0.7501459   1.8475994   1.7447935  )
        81           Cu  tau(  81) = (   0.0000976   0.0007723   1.9906318  )
        82           Cu  tau(  82) = (   0.2501989   0.2313265   1.9903681  )
        83           Cu  tau(  83) = (   0.4999932   0.0000684   1.9922485  )
        84           Cu  tau(  84) = (   0.7502428   0.2309055   1.9904384  )
        85           Cu  tau(  85) = (   0.0001321   0.4622343   1.9898579  )
        86           Cu  tau(  86) = (   0.2538981   0.6929866   1.9986273  )
        87           Cu  tau(  87) = (   0.5010490   0.4602715   1.9915572  )
        88           Cu  tau(  88) = (   0.7488732   0.6926230   1.9918521  )
        89           Cu  tau(  89) = (   0.0018147   0.9218361   1.9937327  )
        90           Cu  tau(  90) = (   0.2511742   1.1538759   1.9943600  )
        91           Cu  tau(  91) = (   0.5011685   0.9247265   1.9937814  )
        92           Cu  tau(  92) = (   0.7507104   1.1545977   1.9924256  )
        93           Cu  tau(  93) = (   0.0005167   1.3857501   1.9918262  )
        94           Cu  tau(  94) = (   0.2497976   1.6164030   1.9902238  )
        95           Cu  tau(  95) = (   0.5002128   1.3859419   1.9895526  )
        96           Cu  tau(  96) = (   0.7503957   1.6162378   1.9900106  )
        97           Cu  tau(  97) = (  -0.0000512   1.8469837   1.9922161  )
        98           Cu  tau(  98) = (   0.2497710   2.0782644   1.9915109  )
        99           Cu  tau(  99) = (   0.5000489   1.8467959   1.9902846  )
       100           Cu  tau( 100) = (   0.7502177   2.0783528   1.9915112  )
       101           C   tau( 101) = (  -0.0003414   0.0959260   2.5246968  )
       102           C   tau( 102) = (  -0.0005311   0.2880372   2.5228671  )
       103           C   tau( 103) = (   0.1664900   0.0000150   2.5236125  )
       104           C   tau( 104) = (   0.1658950   0.3836141   2.5181233  )
       105           C   tau( 105) = (   0.3329823   0.0959316   2.5203597  )
       106           C   tau( 106) = (   0.3328908   0.2882354   2.5172830  )
       107           C   tau( 107) = (   0.4998429  -0.0001390   2.5204139  )
       108           C   tau( 108) = (   0.4998623   0.3845275   2.5152228  )
       109           C   tau( 109) = (   0.6666737   0.0961327   2.5216879  )
       110           C   tau( 110) = (   0.6667355   0.2883844   2.5183537  )
       111           C   tau( 111) = (   0.8331060  -0.0000590   2.5244800  )
       112           C   tau( 112) = (   0.8332675   0.3844924   2.5196413  )
       113           C   tau( 113) = (  -0.0008062   0.6731012   2.5165240  )
       114           C   tau( 114) = (  -0.0004346   0.8662185   2.5104384  )
       115           C   tau( 115) = (   0.1659344   0.5759929   2.5158327  )
       116           C   tau( 116) = (   0.1629216   0.9639019   2.5191805  )
       117           C   tau( 117) = (   0.3320481   0.6697401   2.5174185  )
       118           C   tau( 118) = (   0.3296302   0.8640589   2.5138539  )
       119           C   tau( 119) = (   0.4992644   0.5768075   2.5170526  )
       120           C   tau( 120) = (   0.5027458   0.9640845   2.5165104  )
       121           C   tau( 121) = (   0.6668673   0.6738861   2.5169577  )
       122           C   tau( 122) = (   0.6694731   0.8650813   2.5196820  )
       123           C   tau( 123) = (   0.8334719   0.5771319   2.5167137  )
       124           C   tau( 124) = (   0.8326020   0.9624951   2.5115498  )
       125           C   tau( 125) = (  -0.0005408   1.2515536   2.5139217  )
       126           C   tau( 126) = (  -0.0002025   1.4441657   2.5147213  )
       127           C   tau( 127) = (   0.1659611   1.1548761   2.5182453  )
       128           C   tau( 128) = (   0.1666509   1.5402873   2.5185299  )
       129           C   tau( 129) = (   0.3337850   1.2519397   2.5234363  )
       130           C   tau( 130) = (   0.3332515   1.4442312   2.5213626  )
       131           C   tau( 131) = (   0.5005739   1.1593011   2.5266350  )
       132           C   tau( 132) = (   0.4998278   1.5404340   2.5227587  )
       133           C   tau( 133) = (   0.6662401   1.2526435   2.5182046  )
       134           C   tau( 134) = (   0.6665454   1.4450373   2.5190449  )
       135           C   tau( 135) = (   0.8333031   1.1555540   2.5140301  )
       136           C   tau( 136) = (   0.8331891   1.5406696   2.5180691  )
       137           C   tau( 137) = (  -0.0000297   1.8288667   2.5206443  )
       138           C   tau( 138) = (  -0.0000613   2.0211271   2.5231788  )
       139           C   tau( 139) = (   0.1667729   1.7325293   2.5212949  )
       140           C   tau( 140) = (   0.1665083   2.1171200   2.5231788  )
       141           C   tau( 141) = (   0.3332856   1.8286704   2.5238023  )
       142           C   tau( 142) = (   0.3333299   2.0209605   2.5232872  )
       143           C   tau( 143) = (   0.4998642   1.7326998   2.5236939  )
       144           C   tau( 144) = (   0.4998585   2.1169691   2.5234363  )
       145           C   tau( 145) = (   0.6664680   1.8286764   2.5237616  )
       146           C   tau( 146) = (   0.6664575   2.0209616   2.5235312  )
       147           C   tau( 147) = (   0.8331465   1.7328249   2.5213762  )
       148           C   tau( 148) = (   0.8332060   2.1170919   2.5233957  )
       149           H   tau( 149) = (   0.4148802   0.9105182   2.3823510  )
       150           C   tau( 150) = (   0.4148802   0.9105182   2.2468143  )
       151           H   tau( 151) = (   0.5540375   0.9105182   2.1976145  )
       152           H   tau( 152) = (   0.3453011   0.7900037   2.1976145  )
       153           H   tau( 153) = (   0.3453011   1.0310327   2.1976145  )

     number of k points=     6  gaussian smearing, width (Ry)=  0.1000
                       cart. coord. in units 2pi/alat
        k(    1) = (   0.0000000   0.0000000   0.0000000), wk =   0.2500000
        k(    2) = (   0.0000000  -0.2165064   0.0000000), wk =   0.2500000
        k(    3) = (   0.2500000   0.0000000   0.0000000), wk =   0.5000000
        k(    4) = (   0.2500000  -0.2165064   0.0000000), wk =   0.5000000
        k(    5) = (  -0.5000000   0.0000000   0.0000000), wk =   0.2500000
        k(    6) = (  -0.5000000  -0.2165064   0.0000000), wk =   0.2500000

     Dense  grid:  2050409 G-vectors     FFT dimensions: (  80, 192, 270)

     Largest allocated arrays     est. size (Mb)     dimensions
        Kohn-Sham Wavefunctions        54.80 Mb     (    4604,  780)
        NL pseudopotentials           130.18 Mb     (    4604, 1853)
        Each V/rho on FFT grid          1.17 Mb     (   76800)
        Each G-vector array             0.28 Mb     (   36616)
        G-vector shells                 0.14 Mb     (   17932)
     Largest temporary arrays     est. size (Mb)     dimensions
        Auxiliary wavefunctions       219.18 Mb     (    4604, 3120)
        Each subspace H/S matrix        5.94 Mb     (     624,  624)
        Each <psi_i|beta_j> matrix     22.05 Mb     (    1853,  780)
        Arrays for rho mixing           9.38 Mb     (   76800,    8)

     Initial potential from superposition of free atoms
     Check: negative starting charge=   -0.001626

     starting charge 1274.31747, renormalised to 1300.00000

     negative rho (up, down):  1.659E-03 0.000E+00
     Starting wfc are 1296 randomized atomic wfcs

     total cpu time spent up to now is      107.0 secs

     Self-consistent Calculation

     iteration #  1     ecut=    80.00 Ry     beta=0.70
     Davidson diagonalization with overlap
     c_bands:  5 eigenvalues not converged
     c_bands:  2 eigenvalues not converged
     c_bands:  4 eigenvalues not converged
     c_bands:  4 eigenvalues not converged
     ethr =  1.00E-04,  avg # of iterations = 42.3

     negative rho (up, down):  2.614E+01 0.000E+00

     total cpu time spent up to now is     2316.2 secs

     total energy              =   -9821.66757454 Ry
     Harris-Foulkes estimate   =  -18099.24583544 Ry
     estimated scf accuracy    <  211377.50184955 Ry

     iteration #  2     ecut=    80.00 Ry     beta=0.70
     Davidson diagonalization with overlap
     ethr =  1.00E-02,  avg # of iterations = 14.7

     negative rho (up, down):  3.281E+01 0.000E+00

     total cpu time spent up to now is     3312.6 secs

     total energy              =  -12048.55624519 Ry
     Harris-Foulkes estimate   =  -13735.53409004 Ry
     estimated scf accuracy    <   27815.82233567 Ry

     iteration #  3     ecut=    80.00 Ry     beta=0.70
     Davidson diagonalization with overlap
     ethr =  1.00E-02,  avg # of iterations =  9.8

     negative rho (up, down):  3.483E+01 0.000E+00

     total cpu time spent up to now is     3855.6 secs

     total energy              =  -12350.42362897 Ry
     Harris-Foulkes estimate   =  -13491.57442635 Ry
     estimated scf accuracy    <    8436.88706490 Ry

     iteration #  4     ecut=    80.00 Ry     beta=0.70
     Davidson diagonalization with overlap
     ethr =  1.00E-02,  avg # of iterations =  4.8

     negative rho (up, down):  2.457E+01 0.000E+00

     total cpu time spent up to now is     4328.9 secs

     total energy              =  -12861.66473815 Ry
     Harris-Foulkes estimate   =  -13118.55135737 Ry
     estimated scf accuracy    <    1186.32539750 Ry

     iteration #  5     ecut=    80.00 Ry     beta=0.70
     Davidson diagonalization with overlap
     ethr =  1.00E-02,  avg # of iterations =  3.0

     negative rho (up, down):  1.615E+01 0.000E+00

     total cpu time spent up to now is     4589.6 secs

     total energy              =  -12836.30145191 Ry
     Harris-Foulkes estimate   =  -12936.70857708 Ry
     estimated scf accuracy    <     820.35378980 Ry

     iteration #  6     ecut=    80.00 Ry     beta=0.70
     Davidson diagonalization with overlap
     ethr =  1.00E-02,  avg # of iterations =  2.0

     negative rho (up, down):  1.078E+01 0.000E+00

     total cpu time spent up to now is     4788.3 secs

     total energy              =  -12820.86264311 Ry
     Harris-Foulkes estimate   =  -12867.68080216 Ry
     estimated scf accuracy    <     483.24393747 Ry

     iteration #  7     ecut=    80.00 Ry     beta=0.70
     Davidson diagonalization with overlap
     ethr =  1.00E-02,  avg # of iterations =  2.2

     negative rho (up, down):  8.384E+00 0.000E+00

     total cpu time spent up to now is     4967.3 secs

     total energy              =  -12803.89244996 Ry
     Harris-Foulkes estimate   =  -12833.42536079 Ry
     estimated scf accuracy    <     424.79428229 Ry

     iteration #  8     ecut=    80.00 Ry     beta=0.70
     Davidson diagonalization with overlap
     ethr =  1.00E-02,  avg # of iterations =  2.5

     negative rho (up, down):  6.863E+00 0.000E+00

     total cpu time spent up to now is     5151.2 secs

     total energy              =  -12796.04148181 Ry
     Harris-Foulkes estimate   =  -12815.10417173 Ry
     estimated scf accuracy    <     229.25165642 Ry

     iteration #  9     ecut=    80.00 Ry     beta=0.70
     Davidson diagonalization with overlap
     ethr =  1.00E-02,  avg # of iterations =  1.0

     negative rho (up, down):  4.163E+00 0.000E+00

     total cpu time spent up to now is     5316.1 secs

     total energy              =  -12771.50332432 Ry
     Harris-Foulkes estimate   =  -12799.69952596 Ry
     estimated scf accuracy    <     232.75754816 Ry

     iteration # 10     ecut=    80.00 Ry     beta=0.70
     Davidson diagonalization with overlap
     ethr =  1.00E-02,  avg # of iterations =  1.3

     negative rho (up, down):  1.800E+00 0.000E+00

     total cpu time spent up to now is     5485.2 secs

     total energy              =  -12730.65686152 Ry
     Harris-Foulkes estimate   =  -12777.76847758 Ry
     estimated scf accuracy    <     133.00790096 Ry

     iteration # 11     ecut=    80.00 Ry     beta=0.70
     Davidson diagonalization with overlap
     ethr =  1.00E-02,  avg # of iterations =  3.2

     negative rho (up, down):  1.669E+00 0.000E+00

     total cpu time spent up to now is     5677.4 secs

     total energy              =  -12737.12536134 Ry
     Harris-Foulkes estimate   =  -12747.14146670 Ry
     estimated scf accuracy    <     297.90876774 Ry

     iteration # 12     ecut=    80.00 Ry     beta=0.70
     Davidson diagonalization with overlap
     ethr =  1.00E-02,  avg # of iterations =  1.0

     negative rho (up, down):  1.713E+00 0.000E+00

     total cpu time spent up to now is     5842.3 secs

     total energy              =  -12728.35182775 Ry
     Harris-Foulkes estimate   =  -12740.36143632 Ry
     estimated scf accuracy    <      86.60442875 Ry

     iteration # 13     ecut=    80.00 Ry     beta=0.70
     Davidson diagonalization with overlap
     ethr =  6.66E-03,  avg # of iterations =  1.0

     negative rho (up, down):  2.805E+00 0.000E+00

     total cpu time spent up to now is     6007.4 secs

     total energy              =  -12725.48587421 Ry
     Harris-Foulkes estimate   =  -12733.61836264 Ry
     estimated scf accuracy    <      62.98793643 Ry

     iteration # 14     ecut=    80.00 Ry     beta=0.70
     Davidson diagonalization with overlap
     ethr =  4.85E-03,  avg # of iterations =  1.0

     negative rho (up, down):  7.050E+00 0.000E+00

     total cpu time spent up to now is     6173.4 secs

     total energy              =  -12721.42015254 Ry
     Harris-Foulkes estimate   =  -12727.35533984 Ry
     estimated scf accuracy    <      31.97976720 Ry

     iteration # 15     ecut=    80.00 Ry     beta=0.70
     Davidson diagonalization with overlap
     ethr =  2.46E-03,  avg # of iterations =  5.2

     negative rho (up, down):  6.529E+00 0.000E+00

     total cpu time spent up to now is     6392.1 secs

     total energy              =  -12721.22466700 Ry
     Harris-Foulkes estimate   =  -12723.32424042 Ry
     estimated scf accuracy    <      22.03425181 Ry

     iteration # 16     ecut=    80.00 Ry     beta=0.70
     Davidson diagonalization with overlap
     ethr =  1.69E-03,  avg # of iterations =  3.8

     negative rho (up, down):  2.685E+00 0.000E+00

     total cpu time spent up to now is     6592.9 secs

     total energy              =  -12719.44720586 Ry
     Harris-Foulkes estimate   =  -12722.12301404 Ry
     estimated scf accuracy    <      20.39175122 Ry

     iteration # 17     ecut=    80.00 Ry     beta=0.70
     Davidson diagonalization with overlap
     ethr =  1.57E-03,  avg # of iterations =  4.2

     negative rho (up, down):  3.684E+00 0.000E+00

     total cpu time spent up to now is     6798.6 secs

     total energy              =  -12719.70728162 Ry
     Harris-Foulkes estimate   =  -12721.72225738 Ry
     estimated scf accuracy    <      13.15250607 Ry

     iteration # 18     ecut=    80.00 Ry     beta=0.70
     Davidson diagonalization with overlap
     ethr =  1.01E-03,  avg # of iterations =  5.5

     negative rho (up, down):  1.823E+00 0.000E+00

     total cpu time spent up to now is     7018.7 secs

     total energy              =  -12718.46298035 Ry
     Harris-Foulkes estimate   =  -12720.08627094 Ry
     estimated scf accuracy    <       7.85247813 Ry

     iteration # 19     ecut=    80.00 Ry     beta=0.70
     Davidson diagonalization with overlap
     ethr =  6.04E-04,  avg # of iterations =  5.0

     negative rho (up, down):  1.196E+00 0.000E+00

     total cpu time spent up to now is     7230.4 secs

     total energy              =  -12717.16916191 Ry
     Harris-Foulkes estimate   =  -12718.67049617 Ry
     estimated scf accuracy    <       9.90113425 Ry

     iteration # 20     ecut=    80.00 Ry     beta=0.70
     Davidson diagonalization with overlap
     ethr =  6.04E-04,  avg # of iterations =  5.0

     negative rho (up, down):  2.417E+00 0.000E+00

     total cpu time spent up to now is     7445.3 secs

     total energy              =  -12718.18604874 Ry
     Harris-Foulkes estimate   =  -12717.45917480 Ry
     estimated scf accuracy    <      30.71827453 Ry

     iteration # 21     ecut=    80.00 Ry     beta=0.70
     Davidson diagonalization with overlap
     ethr =  6.04E-04,  avg # of iterations =  1.3

     negative rho (up, down):  1.298E+00 0.000E+00

     total cpu time spent up to now is     7615.1 secs

     total energy              =  -12717.68350698 Ry
     Harris-Foulkes estimate   =  -12718.88733154 Ry
     estimated scf accuracy    <       6.74170030 Ry

     iteration # 22     ecut=    80.00 Ry     beta=0.70
     Davidson diagonalization with overlap
     ethr =  5.19E-04,  avg # of iterations =  2.0

     negative rho (up, down):  1.341E+00 0.000E+00

     total cpu time spent up to now is     7793.1 secs

     total energy              =  -12717.73005320 Ry
     Harris-Foulkes estimate   =  -12717.91327754 Ry
     estimated scf accuracy    <      13.76909625 Ry

     iteration # 23     ecut=    80.00 Ry     beta=0.70
     Davidson diagonalization with overlap
     ethr =  5.19E-04,  avg # of iterations =  1.8

     negative rho (up, down):  2.808E-01 0.000E+00

     total cpu time spent up to now is     7967.5 secs

     total energy              =  -12716.40811582 Ry
     Harris-Foulkes estimate   =  -12718.02517640 Ry
     estimated scf accuracy    <       7.04408842 Ry

     iteration # 24     ecut=    80.00 Ry     beta=0.70
     Davidson diagonalization with overlap
     ethr =  5.19E-04,  avg # of iterations =  5.0

     negative rho (up, down):  8.805E-01 0.000E+00

     total cpu time spent up to now is     8178.4 secs

     total energy              =  -12716.85613738 Ry
     Harris-Foulkes estimate   =  -12717.00684798 Ry
     estimated scf accuracy    <      44.66734000 Ry

     iteration # 25     ecut=    80.00 Ry     beta=0.70
     Davidson diagonalization with overlap
     ethr =  5.19E-04,  avg # of iterations =  3.5

     negative rho (up, down):  1.582E+00 0.000E+00

     total cpu time spent up to now is     8372.8 secs

     total energy              =  -12717.06262798 Ry
     Harris-Foulkes estimate   =  -12717.09986955 Ry
     estimated scf accuracy    <      28.62353430 Ry

     iteration # 26     ecut=    80.00 Ry     beta=0.70
     Davidson diagonalization with overlap
     ethr =  5.19E-04,  avg # of iterations =  1.7

     negative rho (up, down):  1.583E+00 0.000E+00

     total cpu time spent up to now is     8546.0 secs

     total energy              =  -12717.15284953 Ry
     Harris-Foulkes estimate   =  -12717.46905010 Ry
     estimated scf accuracy    <      13.06053081 Ry

     iteration # 27     ecut=    80.00 Ry     beta=0.70
     Davidson diagonalization with overlap
     ethr =  5.19E-04,  avg # of iterations =  2.7

     negative rho (up, down):  1.649E+00 0.000E+00

     total cpu time spent up to now is     8731.5 secs

     total energy              =  -12717.47284524 Ry
     Harris-Foulkes estimate   =  -12717.34311316 Ry
     estimated scf accuracy    <      33.96887289 Ry

     iteration # 28     ecut=    80.00 Ry     beta=0.70
     Davidson diagonalization with overlap
     ethr =  5.19E-04,  avg # of iterations =  1.0

     negative rho (up, down):  1.051E+00 0.000E+00

     total cpu time spent up to now is     8897.0 secs

     total energy              =  -12717.21577858 Ry
     Harris-Foulkes estimate   =  -12717.59746498 Ry
     estimated scf accuracy    <      17.38868900 Ry

     iteration # 29     ecut=    80.00 Ry     beta=0.70
     Davidson diagonalization with overlap
     ethr =  5.19E-04,  avg # of iterations =  2.3

     negative rho (up, down):  1.674E+00 0.000E+00

     total cpu time spent up to now is     9078.2 secs

     total energy              =  -12715.99027683 Ry
     Harris-Foulkes estimate   =  -12718.79055206 Ry
     estimated scf accuracy    <     135.24380186 Ry

     iteration # 30     ecut=    80.00 Ry     beta=0.70
     Davidson diagonalization with overlap
     ethr =  5.19E-04,  avg # of iterations =  3.0

     negative rho (up, down):  1.465E+00 0.000E+00

     total cpu time spent up to now is     9270.3 secs

     total energy              =  -12717.49690452 Ry
     Harris-Foulkes estimate   =  -12717.76734966 Ry
     estimated scf accuracy    <       8.08873891 Ry

     iteration # 31     ecut=    80.00 Ry     beta=0.70
     Davidson diagonalization with overlap
     ethr =  5.19E-04,  avg # of iterations =  1.3

     negative rho (up, down):  1.037E+00 0.000E+00

     total cpu time spent up to now is     9439.7 secs

     total energy              =  -12717.43110168 Ry
     Harris-Foulkes estimate   =  -12717.59551202 Ry
     estimated scf accuracy    <       8.33542486 Ry

     iteration # 32     ecut=    80.00 Ry     beta=0.70
     Davidson diagonalization with overlap
     ethr =  5.19E-04,  avg # of iterations =  4.2

     negative rho (up, down):  8.978E-01 0.000E+00

     total cpu time spent up to now is     9643.4 secs

     total energy              =  -12717.22478509 Ry
     Harris-Foulkes estimate   =  -12717.54803215 Ry
     estimated scf accuracy    <       6.70090819 Ry

     iteration # 33     ecut=    80.00 Ry     beta=0.70
     Davidson diagonalization with overlap
     ethr =  5.15E-04,  avg # of iterations =  1.7

     negative rho (up, down):  2.735E-02 0.000E+00

     total cpu time spent up to now is     9816.8 secs

     total energy              =  -12716.75912727 Ry
     Harris-Foulkes estimate   =  -12717.29229921 Ry
     estimated scf accuracy    <       5.85706554 Ry

     iteration # 34     ecut=    80.00 Ry     beta=0.70
     Davidson diagonalization with overlap
     ethr =  4.51E-04,  avg # of iterations =  5.3

     negative rho (up, down):  2.650E-03 0.000E+00

     total cpu time spent up to now is    10032.8 secs

     total energy              =  -12716.56165610 Ry
     Harris-Foulkes estimate   =  -12716.85102577 Ry
     estimated scf accuracy    <       5.62784738 Ry

     iteration # 35     ecut=    80.00 Ry     beta=0.70
     Davidson diagonalization with overlap
     ethr =  4.33E-04,  avg # of iterations =  1.0

     negative rho (up, down):  7.246E-04 0.000E+00

     total cpu time spent up to now is    10197.9 secs

     total energy              =  -12716.29837716 Ry
     Harris-Foulkes estimate   =  -12716.60882590 Ry
     estimated scf accuracy    <       4.78007869 Ry

     iteration # 36     ecut=    80.00 Ry     beta=0.70
     Davidson diagonalization with overlap
     ethr =  3.68E-04,  avg # of iterations =  2.0

     total cpu time spent up to now is    10377.5 secs

     total energy              =  -12715.96353807 Ry
     Harris-Foulkes estimate   =  -12716.44353742 Ry
     estimated scf accuracy    <       4.76510710 Ry

     iteration # 37     ecut=    80.00 Ry     beta=0.70
     Davidson diagonalization with overlap
     ethr =  3.67E-04,  avg # of iterations =  1.0

     total cpu time spent up to now is    10544.5 secs

     total energy              =  -12715.86769784 Ry
     Harris-Foulkes estimate   =  -12716.06808269 Ry
     estimated scf accuracy    <       3.76972706 Ry

     iteration # 38     ecut=    80.00 Ry     beta=0.70
     Davidson diagonalization with overlap
     ethr =  2.90E-04,  avg # of iterations =  1.0

     negative rho (up, down):  9.265E-07 0.000E+00

     total cpu time spent up to now is    10710.4 secs

     total energy              =  -12715.32450572 Ry
     Harris-Foulkes estimate   =  -12715.97104733 Ry
     estimated scf accuracy    <       3.30439591 Ry

     iteration # 39     ecut=    80.00 Ry     beta=0.70
     Davidson diagonalization with overlap
     ethr =  2.54E-04,  avg # of iterations =  3.3

     negative rho (up, down):  2.745E-02 0.000E+00

     total cpu time spent up to now is    10903.4 secs

     total energy              =  -12714.54293128 Ry
     Harris-Foulkes estimate   =  -12715.38868039 Ry
     estimated scf accuracy    <       2.49003959 Ry

     iteration # 40     ecut=    80.00 Ry     beta=0.70
     Davidson diagonalization with overlap
     ethr =  1.92E-04,  avg # of iterations =  5.8

     negative rho (up, down):  2.431E-01 0.000E+00

     total cpu time spent up to now is    11136.9 secs

     total energy              =  -12714.32273214 Ry
     Harris-Foulkes estimate   =  -12714.63720762 Ry
     estimated scf accuracy    <       1.10562470 Ry

     iteration # 41     ecut=    80.00 Ry     beta=0.70
     Davidson diagonalization with overlap
     ethr =  8.50E-05,  avg # of iterations =  7.8

     negative rho (up, down):  1.004E-01 0.000E+00

     total cpu time spent up to now is    11425.5 secs

     total energy              =  -12714.34727310 Ry
     Harris-Foulkes estimate   =  -12714.44909403 Ry
     estimated scf accuracy    <       0.63887016 Ry

     iteration # 42     ecut=    80.00 Ry     beta=0.70
     Davidson diagonalization with overlap
     ethr =  4.91E-05,  avg # of iterations =  2.0

     negative rho (up, down):  1.035E-01 0.000E+00

     total cpu time spent up to now is    11606.1 secs

     total energy              =  -12714.38488932 Ry
     Harris-Foulkes estimate   =  -12714.39946324 Ry
     estimated scf accuracy    <       0.10885087 Ry

     iteration # 43     ecut=    80.00 Ry     beta=0.70
     Davidson diagonalization with overlap
     ethr =  8.37E-06,  avg # of iterations =  9.8

     negative rho (up, down):  4.992E-02 0.000E+00

     total cpu time spent up to now is    11903.2 secs

     total energy              =  -12714.39153089 Ry
     Harris-Foulkes estimate   =  -12714.40251065 Ry
     estimated scf accuracy    <       0.06122183 Ry

     iteration # 44     ecut=    80.00 Ry     beta=0.70
     Davidson diagonalization with overlap
     ethr =  4.71E-06,  avg # of iterations =  9.2

     negative rho (up, down):  5.291E-02 0.000E+00

     total cpu time spent up to now is    12177.3 secs

     total energy              =  -12714.39358238 Ry
     Harris-Foulkes estimate   =  -12714.39552435 Ry
     estimated scf accuracy    <       0.01122467 Ry

     iteration # 45     ecut=    80.00 Ry     beta=0.70
     Davidson diagonalization with overlap
     ethr =  8.63E-07,  avg # of iterations =  7.7

     negative rho (up, down):  2.552E-02 0.000E+00

     total cpu time spent up to now is    12438.2 secs

     total energy              =  -12714.39302832 Ry
     Harris-Foulkes estimate   =  -12714.39447241 Ry
     estimated scf accuracy    <       0.00502234 Ry

     iteration # 46     ecut=    80.00 Ry     beta=0.70
     Davidson diagonalization with overlap
     c_bands:  1 eigenvalues not converged
     ethr =  3.86E-07,  avg # of iterations = 14.0

     negative rho (up, down):  1.539E-02 0.000E+00

     total cpu time spent up to now is    12796.3 secs

     total energy              =  -12714.39329735 Ry
     Harris-Foulkes estimate   =  -12714.39350031 Ry
     estimated scf accuracy    <       0.00161749 Ry

     iteration # 47     ecut=    80.00 Ry     beta=0.70
     Davidson diagonalization with overlap
     ethr =  1.24E-07,  avg # of iterations = 10.5

     negative rho (up, down):  9.434E-03 0.000E+00

     total cpu time spent up to now is    13089.9 secs

     total energy              =  -12714.39326440 Ry
     Harris-Foulkes estimate   =  -12714.39343060 Ry
     estimated scf accuracy    <       0.00049746 Ry

     iteration # 48     ecut=    80.00 Ry     beta=0.70
     Davidson diagonalization with overlap
     ethr =  3.83E-08,  avg # of iterations =  9.2

     negative rho (up, down):  7.940E-03 0.000E+00

     total cpu time spent up to now is    13388.8 secs

     total energy              =  -12714.39328163 Ry
     Harris-Foulkes estimate   =  -12714.39333376 Ry
     estimated scf accuracy    <       0.00018314 Ry

     iteration # 49     ecut=    80.00 Ry     beta=0.70
     Davidson diagonalization with overlap
     ethr =  1.41E-08,  avg # of iterations =  2.2

     negative rho (up, down):  4.939E-03 0.000E+00

     total cpu time spent up to now is    13575.3 secs

     total energy              =  -12714.39324522 Ry
     Harris-Foulkes estimate   =  -12714.39329767 Ry
     estimated scf accuracy    <       0.00004355 Ry

     iteration # 50     ecut=    80.00 Ry     beta=0.70
     Davidson diagonalization with overlap
     c_bands:  1 eigenvalues not converged
     ethr =  3.35E-09,  avg # of iterations = 11.2

     negative rho (up, down):  3.615E-03 0.000E+00

     total cpu time spent up to now is    13886.9 secs

     total energy              =  -12714.39322654 Ry
     Harris-Foulkes estimate   =  -12714.39325126 Ry
     estimated scf accuracy    <       0.00002155 Ry

     iteration # 51     ecut=    80.00 Ry     beta=0.70
     Davidson diagonalization with overlap
     ethr =  1.66E-09,  avg # of iterations =  3.3

     negative rho (up, down):  1.977E-03 0.000E+00

     total cpu time spent up to now is    14090.9 secs

     total energy              =  -12714.39321434 Ry
     Harris-Foulkes estimate   =  -12714.39322915 Ry
     estimated scf accuracy    <       0.00000804 Ry

     iteration # 52     ecut=    80.00 Ry     beta=0.70
     Davidson diagonalization with overlap
     ethr =  6.19E-10,  avg # of iterations =  8.7

     negative rho (up, down):  1.691E-03 0.000E+00

     total cpu time spent up to now is    14359.6 secs

     total energy              =  -12714.39321613 Ry
     Harris-Foulkes estimate   =  -12714.39321521 Ry
     estimated scf accuracy    <       0.00000287 Ry

     iteration # 53     ecut=    80.00 Ry     beta=0.70
     Davidson diagonalization with overlap
     ethr =  2.21E-10,  avg # of iterations =  3.0

     negative rho (up, down):  1.648E-03 0.000E+00

     total cpu time spent up to now is    14556.4 secs

     total energy              =  -12714.39321652 Ry
     Harris-Foulkes estimate   =  -12714.39321637 Ry
     estimated scf accuracy    <       0.00000060 Ry

     iteration # 54     ecut=    80.00 Ry     beta=0.70
     Davidson diagonalization with overlap
     ethr =  4.64E-11,  avg # of iterations =  3.0

     negative rho (up, down):  1.615E-03 0.000E+00

     total cpu time spent up to now is    14774.3 secs

     total energy              =  -12714.39321667 Ry
     Harris-Foulkes estimate   =  -12714.39321661 Ry
     estimated scf accuracy    <       0.00000027 Ry

     iteration # 55     ecut=    80.00 Ry     beta=0.70
     Davidson diagonalization with overlap
     ethr =  2.04E-11,  avg # of iterations =  2.0

     negative rho (up, down):  1.639E-03 0.000E+00

     total cpu time spent up to now is    14962.4 secs

     total energy              =  -12714.39321674 Ry
     Harris-Foulkes estimate   =  -12714.39321670 Ry
     estimated scf accuracy    <       0.00000011 Ry

     iteration # 56     ecut=    80.00 Ry     beta=0.70
     Davidson diagonalization with overlap
     ethr =  8.30E-12,  avg # of iterations =  2.0

     negative rho (up, down):  1.655E-03 0.000E+00

     total cpu time spent up to now is    15145.9 secs

     total energy              =  -12714.39321678 Ry
     Harris-Foulkes estimate   =  -12714.39321676 Ry
     estimated scf accuracy    <       0.00000005 Ry

     iteration # 57     ecut=    80.00 Ry     beta=0.70
     Davidson diagonalization with overlap
     ethr =  3.98E-12,  avg # of iterations =  2.0

     negative rho (up, down):  1.676E-03 0.000E+00

     total cpu time spent up to now is    15328.2 secs

     total energy              =  -12714.39321675 Ry
     Harris-Foulkes estimate   =  -12714.39321678 Ry
     estimated scf accuracy    <       0.00000001 Ry

     iteration # 58     ecut=    80.00 Ry     beta=0.70
     Davidson diagonalization with overlap
     ethr =  9.39E-13,  avg # of iterations =  3.0

     negative rho (up, down):  1.684E-03 0.000E+00

     total cpu time spent up to now is    15547.0 secs

     total energy              =  -12714.39321674 Ry
     Harris-Foulkes estimate   =  -12714.39321676 Ry
     estimated scf accuracy    <       0.00000001 Ry

     iteration # 59     ecut=    80.00 Ry     beta=0.70
     Davidson diagonalization with overlap
     ethr =  7.71E-13,  avg # of iterations =  2.3

     negative rho (up, down):  1.703E-03 0.000E+00

     total cpu time spent up to now is    15726.9 secs

     End of self-consistent calculation

          k = 0.0000 0.0000 0.0000 (256287 PWs)   bands (ev):

   -16.7102 -15.6842 -15.4927 -14.9551 -14.4135 -14.2363 -13.9786 -13.7182
   -13.5939 -13.5445 -13.5333 -13.0339 -12.6161 -12.5596 -12.5237 -12.4963
   -12.4803 -11.7694 -10.8494 -10.8315 -10.8050 -10.7974 -10.6126  -9.6236
    -9.2488  -8.9464  -8.9343  -8.9295  -8.3255  -8.0942  -8.0333  -8.0279
    -7.4174  -7.0962  -7.0586  -7.0436  -7.0111  -6.9678  -6.9544  -6.9475
    -6.2339  -5.6731  -5.5117  -5.4366  -5.4163  -5.3429  -5.3247  -5.2728
    -5.2488  -5.1555  -5.1485  -5.0737  -4.8925  -4.6111  -4.5466  -4.1277
    -4.1088  -4.0361  -4.0296  -3.9036  -3.7695  -3.7587  -3.6431  -3.6405
    -3.5171  -3.2968  -3.0665  -3.0635  -3.0353  -3.0059  -2.9638  -2.9628
    -2.9153  -2.8229  -2.8098  -2.8049  -2.6779  -2.6734  -2.6707  -2.6696
    -2.6662  -2.6606  -2.4912  -2.4717  -2.4553  -2.4418  -2.2494  -2.1753
    -2.1675  -2.1626  -2.1594  -2.1482  -2.1353  -2.1097  -1.9619  -1.9597
    -1.9549  -1.9544  -1.8602  -1.8583  -1.8267  -1.8260  -1.8225  -1.8220
    -1.7424  -1.6954  -1.6921  -1.6879  -1.6870  -1.6569  -1.5507  -1.5209
    -1.4646  -1.4601  -1.4471  -1.4066  -1.4052  -1.4021  -1.3989  -1.3958
    -1.3912  -1.3612  -1.3422  -1.3272  -1.3247  -1.3190  -1.3094  -1.2944
    -1.2816  -1.2466  -1.2417  -1.2377  -1.2358  -1.2288  -1.2222  -1.2120
    -1.2074  -1.1842  -1.1834  -1.1393  -1.1367  -1.0848  -1.0224  -0.9920
    -0.9760  -0.9687  -0.9677  -0.9647  -0.9397  -0.9318  -0.9284  -0.9188
    -0.8843  -0.8792  -0.8624  -0.8600  -0.8374  -0.8339  -0.8198  -0.7586
    -0.7535  -0.7345  -0.7258  -0.7224  -0.7132  -0.7126  -0.7066  -0.6994
    -0.6962  -0.6912  -0.6892  -0.6869  -0.6859  -0.6843  -0.6806  -0.6800
    -0.6764  -0.6677  -0.6242  -0.6105  -0.6093  -0.6055  -0.5935  -0.5847
    -0.5821  -0.5487  -0.5383  -0.5272  -0.5266  -0.5253  -0.5241  -0.5231
    -0.5223  -0.5215  -0.5196  -0.5192  -0.5179  -0.5159  -0.5118  -0.5109
    -0.5106  -0.5073  -0.4570  -0.3712  -0.3625  -0.3562  -0.3518  -0.3435
    -0.3257  -0.3180  -0.3158  -0.3069  -0.3023  -0.2944  -0.2893  -0.2857
    -0.2838  -0.2748  -0.2720  -0.2549  -0.2372  -0.2368  -0.2357  -0.2335
    -0.2291  -0.2245  -0.2196  -0.2103  -0.2071  -0.1885  -0.1669  -0.1654
    -0.1541  -0.1492  -0.1182  -0.1149  -0.1127  -0.1077  -0.1000  -0.0945
    -0.0934  -0.0836  -0.0829  -0.0794  -0.0743  -0.0733  -0.0726  -0.0717
    -0.0706  -0.0597  -0.0557  -0.0535  -0.0516  -0.0459  -0.0403  -0.0238
    -0.0229   0.0080   0.0314   0.0353   0.0409   0.0476   0.0544   0.0575
     0.0639   0.0647   0.0658   0.0659   0.0777   0.0806   0.0876   0.0891
     0.1014   0.1016   0.1048   0.1078   0.1113   0.1165   0.1168   0.1215
     0.1289   0.1372   0.1385   0.1403   0.1458   0.1627   0.1700   0.1781
     0.2006   0.2018   0.2096   0.2143   0.2354   0.2377   0.2523   0.2595
     0.2673   0.2687   0.2692   0.2715   0.2765   0.2789   0.2807   0.2966
     0.3104   0.3149   0.3275   0.3304   0.3305   0.3395   0.3518   0.3554
     0.3564   0.3582   0.3620   0.3743   0.3750   0.3793   0.3801   0.3840
     0.3924   0.3953   0.3955   0.3967   0.4003   0.4090   0.4150   0.4173
     0.4229   0.4235   0.4541   0.4584   0.4692   0.4770   0.4940   0.5024
     0.5064   0.5095   0.5377   0.5488   0.5496   0.5553   0.5639   0.5669
     0.5742   0.5749   0.5764   0.5808   0.5874   0.5900   0.5939   0.6107
     0.6124   0.6246   0.6431   0.6447   0.6509   0.6591   0.6703   0.6726
     0.6823   0.6943   0.6954   0.7040   0.7044   0.7140   0.7183   0.7349
     0.7391   0.7485   0.7553   0.7581   0.7631   0.7692   0.7707   0.7715
     0.7850   0.7904   0.8111   0.8209   0.8249   0.8289   0.8371   0.8384
     0.8420   0.8450   0.8537   0.8559   0.8601   0.8659   0.8675   0.8725
     0.8730   0.8749   0.8761   0.8795   0.8805   0.8818   0.8828   0.8892
     0.8912   0.8947   0.9247   0.9294   0.9337   0.9395   0.9417   0.9606
     0.9633   0.9765   0.9774   0.9789   0.9836   0.9859   0.9890   0.9947
     0.9990   1.0088   1.0089   1.0115   1.0134   1.0170   1.0188   1.0250
     1.0269   1.0290   1.0340   1.0394   1.0402   1.0455   1.0509   1.0608
     1.0702   1.0740   1.0745   1.0745   1.0780   1.0858   1.0887   1.0913
     1.1030   1.1047   1.1271   1.1355   1.1368   1.1438   1.1485   1.1608
     1.1645   1.1706   1.1775   1.1864   1.1882   1.1967   1.2047   1.2073
     1.2126   1.2184   1.2223   1.2230   1.2325   1.2381   1.2424   1.2496
     1.2509   1.2542   1.2570   1.2606   1.2641   1.2663   1.2721   1.2750
     1.2806   1.2978   1.3012   1.3091   1.3109   1.3145   1.3195   1.3219
     1.3283   1.3313   1.3349   1.3413   1.3448   1.3522   1.3531   1.3545
     1.3596   1.3628   1.3647   1.3694   1.3716   1.3801   1.3814   1.3821
     1.3845   1.3936   1.4001   1.4056   1.4173   1.4198   1.4215   1.4260
     1.4296   1.4310   1.4347   1.4367   1.4406   1.4461   1.4496   1.4505
     1.4516   1.4530   1.4588   1.4629   1.4637   1.4822   1.4884   1.4943
     1.4964   1.5053   1.5081   1.5111   1.5259   1.5311   1.5385   1.5391
     1.5420   1.5434   1.5493   1.5546   1.5650   1.5683   1.5695   1.5739
     1.5813   1.5860   1.5883   1.5987   1.6001   1.6005   1.6036   1.6071
     1.6083   1.6132   1.6144   1.6205   1.6210   1.6254   1.6308   1.6349
     1.6368   1.6376   1.6415   1.6426   1.6439   1.6466   1.6487   1.6539
     1.6558   1.6594   1.6636   1.6665   1.6710   1.6744   1.6765   1.6796
     1.6857   1.6895   1.6979   1.7137   1.7170   1.7197   1.7251   1.7325
     1.7365   1.7435   1.7465   1.7476   1.7494   1.7523   1.7547   1.7556
     1.7576   1.7580   1.7586   1.7632   1.7667   1.7687   1.7753   1.7770
     1.7840   1.7862   1.7931   1.7970   1.8001   1.8025   1.8037   1.8165
     1.8173   1.8203   1.8213   1.8255   1.8481   1.8671   1.8811   1.8879
     1.8891   1.8906   1.9005   1.9018   1.9113   1.9345   1.9368   1.9497
     1.9507   1.9569   1.9618   1.9653   1.9708   1.9738   1.9755   2.2339
     2.2835   2.2892   2.3935   2.3951   2.4066   2.4793   2.5156   2.5186
     2.5314   2.5318   2.5380   2.5386   2.5435   2.5635   2.6997   2.7124
     2.7488   2.7581   2.7621   2.7703   2.7949   2.8712   3.0005   3.0140
     3.0214   3.0317   3.3205   3.5247   3.6333   3.6368   3.7596   3.7762
     3.8840   4.0760   4.0824   4.1093   4.1143   4.1322   4.1574   4.1623
     4.1937   4.2738   4.2849   4.2959   4.3123   4.3221   4.3284   4.3300
     4.3398   4.4167   4.4760   4.4965   4.5157   4.7951   5.0676   5.1635
     5.4412   5.4710   5.4940   5.5651   5.5719   5.5916   5.6224   5.6421
     5.8534   5.8914   6.0183   6.0289   6.2364   6.2399   6.4791   6.5114
     6.5306   6.6630   6.6693   6.7097   6.7174   6.7419   6.7978   6.9426
     6.9558   7.0649   7.0848   7.1460   7.1861   7.1964   7.2392   7.3100
     7.3353   7.3658   7.3864   7.4102   7.4671   7.4722   7.5338   7.6119
     7.6322   7.6719   7.7797   7.8621   7.8980   7.9492   7.9526   7.9711
     8.0143   8.0549   8.2318   8.3025   8.3520   8.4054   8.4459   8.4937
     8.5335   8.5369   8.5548   8.5824   8.6371   8.6503   8.7314   8.7785
     8.7819   8.8396   8.8688   8.9057   8.9590   8.9822   8.9936   9.0456
     9.0954   9.1085   9.1586   9.1652   9.2417   9.2730   9.2885   9.3026
     9.3292   9.3424   9.3744   9.3932   9.4248   9.4379   9.5108   9.6637
     9.7369   9.8655   9.8768   9.9306  10.0046  10.0285  10.0485  10.0867
    10.0935  10.1566  10.3030  10.3438

          k = 0.0000-0.2165 0.0000 (256176 PWs)   bands (ev):

   -16.7098 -15.7308 -15.3717 -15.0474 -14.5945 -13.9477 -13.7760 -13.7715
   -13.7050 -13.5972 -13.2999 -13.1490 -13.1135 -13.0939 -12.3451 -11.7422
   -11.7274 -11.7156 -11.5894 -11.4689 -11.3203 -10.0191  -9.8485  -9.8110
    -9.7977  -8.8566  -8.6193  -8.5415  -8.4618  -8.3948  -8.3854  -7.8118
    -7.6183  -7.5909  -7.5693  -6.9015  -6.5174  -6.4112  -6.3753  -6.3321
    -6.2990  -6.2562  -6.2421  -5.8213  -5.5434  -5.5330  -5.4570  -5.3470
    -4.9863  -4.7087  -4.6002  -4.5865  -4.5399  -4.5353  -4.4889  -4.4678
    -4.4033  -4.4025  -4.0751  -4.0618  -4.0162  -4.0118  -3.8371  -3.6158
    -3.4412  -3.4276  -2.9883  -2.9639  -2.9625  -2.9609  -2.9578  -2.8990
    -2.8123  -2.8025  -2.6982  -2.6896  -2.6867  -2.6842  -2.5847  -2.5509
    -2.4549  -2.4461  -2.2820  -2.2775  -2.2678  -2.2641  -2.2484  -2.2474
    -2.2461  -2.2447  -2.2071  -2.1666  -2.1123  -2.1083  -2.1070  -2.1052
    -2.0326  -2.0318  -1.9650  -1.9501  -1.8658  -1.8617  -1.8018  -1.7971
    -1.7951  -1.7923  -1.6946  -1.6576  -1.6574  -1.6313  -1.6309  -1.5694
    -1.5661  -1.5636  -1.5553  -1.5103  -1.4498  -1.4418  -1.4208  -1.4194
    -1.4123  -1.4117  -1.3917  -1.3901  -1.3557  -1.3354  -1.3341  -1.3314
    -1.3190  -1.3146  -1.3104  -1.1770  -1.1718  -1.1606  -1.1598  -1.0926
    -1.0438  -1.0389  -1.0203  -1.0111  -0.9913  -0.9848  -0.9733  -0.9551
    -0.9490  -0.9490  -0.9446  -0.9429  -0.9421  -0.9413  -0.9105  -0.9033
    -0.8991  -0.8981  -0.8967  -0.8954  -0.8880  -0.8710  -0.8667  -0.8585
    -0.8515  -0.8168  -0.8062  -0.8041  -0.7932  -0.7750  -0.7732  -0.7595
    -0.7574  -0.7289  -0.7224  -0.7202  -0.7170  -0.7159  -0.6599  -0.6579
    -0.6533  -0.6514  -0.6506  -0.6480  -0.6426  -0.6077  -0.5943  -0.5913
    -0.5898  -0.5849  -0.5829  -0.5790  -0.5789  -0.5758  -0.5694  -0.5250
    -0.5184  -0.5163  -0.5154  -0.5083  -0.4955  -0.4904  -0.4871  -0.4677
    -0.4613  -0.4476  -0.4417  -0.4315  -0.4274  -0.4259  -0.4211  -0.3282
    -0.3252  -0.3240  -0.3237  -0.3038  -0.3025  -0.2923  -0.2877  -0.2750
    -0.2742  -0.2714  -0.2712  -0.2685  -0.2505  -0.2357  -0.2235  -0.2147
    -0.2117  -0.2091  -0.2084  -0.2044  -0.2016  -0.1799  -0.1744  -0.1701
    -0.1557  -0.1556  -0.1435  -0.1384  -0.1218  -0.1198  -0.1155  -0.1126
    -0.1103  -0.1086  -0.1082  -0.0985  -0.0433  -0.0389  -0.0298  -0.0289
    -0.0284  -0.0256  -0.0110   0.0083   0.0249   0.0275   0.0278   0.0318
     0.0378   0.0389   0.0437   0.0486   0.0527   0.0586   0.0642   0.0763
     0.0806   0.0839   0.0861   0.0894   0.0987   0.1063   0.1095   0.1129
     0.1170   0.1190   0.1230   0.1243   0.1253   0.1398   0.1594   0.1725
     0.1794   0.1806   0.1817   0.1838   0.1893   0.1948   0.1981   0.2106
     0.2120   0.2238   0.2382   0.2433   0.2455   0.2492   0.2506   0.2561
     0.2579   0.2619   0.2624   0.2782   0.2797   0.2998   0.3007   0.3044
     0.3155   0.3254   0.3258   0.3287   0.3332   0.3363   0.3417   0.3426
     0.3439   0.3476   0.3517   0.3574   0.3580   0.3771   0.3812   0.3948
     0.4023   0.4042   0.4043   0.4160   0.4258   0.4315   0.4381   0.4395
     0.4442   0.4529   0.4556   0.4625   0.4687   0.4730   0.5016   0.5078
     0.5084   0.5144   0.5174   0.5202   0.5275   0.5288   0.5402   0.5430
     0.5546   0.5561   0.5596   0.5742   0.5861   0.5881   0.5968   0.6221
     0.6294   0.6306   0.6433   0.6574   0.6617   0.6826   0.6943   0.6986
     0.7051   0.7125   0.7287   0.7311   0.7384   0.7456   0.7481   0.7520
     0.7599   0.7622   0.7725   0.7778   0.7850   0.7875   0.7907   0.7955
     0.7993   0.8010   0.8064   0.8096   0.8144   0.8181   0.8204   0.8233
     0.8266   0.8300   0.8328   0.8410   0.8502   0.8524   0.8553   0.8578
     0.8601   0.8625   0.8626   0.8693   0.8722   0.8736   0.8834   0.8859
     0.8875   0.8902   0.8919   0.9013   0.9070   0.9108   0.9155   0.9159
     0.9171   0.9173   0.9185   0.9309   0.9346   0.9678   0.9695   0.9792
     0.9809   0.9863   0.9923   0.9953   0.9964   0.9998   1.0022   1.0063
     1.0101   1.0107   1.0134   1.0162   1.0209   1.0409   1.0488   1.0510
     1.0577   1.0584   1.0594   1.0610   1.0664   1.0702   1.0791   1.0890
     1.0943   1.0981   1.1071   1.1079   1.1127   1.1132   1.1156   1.1602
     1.1614   1.1866   1.1978   1.2003   1.2042   1.2118   1.2234   1.2276
     1.2327   1.2354   1.2362   1.2397   1.2434   1.2516   1.2521   1.2535
     1.2540   1.2559   1.2587   1.2631   1.2641   1.2677   1.2746   1.2787
     1.2856   1.2903   1.2926   1.2927   1.2932   1.3008   1.3041   1.3045
     1.3074   1.3081   1.3088   1.3109   1.3142   1.3148   1.3156   1.3157
     1.3174   1.3391   1.3410   1.3458   1.3499   1.3542   1.3593   1.3602
     1.3614   1.3653   1.3677   1.3689   1.3706   1.3711   1.3734   1.3986
     1.4051   1.4129   1.4156   1.4366   1.4387   1.4557   1.4575   1.4597
     1.4655   1.4819   1.4856   1.4975   1.5010   1.5114   1.5128   1.5156
     1.5176   1.5194   1.5204   1.5241   1.5289   1.5327   1.5353   1.5377
     1.5385   1.5391   1.5412   1.5425   1.5453   1.5471   1.5514   1.5547
     1.5579   1.5641   1.5670   1.5673   1.5702   1.5883   1.5897   1.5950
     1.5961   1.5987   1.6049   1.6095   1.6110   1.6154   1.6184   1.6207
     1.6238   1.6258   1.6364   1.6368   1.6409   1.6434   1.6527   1.6555
     1.6645   1.6692   1.6738   1.6757   1.6813   1.6926   1.6930   1.6985
     1.7034   1.7053   1.7104   1.7123   1.7146   1.7195   1.7259   1.7263
     1.7283   1.7323   1.7418   1.7450   1.7562   1.7617   1.7649   1.7682
     1.7732   1.7745   1.7794   1.7836   1.7855   1.7877   1.7878   1.7890
     1.8050   1.8099   1.8103   1.8131   1.8221   1.8231   1.8290   1.8329
     1.8400   1.8416   1.8504   1.8578   1.8616   1.8625   1.8703   1.8725
     1.9005   1.9022   1.9042   1.9082   1.9830   1.9837   1.9875   2.0548
     2.0717   2.0890   2.0918   2.0955   2.1031   2.1087   2.1218   2.1474
     2.1484   2.1551   2.1556   2.1803   2.1832   2.1935   2.5260   2.6137
     2.6199   2.7038   2.7094   2.7125   2.7359   2.8109   2.8173   2.8313
     2.8369   2.8603   2.8792   2.8924   2.8981   2.9769   3.0077   3.0264
     3.0305   3.0446   3.0830   3.2282   3.2496   3.2543   3.4401   3.4590
     3.4884   3.4885   3.4956   3.6900   3.9913   3.9970   4.2646   4.3244
     4.3304   4.3596   4.4664   4.5561   4.5631   4.5876   4.6225   4.6296
     4.6590   4.7052   4.7151   4.7479   4.7666   4.8375   4.8868   5.1739
     5.4069   5.4160   5.5688   5.5760   5.6556   5.6584   5.6715   5.7048
     5.7634   5.8987   5.9167   6.0569   6.2813   6.3793   6.4375   6.4524
     6.4722   6.4904   6.5510   6.5733   6.6108   6.6253   6.7015   6.8503
     6.9231   6.9863   6.9920   7.0259   7.0454   7.2666   7.3217   7.3405
     7.3523   7.3619   7.3710   7.3977   7.4109   7.4709   7.4981   7.5036
     7.5346   7.5482   7.5640   7.6141   7.6262   7.9341   8.0578   8.1464
     8.1483   8.2261   8.2943   8.3204   8.4126   8.4352   8.4692   8.4836
     8.4918   8.4984   8.5215   8.6300   8.6448   8.6597   8.9046   8.9265
     8.9578   8.9842   9.0162   9.0268   9.0522   9.0592   9.0690   9.0913
     9.1035   9.1539   9.1869   9.1963   9.2321   9.2669   9.2872   9.4229
     9.5072   9.5226   9.5886   9.6034   9.6247   9.6736   9.6948   9.6983
     9.7011   9.7166   9.8160   9.8486   9.8568  10.0035  10.0076  10.0312
    10.1032  10.1323  10.1453  10.1875

          k = 0.2500 0.0000 0.0000 (256240 PWs)   bands (ev):

   -16.6678 -15.5763 -15.3695 -15.0784 -14.6062 -14.3943 -14.3567 -14.2857
   -13.6532 -13.3284 -13.1365 -12.7304 -12.5134 -12.4976 -12.4666 -12.0170
   -11.5728 -11.5467 -11.4705 -11.3248 -10.5381 -10.3499 -10.1866 -10.1032
    -9.7335  -9.5177  -9.3268  -9.2209  -8.8175  -8.6567  -8.5481  -8.0951
    -7.4256  -7.0256  -7.0032  -6.9707  -6.9256  -6.8613  -6.4486  -6.3724
    -5.9967  -5.5624  -5.4972  -5.3881  -5.3602  -5.3479  -5.1970  -4.9949
    -4.9732  -4.9215  -4.7353  -4.5959  -4.5381  -4.3728  -4.1262  -4.1173
    -3.8843  -3.8780  -3.8452  -3.8313  -3.7912  -3.7667  -3.6922  -3.6569
    -3.6481  -3.4978  -3.4954  -3.4000  -3.3787  -3.2165  -3.0987  -3.0832
    -3.0499  -3.0304  -2.9921  -2.9601  -2.9515  -2.8293  -2.8277  -2.7618
    -2.7393  -2.7272  -2.6153  -2.5749  -2.5677  -2.5480  -2.4662  -2.4660
    -2.3526  -2.3387  -2.2565  -2.2118  -2.1123  -2.0650  -1.9826  -1.9785
    -1.9571  -1.9295  -1.7687  -1.7666  -1.7522  -1.7496  -1.7274  -1.6729
    -1.6141  -1.6051  -1.5753  -1.5294  -1.4766  -1.4750  -1.4668  -1.4660
    -1.4645  -1.4638  -1.4433  -1.4371  -1.4247  -1.4229  -1.4152  -1.3986
    -1.3646  -1.3117  -1.3061  -1.2745  -1.2558  -1.2540  -1.2516  -1.2502
    -1.2362  -1.2326  -1.2283  -1.2159  -1.1754  -1.1725  -1.1671  -1.1634
    -1.1429  -1.0762  -1.0531  -1.0414  -0.9953  -0.9883  -0.9828  -0.9652
    -0.9533  -0.9216  -0.9171  -0.9151  -0.9123  -0.9069  -0.8850  -0.8769
    -0.8670  -0.8654  -0.8576  -0.8540  -0.8518  -0.8433  -0.8265  -0.8173
    -0.8049  -0.8041  -0.7857  -0.7815  -0.7798  -0.7633  -0.7626  -0.7603
    -0.7135  -0.7096  -0.7070  -0.7052  -0.6946  -0.6921  -0.6916  -0.6866
    -0.6786  -0.6731  -0.6707  -0.6681  -0.6533  -0.6529  -0.6495  -0.6490
    -0.6476  -0.6461  -0.6431  -0.6399  -0.6307  -0.6171  -0.5782  -0.5729
    -0.5620  -0.5284  -0.5215  -0.4957  -0.4886  -0.4852  -0.4714  -0.4712
    -0.4630  -0.4521  -0.4465  -0.4430  -0.4319  -0.4300  -0.4262  -0.4197
    -0.4184  -0.4092  -0.4081  -0.3940  -0.2976  -0.2869  -0.2760  -0.2561
    -0.2502  -0.2466  -0.2432  -0.2312  -0.2300  -0.2242  -0.2195  -0.2190
    -0.2063  -0.2055  -0.1960  -0.1922  -0.1866  -0.1758  -0.1700  -0.1624
    -0.1570  -0.1518  -0.1494  -0.1467  -0.1357  -0.1317  -0.1309  -0.1285
    -0.1197  -0.0875  -0.0709  -0.0706  -0.0646  -0.0628  -0.0614  -0.0555
    -0.0519  -0.0477  -0.0373  -0.0303  -0.0223  -0.0039  -0.0022   0.0088
     0.0273   0.0301   0.0354   0.0364   0.0395   0.0437   0.0488   0.0555
     0.0682   0.0733   0.0759   0.0828   0.0841   0.0860   0.0895   0.1076
     0.1179   0.1285   0.1318   0.1374   0.1421   0.1429   0.1452   0.1478
     0.1735   0.1760   0.1872   0.1889   0.2034   0.2082   0.2159   0.2204
     0.2227   0.2389   0.2530   0.2596   0.2642   0.2701   0.2739   0.2816
     0.2917   0.2933   0.3077   0.3088   0.3130   0.3176   0.3190   0.3219
     0.3267   0.3289   0.3334   0.3359   0.3395   0.3407   0.3453   0.3500
     0.3529   0.3554   0.3617   0.3696   0.3728   0.3875   0.3908   0.3927
     0.3951   0.4042   0.4072   0.4087   0.4358   0.4384   0.4410   0.4493
     0.4511   0.4548   0.4571   0.4690   0.4723   0.4787   0.4846   0.4922
     0.4977   0.5285   0.5547   0.5733   0.5812   0.5837   0.5931   0.5981
     0.6008   0.6047   0.6106   0.6148   0.6150   0.6158   0.6174   0.6185
     0.6196   0.6267   0.6282   0.6312   0.6339   0.6390   0.6427   0.6563
     0.6594   0.6625   0.6638   0.6687   0.6705   0.6838   0.6887   0.6928
     0.7062   0.7212   0.7325   0.7531   0.7554   0.7594   0.7691   0.7733
     0.7773   0.7801   0.7870   0.7904   0.7984   0.8008   0.8045   0.8072
     0.8148   0.8191   0.8223   0.8254   0.8273   0.8299   0.8315   0.8422
     0.8438   0.8536   0.8597   0.8630   0.8726   0.8745   0.8783   0.8816
     0.8880   0.8916   0.8953   0.9019   0.9060   0.9123   0.9142   0.9202
     0.9246   0.9287   0.9301   0.9383   0.9428   0.9436   0.9546   0.9551
     0.9680   0.9685   0.9717   0.9776   0.9881   0.9915   0.9926   0.9945
     0.9977   1.0263   1.0326   1.0339   1.0462   1.0555   1.0637   1.0713
     1.0719   1.0788   1.0811   1.0829   1.0899   1.0922   1.0977   1.1009
     1.1040   1.1124   1.1136   1.1216   1.1435   1.1454   1.1479   1.1573
     1.1624   1.1649   1.1778   1.1795   1.1833   1.1847   1.1934   1.1980
     1.2049   1.2125   1.2146   1.2159   1.2178   1.2196   1.2215   1.2237
     1.2293   1.2331   1.2352   1.2454   1.2529   1.2606   1.2670   1.2768
     1.2813   1.2939   1.2968   1.3013   1.3086   1.3218   1.3237   1.3268
     1.3297   1.3327   1.3366   1.3419   1.3445   1.3449   1.3482   1.3489
     1.3502   1.3520   1.3590   1.3620   1.3656   1.3702   1.3756   1.3787
     1.3811   1.3938   1.3946   1.3988   1.4014   1.4039   1.4063   1.4077
     1.4151   1.4174   1.4219   1.4292   1.4306   1.4408   1.4418   1.4428
     1.4443   1.4449   1.4502   1.4508   1.4545   1.4579   1.4595   1.4698
     1.4743   1.4789   1.4840   1.4910   1.5093   1.5119   1.5141   1.5165
     1.5230   1.5281   1.5405   1.5417   1.5472   1.5516   1.5589   1.5660
     1.5704   1.5806   1.5812   1.5866   1.5878   1.5911   1.5992   1.6025
     1.6049   1.6071   1.6107   1.6160   1.6198   1.6249   1.6271   1.6304
     1.6323   1.6337   1.6356   1.6384   1.6397   1.6436   1.6443   1.6490
     1.6517   1.6533   1.6607   1.6698   1.6715   1.6750   1.6812   1.6830
     1.6963   1.6987   1.7044   1.7063   1.7131   1.7182   1.7293   1.7346
     1.7447   1.7459   1.7484   1.7495   1.7540   1.7561   1.7592   1.7600
     1.7612   1.7647   1.7656   1.7674   1.7722   1.7740   1.7762   1.7781
     1.7817   1.7870   1.7958   1.8021   1.8043   1.8080   1.8102   1.8134
     1.8155   1.8167   1.8200   1.8318   1.8323   1.8334   1.8352   1.8449
     1.8571   1.8755   1.8784   1.8827   1.8847   1.9137   1.9352   1.9492
     1.9550   1.9556   1.9616   1.9630   2.0438   2.0526   2.0828   2.0876
     2.0932   2.1197   2.1645   2.2033   2.3374   2.3540   2.3597   2.3645
     2.3779   2.3971   2.4312   2.4861   2.4922   2.5737   2.8299   2.8646
     2.8746   2.8785   3.0423   3.2816   3.3016   3.3020   3.5052   3.5142
     3.5181   3.5231   3.5439   3.5439   3.6163   3.7526   3.8152   3.8704
     3.9293   3.9421   3.9991   4.0037   4.0144   4.0297   4.0793   4.1588
     4.1613   4.2053   4.2222   4.2829   4.4765   4.5472   4.6027   4.6109
     4.8267   4.8638   5.0639   5.0996   5.1384   5.1861   5.2462   5.3140
     5.5131   5.5162   5.5363   5.6058   5.6838   5.7001   5.7185   5.7319
     5.7479   5.7720   5.8163   5.8463   5.9378   5.9540   5.9769   5.9942
     6.0349   6.1995   6.3018   6.3197   6.3310   6.3405   6.4036   6.4851
     6.7889   6.8870   7.0073   7.0513   7.0619   7.0881   7.1650   7.1892
     7.2877   7.3102   7.3246   7.3423   7.3502   7.3915   7.3977   7.4109
     7.4238   7.4394   7.5099   7.5486   7.5542   7.6637   7.7820   7.7998
     7.8432   7.8937   8.0181   8.0302   8.0546   8.1678   8.1881   8.2469
     8.2699   8.3293   8.3510   8.3669   8.4270   8.4921   8.5840   8.6062
     8.6844   8.7084   8.7120   8.7270   8.8369   8.8680   8.8880   8.9309
     8.9908   9.1060   9.2000   9.2238   9.2620   9.3124   9.3933   9.4002
     9.4154   9.4393   9.4717   9.4933   9.5051   9.5096   9.5239   9.5347
     9.5398   9.5664   9.5804   9.5979   9.7321   9.7733   9.8110   9.9814
     9.9959  10.0454  10.0961  10.1162

          k = 0.2500-0.2165 0.0000 (256316 PWs)   bands (ev):

   -16.6675 -15.6070 -15.3288 -14.9259 -14.8457 -14.6218 -14.2098 -13.9505
   -13.7075 -13.4765 -13.1479 -12.7003 -12.6884 -12.5263 -12.2509 -12.0543
   -11.8190 -11.3609 -11.3148 -10.7932 -10.7733 -10.5928 -10.4808 -10.2621
   -10.0633  -9.2555  -9.0930  -8.7590  -8.5330  -8.5095  -8.4812  -8.0509
    -7.9494  -7.8692  -7.8272  -6.8867  -6.2056  -6.0954  -6.0596  -6.0084
    -5.9092  -5.8315  -5.7670  -5.6042  -5.4164  -5.3692  -5.3645  -5.2808
    -4.9735  -4.6814  -4.5854  -4.5495  -4.3305  -4.3220  -4.2797  -4.2685
    -4.2332  -4.2259  -4.0043  -3.9952  -3.7320  -3.6938  -3.6514  -3.5877
    -3.5645  -3.5185  -3.3137  -3.2941  -3.2910  -3.1997  -3.1208  -3.1190
    -3.0736  -3.0079  -2.9899  -2.9671  -2.8464  -2.7724  -2.6659  -2.6582
    -2.6529  -2.6401  -2.5720  -2.5707  -2.5468  -2.5364  -2.5266  -2.3862
    -2.3618  -2.3586  -2.2969  -2.2096  -2.0556  -2.0273  -1.9808  -1.9803
    -1.8994  -1.8900  -1.8419  -1.8413  -1.8253  -1.8243  -1.7493  -1.6836
    -1.6824  -1.6777  -1.6768  -1.5868  -1.5285  -1.5149  -1.4855  -1.4847
    -1.4591  -1.4442  -1.4287  -1.3847  -1.3841  -1.3785  -1.3780  -1.3589
    -1.3534  -1.3515  -1.3460  -1.3412  -1.3385  -1.3356  -1.3337  -1.3334
    -1.2554  -1.2516  -1.2411  -1.2047  -1.1995  -1.1391  -1.1321  -1.0816
    -1.0676  -1.0051  -0.9978  -0.9680  -0.9654  -0.9522  -0.9498  -0.9458
    -0.9357  -0.9337  -0.9285  -0.9207  -0.9169  -0.9123  -0.9019  -0.9007
    -0.8985  -0.8864  -0.8826  -0.8818  -0.8637  -0.8571  -0.8563  -0.8525
    -0.8453  -0.8410  -0.8151  -0.8032  -0.7970  -0.7938  -0.7842  -0.7827
    -0.7691  -0.7650  -0.7125  -0.7117  -0.7087  -0.7058  -0.6922  -0.6835
    -0.6715  -0.6707  -0.6661  -0.6609  -0.6591  -0.6373  -0.6347  -0.6310
    -0.6296  -0.6276  -0.6251  -0.6161  -0.6016  -0.5893  -0.5873  -0.5865
    -0.5393  -0.5380  -0.5338  -0.5319  -0.4672  -0.4582  -0.4478  -0.4450
    -0.4366  -0.4346  -0.4268  -0.3998  -0.3868  -0.3828  -0.3793  -0.3758
    -0.3713  -0.3670  -0.3633  -0.3569  -0.3197  -0.3181  -0.2969  -0.2952
    -0.2887  -0.2734  -0.2658  -0.2620  -0.2462  -0.2367  -0.2350  -0.2345
    -0.2240  -0.2012  -0.1955  -0.1924  -0.1788  -0.1720  -0.1626  -0.1606
    -0.1552  -0.1508  -0.1407  -0.1197  -0.1182  -0.1123  -0.1022  -0.1015
    -0.0915  -0.0895  -0.0691  -0.0649  -0.0630  -0.0548  -0.0525  -0.0424
    -0.0365  -0.0354  -0.0347  -0.0289  -0.0229  -0.0222  -0.0153  -0.0119
    -0.0069  -0.0026   0.0104   0.0122   0.0365   0.0468   0.0493   0.0516
     0.0625   0.0681   0.0717   0.0876   0.0890   0.0916   0.1012   0.1123
     0.1151   0.1160   0.1246   0.1404   0.1485   0.1517   0.1734   0.1755
     0.1898   0.1972   0.2068   0.2142   0.2162   0.2205   0.2259   0.2373
     0.2408   0.2455   0.2514   0.2567   0.2603   0.2699   0.2744   0.2790
     0.2857   0.2903   0.2956   0.2962   0.2982   0.3067   0.3109   0.3170
     0.3193   0.3203   0.3231   0.3266   0.3301   0.3341   0.3361   0.3373
     0.3453   0.3506   0.3593   0.3633   0.3688   0.3832   0.3881   0.3931
     0.3974   0.4064   0.4074   0.4205   0.4219   0.4328   0.4539   0.4599
     0.4625   0.4647   0.4717   0.4739   0.4834   0.4861   0.4884   0.4965
     0.4980   0.4991   0.5004   0.5110   0.5243   0.5350   0.5661   0.5805
     0.5905   0.5967   0.6043   0.6129   0.6147   0.6170   0.6203   0.6217
     0.6238   0.6302   0.6339   0.6449   0.6459   0.6481   0.6496   0.6507
     0.6602   0.6621   0.6636   0.6678   0.6773   0.6800   0.6953   0.6999
     0.7129   0.7141   0.7209   0.7265   0.7324   0.7458   0.7482   0.7580
     0.7698   0.7755   0.7873   0.7889   0.7962   0.7969   0.7980   0.8079
     0.8100   0.8117   0.8158   0.8220   0.8334   0.8378   0.8433   0.8520
     0.8564   0.8584   0.8829   0.8884   0.8956   0.8982   0.9065   0.9103
     0.9164   0.9234   0.9255   0.9306   0.9339   0.9355   0.9427   0.9459
     0.9541   0.9558   0.9651   0.9682   0.9749   0.9769   0.9815   0.9869
     0.9910   0.9954   0.9972   0.9999   1.0014   1.0029   1.0084   1.0091
     1.0175   1.0201   1.0228   1.0254   1.0289   1.0301   1.0339   1.0406
     1.0480   1.0489   1.0516   1.0596   1.0608   1.0756   1.0837   1.0938
     1.0946   1.1018   1.1128   1.1242   1.1283   1.1375   1.1389   1.1493
     1.1521   1.1552   1.1557   1.1600   1.1699   1.1765   1.1784   1.1796
     1.1797   1.1834   1.1843   1.1854   1.1980   1.2077   1.2170   1.2199
     1.2224   1.2285   1.2345   1.2388   1.2420   1.2493   1.2532   1.2534
     1.2598   1.2636   1.2648   1.2719   1.2790   1.2839   1.2923   1.2989
     1.3018   1.3024   1.3110   1.3204   1.3279   1.3341   1.3482   1.3548
     1.3666   1.3726   1.3771   1.3861   1.3996   1.4022   1.4110   1.4129
     1.4150   1.4162   1.4178   1.4218   1.4227   1.4265   1.4292   1.4313
     1.4350   1.4366   1.4425   1.4450   1.4525   1.4603   1.4643   1.4658
     1.4689   1.4747   1.4806   1.4819   1.4883   1.4911   1.4933   1.4954
     1.4972   1.5009   1.5077   1.5086   1.5122   1.5185   1.5219   1.5225
     1.5270   1.5275   1.5300   1.5326   1.5406   1.5441   1.5470   1.5523
     1.5552   1.5575   1.5626   1.5644   1.5693   1.5778   1.5785   1.5845
     1.5933   1.5995   1.6018   1.6041   1.6059   1.6086   1.6120   1.6193
     1.6313   1.6378   1.6386   1.6420   1.6447   1.6509   1.6568   1.6611
     1.6646   1.6689   1.6728   1.6778   1.6802   1.6887   1.6902   1.6983
     1.7000   1.7009   1.7042   1.7077   1.7101   1.7120   1.7155   1.7183
     1.7219   1.7305   1.7350   1.7399   1.7427   1.7465   1.7512   1.7524
     1.7556   1.7611   1.7639   1.7670   1.7676   1.7681   1.7726   1.7783
     1.7821   1.7830   1.7895   1.7903   1.7905   1.7916   1.8087   1.8093
     1.8158   1.8174   1.8278   1.8326   1.8429   1.8481   1.8556   1.8642
     1.8759   1.8834   1.8858   1.8866   1.9052   1.9066   1.9557   1.9659
     1.9924   2.0083   2.0265   2.0416   2.0461   2.0633   2.0804   2.0808
     2.0823   2.0835   2.0913   2.0932   2.1176   2.2022   2.2681   2.4462
     2.4467   2.4746   2.4753   2.5593   2.5942   2.7807   2.9074   2.9078
     3.0579   3.0648   3.0713   3.0909   3.0993   3.1093   3.1212   3.1771
     3.2978   3.3019   3.3200   3.4041   3.7574   3.7586   3.8220   3.8332
     3.8382   4.0035   4.1439   4.1498   4.1605   4.1938   4.2839   4.3050
     4.3861   4.4051   4.4789   4.4818   4.6808   4.6876   4.7522   4.7910
     4.8457   4.9610   4.9745   5.0143   5.0324   5.0478   5.0551   5.1346
     5.1933   5.3287   5.3785   5.4048   5.4682   5.4946   5.6139   5.6402
     5.6919   5.7433   5.7588   5.7987   5.8341   6.0002   6.0514   6.0639
     6.0708   6.1734   6.2506   6.2596   6.5440   6.6327   6.6739   6.7068
     6.8341   6.8836   6.9016   6.9754   7.0195   7.0288   7.0851   7.1276
     7.1657   7.2940   7.3067   7.3907   7.4676   7.5107   7.5317   7.5597
     7.6173   7.6317   7.6457   7.6484   7.6680   7.6941   7.7120   7.7643
     7.7942   7.8751   7.9102   7.9851   8.0316   8.0412   8.0620   8.2780
     8.3221   8.3267   8.4615   8.4765   8.4932   8.5618   8.6501   8.6732
     8.7476   8.7929   8.8376   8.8766   8.9033   8.9458   8.9588   8.9768
     8.9992   9.0047   9.0240   9.0745   9.1339   9.2190   9.2265   9.2373
     9.2967   9.3450   9.3557   9.3577   9.4249   9.4520   9.4813   9.4875
     9.5213   9.5473   9.6173   9.6401   9.6787   9.6838   9.7030   9.7185
     9.8832   9.8919  10.0169  10.0537

          k =-0.5000 0.0000 0.0000 (256496 PWs)   bands (ev):

   -16.6192 -15.3954 -15.1924 -15.0221 -15.0188 -14.9797 -14.3277 -13.9564
   -13.9195 -13.8981 -12.9869 -12.1692 -12.1483 -12.1251 -11.9633 -11.6313
   -11.4461 -11.2724 -11.2226 -11.2201 -11.1789 -10.6174 -10.5978 -10.3004
   -10.1635  -9.6978  -9.6237  -9.2551  -9.1786  -8.6352  -8.4084  -8.3532
    -8.3430  -7.3263  -6.8866  -6.8526  -6.8445  -6.7823  -6.7778  -6.0867
    -5.3997  -5.3556  -5.0974  -4.9632  -4.9381  -4.6911  -4.6436  -4.5712
    -4.4612  -4.4533  -4.4496  -4.4344  -4.2373  -4.2364  -4.1768  -4.1667
    -4.1210  -4.1066  -4.0908  -4.0844  -3.8907  -3.8773  -3.8656  -3.8536
    -3.7842  -3.7812  -3.4380  -3.4327  -3.4172  -3.4163  -3.3729  -3.2636
    -3.0823  -3.0815  -3.0793  -3.0783  -2.9675  -2.9639  -2.9472  -2.9004
    -2.8581  -2.8255  -2.8095  -2.7977  -2.7903  -2.4597  -2.3376  -2.3269
    -2.3142  -2.3126  -2.3081  -2.2996  -2.2424  -2.2373  -2.2055  -2.1922
    -2.0264  -2.0247  -2.0218  -1.9888  -1.7198  -1.7168  -1.6952  -1.5533
    -1.5524  -1.5503  -1.5472  -1.5461  -1.5429  -1.4741  -1.4626  -1.4605
    -1.4574  -1.3252  -1.3229  -1.3193  -1.3157  -1.2743  -1.2721  -1.2713
    -1.2686  -1.2406  -1.2227  -1.1901  -1.1632  -1.1604  -1.0955  -1.0944
    -1.0899  -1.0878  -1.0874  -1.0802  -1.0752  -1.0662  -1.0392  -1.0365
    -1.0312  -1.0291  -1.0275  -1.0252  -1.0239  -1.0085  -1.0080  -1.0051
    -0.9707  -0.9662  -0.9648  -0.9637  -0.9431  -0.9395  -0.9345  -0.9344
    -0.9225  -0.9153  -0.8789  -0.8754  -0.8744  -0.8693  -0.8676  -0.8574
    -0.8526  -0.8512  -0.8485  -0.8474  -0.8389  -0.8113  -0.8029  -0.8008
    -0.7946  -0.7913  -0.7806  -0.7770  -0.7761  -0.7754  -0.7558  -0.7535
    -0.7277  -0.7243  -0.6899  -0.6797  -0.6579  -0.6510  -0.6501  -0.6492
    -0.6375  -0.6362  -0.6281  -0.6261  -0.6058  -0.5994  -0.5992  -0.5974
    -0.5971  -0.5915  -0.5905  -0.5835  -0.5812  -0.5645  -0.5159  -0.5143
    -0.5097  -0.5011  -0.4736  -0.4615  -0.4448  -0.4227  -0.3877  -0.3855
    -0.3835  -0.3817  -0.3541  -0.3482  -0.3469  -0.3422  -0.3378  -0.3341
    -0.3257  -0.3054  -0.2990  -0.2904  -0.2901  -0.2820  -0.2806  -0.2791
    -0.2787  -0.2551  -0.2462  -0.2451  -0.2433  -0.2385  -0.1618  -0.1519
    -0.1244  -0.1116  -0.1085  -0.1012  -0.1010  -0.0853  -0.0835  -0.0777
    -0.0759  -0.0747  -0.0729  -0.0710  -0.0476  -0.0392  -0.0370  -0.0365
    -0.0233  -0.0134  -0.0035  -0.0029  -0.0016   0.0041   0.0265   0.0275
     0.0287   0.0319   0.0333   0.0356   0.0358   0.0400   0.0439   0.0471
     0.0757   0.0775   0.0788   0.0795   0.1130   0.1214   0.1217   0.1253
     0.1539   0.1742   0.1805   0.1872   0.1951   0.1983   0.1998   0.2007
     0.2116   0.2245   0.2292   0.2342   0.2475   0.2504   0.2643   0.2657
     0.2808   0.2825   0.2925   0.2926   0.3015   0.3021   0.3029   0.3035
     0.3074   0.3104   0.3108   0.3121   0.3152   0.3256   0.3578   0.3714
     0.3816   0.3982   0.4040   0.4050   0.4078   0.4086   0.4107   0.4181
     0.4205   0.4209   0.4227   0.4247   0.4252   0.4261   0.4293   0.4329
     0.4335   0.4340   0.4355   0.4435   0.4441   0.4445   0.4453   0.4491
     0.4534   0.4571   0.4576   0.4587   0.4654   0.4711   0.4755   0.4800
     0.4848   0.4865   0.5012   0.5077   0.5150   0.5172   0.5302   0.5724
     0.5873   0.5922   0.6079   0.6132   0.6318   0.6326   0.6392   0.6473
     0.6486   0.6514   0.6545   0.6684   0.6721   0.6736   0.6757   0.6767
     0.6804   0.6822   0.6836   0.6843   0.6857   0.6872   0.6888   0.6974
     0.6988   0.7088   0.7172   0.7193   0.7208   0.7227   0.7269   0.7334
     0.7379   0.7584   0.7738   0.8150   0.8214   0.8243   0.8341   0.8360
     0.8390   0.8437   0.8482   0.8495   0.8501   0.8535   0.8562   0.8583
     0.8593   0.8612   0.8613   0.8641   0.8670   0.8679   0.8740   0.8768
     0.8775   0.8807   0.8835   0.8895   0.8958   0.9087   0.9162   0.9272
     0.9398   0.9443   0.9468   0.9550   0.9603   0.9614   0.9641   0.9652
     0.9663   0.9684   0.9695   0.9701   0.9707   0.9765   0.9799   0.9897
     0.9910   0.9949   0.9982   1.0019   1.0129   1.0213   1.0295   1.0365
     1.0374   1.0384   1.0453   1.0529   1.0545   1.0561   1.0583   1.0699
     1.0729   1.0876   1.0931   1.0957   1.1037   1.1094   1.1154   1.1322
     1.1370   1.1429   1.1544   1.1558   1.1569   1.1574   1.1654   1.1660
     1.1666   1.1668   1.1685   1.1733   1.1780   1.1824   1.1916   1.1925
     1.1980   1.2008   1.2131   1.2140   1.2168   1.2195   1.2304   1.2348
     1.2386   1.2395   1.2412   1.2516   1.2560   1.2581   1.2626   1.2705
     1.2792   1.2901   1.3193   1.3290   1.3358   1.3375   1.3404   1.3522
     1.3534   1.3539   1.3605   1.3693   1.3739   1.3804   1.3838   1.4015
     1.4020   1.4107   1.4180   1.4198   1.4224   1.4261   1.4299   1.4382
     1.4401   1.4417   1.4451   1.4515   1.4557   1.4574   1.4595   1.4610
     1.4647   1.4659   1.4676   1.4693   1.4704   1.4707   1.4746   1.4763
     1.4794   1.4807   1.4862   1.5031   1.5036   1.5063   1.5225   1.5277
     1.5315   1.5392   1.5435   1.5476   1.5506   1.5547   1.5554   1.5597
     1.5618   1.5664   1.5695   1.5699   1.5705   1.5712   1.5719   1.5721
     1.5810   1.5869   1.6118   1.6169   1.6180   1.6239   1.6264   1.6295
     1.6335   1.6353   1.6361   1.6382   1.6416   1.6430   1.6440   1.6459
     1.6483   1.6549   1.6558   1.6572   1.6588   1.6649   1.6660   1.6677
     1.6685   1.6726   1.6738   1.6794   1.6825   1.6848   1.6908   1.6920
     1.6938   1.6950   1.7011   1.7164   1.7215   1.7277   1.7333   1.7338
     1.7406   1.7433   1.7440   1.7452   1.7589   1.7601   1.7609   1.7622
     1.7667   1.7730   1.7735   1.7746   1.7819   1.7847   1.7894   1.7933
     1.7954   1.8090   1.8158   1.8162   1.8176   1.8203   1.8242   1.8268
     1.8272   1.8336   1.8402   1.8418   1.8424   1.8442   1.8551   1.8651
     1.8853   1.8982   1.8997   1.9025   1.9243   1.9340   1.9401   1.9419
     1.9450   2.2951   2.3037   2.3215   2.3312   2.4746   2.4937   2.5272
     2.5469   2.6094   2.6125   2.6137   2.6157   2.6999   2.8362   2.8476
     2.8556   3.0687   3.1422   3.1478   3.1522   3.2202   3.5066   3.5076
     3.5118   3.5132   3.7656   3.7749   3.9651   3.9922   3.9995   4.0621
     4.1921   4.2125   4.2159   4.2293   4.2780   4.3410   4.3875   4.3932
     4.3984   4.4600   4.7515   4.8380   4.8454   4.9451   5.0260   5.1026
     5.1258   5.1397   5.1488   5.1569   5.2486   5.2780   5.3271   5.3416
     5.3435   5.3452   5.3471   5.3502   5.3561   5.3823   5.4046   5.4770
     5.6579   5.6825   5.7108   5.7414   5.7693   5.7777   5.8385   5.8952
     5.9241   5.9708   6.1420   6.2048   6.2068   6.2750   6.2836   6.2915
     6.2978   6.3368   6.4186   6.4622   6.4837   6.4885   6.5116   6.6445
     6.8748   7.0407   7.1045   7.1300   7.2388   7.2920   7.3253   7.3476
     7.3936   7.4959   7.6642   7.7784   7.7926   7.8562   7.8673   7.8696
     7.8702   7.9497   8.0192   8.0514   8.0606   8.0764   8.1048   8.1207
     8.1298   8.1339   8.1614   8.1801   8.1828   8.2634   8.2948   8.3096
     8.3143   8.5220   8.5308   8.5354   8.5670   8.6965   8.7082   8.8094
     9.0686   9.0847   9.1002   9.1147   9.1962   9.2082   9.2240   9.2271
[...]
     atom   64 type  1   force =     0.00010834   -0.00000329   -0.00101275
     atom   65 type  1   force =     0.00071404    0.00077424   -0.00145329
     atom   66 type  1   force =     0.00057422   -0.00051095   -0.00145999
     atom   67 type  1   force =     0.00076420   -0.00320981   -0.00598812
     atom   68 type  1   force =     0.00007429   -0.00040256   -0.00112384
     atom   69 type  1   force =     0.00056823   -0.00067832   -0.00154162
     atom   70 type  1   force =    -0.00223732    0.00038525   -0.00644666
     atom   71 type  1   force =     0.00057914    0.00345041   -0.00628062
     atom   72 type  1   force =    -0.00025407    0.00017046   -0.00391947
     atom   73 type  1   force =     0.00002827   -0.00016670   -0.00064705
     atom   74 type  1   force =     0.00091095    0.00061115   -0.00164605
     atom   75 type  1   force =     0.00015134    0.00034388   -0.00113970
     atom   76 type  1   force =    -0.00013967    0.00017169   -0.00099457
     atom   77 type  1   force =     0.00000596    0.00007118   -0.00104747
     atom   78 type  1   force =     0.00015170   -0.00009991   -0.00084189
     atom   79 type  1   force =     0.00002125   -0.00007863   -0.00103952
     atom   80 type  1   force =    -0.00009677   -0.00001025   -0.00092026
     atom   81 type  1   force =     0.00014903   -0.00056989    0.00505116
     atom   82 type  1   force =    -0.00009117   -0.00003175    0.00585028
     atom   83 type  1   force =     0.00004572    0.00014804    0.00393446
     atom   84 type  1   force =     0.00065540    0.00009590    0.00531307
     atom   85 type  1   force =     0.00065700    0.00076483    0.00766282
     atom   86 type  1   force =    -0.01616285   -0.01677285   -0.02475864
     atom   87 type  1   force =     0.00073828   -0.00253366    0.00302634
     atom   88 type  1   force =     0.00885751   -0.00688074   -0.00049935
     atom   89 type  1   force =    -0.00783600    0.00133447    0.00081735
     atom   90 type  1   force =    -0.01328607    0.01729348   -0.01796865
     atom   91 type  1   force =     0.04140695    0.00885964   -0.11707000
     atom   92 type  1   force =     0.00697410    0.00599133    0.00056996
     atom   93 type  1   force =     0.00017457   -0.00066648    0.00597362
     atom   94 type  1   force =     0.00053598   -0.00003266    0.00562237
     atom   95 type  1   force =     0.00075078    0.00157353    0.00450271
     atom   96 type  1   force =    -0.00005779   -0.00022319    0.00549738
     atom   97 type  1   force =     0.00005668    0.00023899    0.00394901
     atom   98 type  1   force =     0.00022375    0.00003249    0.00469434
     atom   99 type  1   force =     0.00010777    0.00034193    0.00517753
     atom  100 type  1   force =    -0.00012967    0.00007705    0.00461311
     atom  101 type  2   force =    -0.00071591    0.00027455   -0.00320906
     atom  102 type  2   force =     0.00178221    0.00079810   -0.00546002
     atom  103 type  2   force =     0.00292107    0.00097816   -0.00262485
     atom  104 type  2   force =    -0.00297452   -0.00224992   -0.00196813
     atom  105 type  2   force =    -0.00242903   -0.00001375   -0.00137063
     atom  106 type  2   force =     0.00004092    0.00115735    0.00009873
     atom  107 type  2   force =     0.00004419   -0.00046491    0.00078066
     atom  108 type  2   force =    -0.00072436   -0.00085666   -0.00057582
     atom  109 type  2   force =     0.00180846    0.00066549   -0.00275750
     atom  110 type  2   force =    -0.00144178   -0.00153863   -0.00063087
     atom  111 type  2   force =    -0.00193740    0.00031362   -0.00286898
     atom  112 type  2   force =    -0.00152068   -0.00025574   -0.00228324
     atom  113 type  2   force =    -0.01743620   -0.00790865   -0.00437235
     atom  114 type  2   force =     0.01985139    0.00852726    0.00292548
     atom  115 type  2   force =     0.01132652    0.00419446   -0.00155183
     atom  116 type  2   force =    -0.05462745    0.01758442    0.01938604
     atom  117 type  2   force =    -0.01197995   -0.03929195    0.03053369
     atom  118 type  2   force =     0.10810760    0.05128302    0.08806938
     atom  119 type  2   force =    -0.01173916    0.00929293   -0.00290691
     atom  120 type  2   force =    -0.09724840   -0.07795402    0.08646956
     atom  121 type  2   force =    -0.01001546    0.01803786   -0.00099360
     atom  122 type  2   force =     0.04960214   -0.00680898    0.02045584
     atom  123 type  2   force =     0.00969588    0.00050908   -0.00337883
     atom  124 type  2   force =    -0.02256544   -0.00977867    0.00134352
     atom  125 type  2   force =    -0.00770353    0.00130845   -0.00234289
     atom  126 type  2   force =     0.00079110   -0.00237168    0.00162973
     atom  127 type  2   force =     0.00222880   -0.02086917   -0.00185114
     atom  128 type  2   force =     0.00114053    0.00172056   -0.00059223
     atom  129 type  2   force =     0.01812335   -0.01749793   -0.00412871
     atom  130 type  2   force =     0.00023128    0.00594733   -0.00235546
     atom  131 type  2   force =     0.01306888    0.06967510    0.01204032
     atom  132 type  2   force =    -0.00038213   -0.00463206   -0.00230003
     atom  133 type  2   force =    -0.02135812   -0.01287827   -0.00111138
     atom  134 type  2   force =     0.00359848    0.00359304   -0.00088466
     atom  135 type  2   force =     0.02129338    0.00685519   -0.00056079
     atom  136 type  2   force =    -0.00155691    0.00158150   -0.00237818
     atom  137 type  2   force =    -0.00037947    0.00130228    0.00051322
     atom  138 type  2   force =     0.00052105    0.00022279   -0.00183677
     atom  139 type  2   force =     0.00130542   -0.00063421   -0.00262559
     atom  140 type  2   force =    -0.00332519   -0.00070458   -0.00071917
     atom  141 type  2   force =    -0.00231499   -0.00109381   -0.00282227
     atom  142 type  2   force =     0.00311299    0.00103711   -0.00084931
     atom  143 type  2   force =     0.00055848    0.00158510   -0.00177561
     atom  144 type  2   force =    -0.00068794   -0.00098962   -0.00248131
     atom  145 type  2   force =     0.00123888   -0.00113171   -0.00274505
     atom  146 type  2   force =    -0.00205691    0.00083198   -0.00103568
     atom  147 type  2   force =    -0.00081085   -0.00135171   -0.00313087
     atom  148 type  2   force =     0.00202126   -0.00027155   -0.00020972
     atom  149 type  3   force =     0.00470686    0.00163181   -0.11757938
     atom  150 type  2   force =     0.01310237   -0.01115362    0.01325081
     atom  151 type  3   force =     0.04782314   -0.00355418    0.02178304
     atom  152 type  3   force =    -0.04048982   -0.06204861    0.01129083
     atom  153 type  3   force =    -0.04829801    0.06871456    0.01144346

     Total force =     0.335686     Total SCF correction =     0.000248

     number of scf cycles    =   2
     number of bfgs steps    =   1

     energy   old            =  -12714.3932166811 Ry
     energy   new            =  -12714.5592269475 Ry

     CASE: energy  _new < energy  _old

     new trust radius        =       0.2191684626 bohr
     new conv_thr            =       0.0000000100 Ry


ATOMIC_POSITIONS (angstrom)
Cu      -0.000043684   0.000748272   7.359459793
Cu       1.844387381   1.703955233   7.359640586
Cu       3.688895779   0.000315330   7.359060194
Cu       5.533516522   1.704098851   7.359939243
Cu      -0.000103572   3.407302202   7.359859414
Cu       1.844432520   5.111342976   7.358816296
Cu       3.689025069   3.407678930   7.359776722
Cu       5.533548737   5.111312530   7.358863130
Cu      -0.000065966   6.815693702   7.357866250
Cu       1.844659349   8.519785854   7.358561620
Cu       3.688995134   6.815391719   7.358221067
Cu       5.533281624   8.519739126   7.358733552
Cu      -0.000066883  10.223517984   7.359545855
Cu       1.844405232  11.926964636   7.360158386
Cu       3.688962199  10.223563995   7.360240549
Cu       5.533490708  11.927044263   7.360189729
Cu      -0.000043554  13.630505006   7.359756906
Cu       1.844324921  15.335177962   7.359181431
Cu       3.688897299  13.630776742   7.359288691
Cu       5.533561225  15.335043301   7.358658499
Cu       0.000089148   1.704769654   9.194723351
Cu       1.844233999   0.001205588   9.193393784
Cu       3.688777170   1.704496965   9.193239253
Cu       5.533618034   0.000190011   9.192227278
Cu       0.000075434   5.112688986   9.191615914
Cu       1.844348690   3.408313188   9.192615705
Cu       3.689194823   5.112285431   9.192167057
Cu       5.533797073   3.408581987   9.193245183
Cu       0.000171890   8.518251960   9.191860599
Cu       1.844398451   6.815588608   9.191625613
Cu       3.688964334   8.517951237   9.192656732
Cu       5.533796440   6.815444724   9.191628884
Cu       0.000041116  11.925829096   9.194031998
Cu       1.844382261  10.221620089   9.193504944
Cu       3.688804245  11.926886589   9.193643842
Cu       5.533674344  10.222020371   9.193160798
Cu       0.000059496  15.335391229   9.191603011
Cu       1.844239390  13.630761010   9.192843871
Cu       3.688747124  15.335233631   9.191201439
Cu       5.533610072  13.631264326   9.192346055
Cu       0.000326346  -0.000641987  11.034807269
Cu       1.844322647   1.708468606  11.038368730
Cu       3.688458792  -0.000242436  11.032933595
Cu       5.533677709   1.704951298  11.034315211
Cu       0.001108498   3.412891975  11.036757425
Cu       1.845150099   5.113949579  11.034428618
Cu       3.688778501   3.411038677  11.035281864
Cu       5.535027978   5.114122552  11.035293065
Cu       0.000900462   6.814970796  11.037710687
Cu       1.844390055   8.513986037  11.037291747
Cu       3.689151449   6.813821470  11.035177868
Cu       5.535296240   8.515699027  11.035359074
Cu       0.000825262  10.217619995  11.037181010
Cu       1.843817959  11.924463457  11.035458768
Cu       3.688782580  10.218993357  11.034220261
Cu       5.534069445  11.925770134  11.033727907
Cu       0.000010754  13.631576617  11.033477297
Cu       1.844286170  15.335411123  11.033831105
Cu       3.688738988  13.632671738  11.033314297
Cu       5.533502738  15.335549590  11.033798507
Cu       0.001912223   1.707127658  12.868249565
Cu       1.845028801  -0.001011948  12.873526659
Cu       3.688071086   1.702627669  12.869457605
Cu       5.533005904  -0.000383131  12.872886373
Cu       0.006813602   5.116697447  12.882163752
Cu       1.848924878   3.421429274  12.883919818
Cu       3.690530513   5.113250118  12.876787029
Cu       5.533032327   3.411476010  12.871290138
Cu       0.005239027   8.510116049  12.885795153
Cu       1.846732438   6.808572769  12.884775880
Cu       3.690566257   8.514848718  12.871114517
Cu       5.535994953   6.814380846  12.878845051
Cu       0.000756804  11.925759472  12.871120391
Cu       1.843863904  10.214752217  12.876280783
Cu       3.688661243  11.926108880  12.864722949
Cu       5.537014563  10.217437592  12.871621679
Cu      -0.000345705  15.333637317  12.875937806
Cu       1.843329698  13.632041961  12.871788303
Cu       3.689106757  15.336556777  12.875198401
Cu       5.534503053  13.631732452  12.871524742
Cu       0.000918657   0.004887176  14.694166932
Cu       1.845871244   1.706738397  14.693288786
Cu       3.689039355   0.000717902  14.704534987
Cu       5.536112878   1.703749778  14.693084621
Cu       0.002202721   3.412190338  14.692020328
Cu       1.848265154   5.086133380  14.709575839
Cu       3.697317115   3.393154218  14.698662395
Cu       5.536556224   5.102052355  14.695922269
Cu       0.003932382   6.803068625  14.711895849
Cu       1.833540883   8.539320609  14.688465890
Cu       3.741496412   6.835263336  14.550408026
Cu       5.547126880   8.525370279  14.701523905
Cu       0.004353996  10.222570317  14.704135132
Cu       1.843772586  11.925845903  14.691899562
Cu       3.691273077  10.227198828  14.685803013
Cu       5.536280689  11.924420667  14.690192791
Cu      -0.000306831  13.627526606  14.704312647
Cu       1.843129030  15.333636213  14.700148576
Cu       3.689536818  13.626265246  14.691786624
Cu       5.534982633  15.334342259  14.700041381
C       -0.002459301   0.707238474  18.623742371
C       -0.002871274   2.125673187  18.605590256
C        1.228955481  -0.000360977  18.615646111
C        1.224539936   2.831619667  18.578855003
C        2.457600160   0.708637011  18.592891882
C        2.457324617   2.126728072  18.571973315
C        3.688051131  -0.000349802  18.598179880
C        3.686796899   2.836277178  18.559564553
C        4.917621582   0.709197253  18.600547200
C        4.917133064   2.127584995  18.580013895
C        6.145843446  -0.000942626  18.621795791
C        6.145438310   2.837269759  18.587565756
C       -0.008443710   4.965954509  18.555034757
C       -0.004852748   6.389610984  18.533746479
C        1.222423149   4.250024170  18.562882823
C        1.199122597   7.100352884  18.594588907
C        2.440530186   4.945280622  18.602502222
C        2.421574360   6.368274835  18.788064689
C        3.687358102   4.257939460  18.564324305
C        3.716072313   7.115671760  18.791680450
C        4.913221239   4.968290807  18.568546094
C        4.941127359   6.393995959  18.604067582
C        6.147894707   4.257259996  18.566513267
C        6.145059341   7.102364707  18.536523956
C       -0.003458744   9.236004983  18.546048805
C       -0.000876714  10.655051821  18.557267355
C        1.228638457   8.525383432  18.578601192
C        1.227772637  11.364645980  18.580855398
C        2.455032874   9.232501790  18.612408844
C        2.457570516  10.656757105  18.601704724
C        3.700580621   8.548072710  18.639224456
C        3.687858492  11.364913174  18.609013048
C        4.920426056   9.239542711  18.581752592
C        4.920861138  10.660531143  18.586675602
C        6.151827494   8.528333142  18.544076358
C        6.148404374  11.367248194  18.574250545
C       -0.000325883  13.493127270  18.599486448
C       -0.000645466  14.911281389  18.612592731
C        1.228923211  12.783040191  18.598046682
C        1.228248965  15.620002441  18.615706530
C        2.457357550  13.492457771  18.616783316
C        2.458756994  14.911217042  18.616422816
C        3.688135140  12.783880170  18.618209896
C        3.688029527  15.620146754  18.613635461
C        4.918663229  13.492638632  18.616613173
C        4.917484923  14.911096848  18.617799493
C        6.148244167  12.784430889  18.598216889
C        6.147548175  15.619503456  18.618161290
H        3.076447661   6.721794592  17.475825272
C        3.044935180   6.715551967  16.308740871
H        4.170298831   6.710844334  16.262110301
H        2.507622422   5.767599075  16.234839438
H        2.501041016   7.668319714  16.241918164



     Writing output data file gc.save
     Check: negative starting charge=   -0.001620
     NEW-OLD atomic charge density approx. for the potential
     Check: negative starting charge=   -0.001624

     negative rho (up, down):  1.721E-03 0.000E+00

     total cpu time spent up to now is    19172.2 secs

     Self-consistent Calculation

     iteration #  1     ecut=    80.00 Ry     beta=0.70
     Davidson diagonalization with overlap
     c_bands:  1 eigenvalues not converged
     c_bands:  1 eigenvalues not converged
     c_bands:  3 eigenvalues not converged
     ethr =  1.00E-06,  avg # of iterations = 17.0

     negative rho (up, down):  2.604E-03 0.000E+00

     total cpu time spent up to now is    19864.5 secs

     total energy              =  -12714.64514253 Ry
     Harris-Foulkes estimate   =  -12714.66465550 Ry
     estimated scf accuracy    <       0.09352766 Ry

     iteration #  2     ecut=    80.00 Ry     beta=0.70
     Davidson diagonalization with overlap
     ethr =  7.19E-06,  avg # of iterations =  3.0

     negative rho (up, down):  3.675E-03 0.000E+00

     total cpu time spent up to now is    20073.6 secs

     total energy              =  -12714.64453329 Ry
     Harris-Foulkes estimate   =  -12714.64988037 Ry
     estimated scf accuracy    <       0.01521118 Ry

     iteration #  3     ecut=    80.00 Ry     beta=0.70
     Davidson diagonalization with overlap
     ethr =  1.17E-06,  avg # of iterations =  8.0

     negative rho (up, down):  4.212E-03 0.000E+00

     total cpu time spent up to now is    20369.1 secs

     total energy              =  -12714.64512080 Ry
     Harris-Foulkes estimate   =  -12714.64720600 Ry
     estimated scf accuracy    <       0.02050694 Ry

     iteration #  4     ecut=    80.00 Ry     beta=0.70
     Davidson diagonalization with overlap
     ethr =  1.17E-06,  avg # of iterations =  2.2

     negative rho (up, down):  4.175E-03 0.000E+00

     total cpu time spent up to now is    20558.1 secs

     total energy              =  -12714.64579183 Ry
     Harris-Foulkes estimate   =  -12714.64592814 Ry
     estimated scf accuracy    <       0.00063423 Ry

     iteration #  5     ecut=    80.00 Ry     beta=0.70
     Davidson diagonalization with overlap
     ethr =  4.88E-08,  avg # of iterations =  3.0

     negative rho (up, down):  3.909E-03 0.000E+00

     total cpu time spent up to now is    20781.6 secs

     total energy              =  -12714.64582639 Ry
     Harris-Foulkes estimate   =  -12714.64587597 Ry
     estimated scf accuracy    <       0.00024411 Ry

     iteration #  6     ecut=    80.00 Ry     beta=0.70
     Davidson diagonalization with overlap
     ethr =  1.88E-08,  avg # of iterations =  2.0

     negative rho (up, down):  3.259E-03 0.000E+00

     total cpu time spent up to now is    20970.3 secs

     total energy              =  -12714.64582584 Ry
     Harris-Foulkes estimate   =  -12714.64584540 Ry
     estimated scf accuracy    <       0.00005834 Ry

     iteration #  7     ecut=    80.00 Ry     beta=0.70
     Davidson diagonalization with overlap
     c_bands:  1 eigenvalues not converged
     ethr =  4.49E-09,  avg # of iterations =  6.0

     negative rho (up, down):  2.766E-03 0.000E+00

     total cpu time spent up to now is    21213.9 secs

     total energy              =  -12714.64582618 Ry
     Harris-Foulkes estimate   =  -12714.64583142 Ry
     estimated scf accuracy    <       0.00002488 Ry

     iteration #  8     ecut=    80.00 Ry     beta=0.70
     Davidson diagonalization with overlap
     ethr =  1.91E-09,  avg # of iterations =  1.8

     negative rho (up, down):  2.387E-03 0.000E+00

     total cpu time spent up to now is    21401.2 secs

     total energy              =  -12714.64582594 Ry
     Harris-Foulkes estimate   =  -12714.64582767 Ry
     estimated scf accuracy    <       0.00001214 Ry

     iteration #  9     ecut=    80.00 Ry     beta=0.70
     Davidson diagonalization with overlap
     ethr =  9.34E-10,  avg # of iterations =  2.0

     negative rho (up, down):  1.892E-03 0.000E+00

     total cpu time spent up to now is    21588.2 secs

     total energy              =  -12714.64582599 Ry
     Harris-Foulkes estimate   =  -12714.64582644 Ry
     estimated scf accuracy    <       0.00000740 Ry

     iteration # 10     ecut=    80.00 Ry     beta=0.70
     Davidson diagonalization with overlap
     ethr =  5.69E-10,  avg # of iterations =  2.0

     negative rho (up, down):  1.677E-03 0.000E+00

     total cpu time spent up to now is    21772.9 secs

     total energy              =  -12714.64582658 Ry
     Harris-Foulkes estimate   =  -12714.64582636 Ry
     estimated scf accuracy    <       0.00000342 Ry

     iteration # 11     ecut=    80.00 Ry     beta=0.70
     Davidson diagonalization with overlap
     ethr =  2.63E-10,  avg # of iterations =  2.0

     negative rho (up, down):  1.672E-03 0.000E+00

     total cpu time spent up to now is    21960.2 secs

     total energy              =  -12714.64582684 Ry
     Harris-Foulkes estimate   =  -12714.64582675 Ry
     estimated scf accuracy    <       0.00000024 Ry

     iteration # 12     ecut=    80.00 Ry     beta=0.70
     Davidson diagonalization with overlap
