
     Program PWSCF v.5.4.0 starts on 23Mar2017 at  4:38:21 

     This program is part of the open-source Quantum ESPRESSO suite
     for quantum simulation of materials; please cite
         "P. Giannozzi et al., J. Phys.:Condens. Matter 21 395502 (2009);
          URL http://www.quantum-espresso.org", 
     in publications or presentations arising from this work. More details at
     http://www.quantum-espresso.org/quote

     Parallel version (MPI & OpenMP), running on      56 processor cores
     Number of MPI processes:                56
     Threads/MPI process:                     1
     R & G space division:  proc/nbgrp/npool/nimage =      56
     Waiting for input...
     Reading input from standard input

     Current dimensions of program PWSCF are:
     Max number of different atomic species (ntypx) = 10
     Max number of k-points (npk) =  40000
     Max angular momentum in pseudopotentials (lmaxx) =  3

     -------------------------------------
     Parameters for Dispersion Correction:
     -------------------------------------
       atom      VdW radius       C_6     

        Cu         2.952        374.666
        C          2.744         60.710
        H          1.892          4.857

     Subspace diagonalization in iterative solution of the eigenvalue problem:
     one sub-group per band group will be used
     scalapack distributed-memory algorithm (size of sub-group:  5*  5 procs)

 
     Parallelization info
     --------------------
     sticks:   dense  smooth     PW     G-vecs:    dense   smooth      PW
     Min         204     204     54                36612    36612    4962
     Max         205     205     55                36617    36617    4968
     Sum       11433   11433   3039              2050409  2050409  278033
 


     bravais-lattice index     =            0
     lattice parameter (alat)  =      13.9425  a.u.
     unit-cell volume          =   21209.0878 (a.u.)^3
     number of atoms/cell      =          153
     number of atomic types    =            3
     number of electrons       =      1300.00
     number of Kohn-Sham states=          780
     kinetic-energy cutoff     =      80.0000  Ry
     charge density cutoff     =     320.0000  Ry
     convergence threshold     =      1.0E-08
     mixing beta               =       0.7000
     number of iterations used =            8  local-TF  mixing
     Exchange-correlation      =  SLA  PW   PBE  PBE ( 1  4  3  4 0 0)
     nstep                     =           50


     celldm(1)=  13.942539  celldm(2)=   0.000000  celldm(3)=   0.000000
     celldm(4)=   0.000000  celldm(5)=   0.000000  celldm(6)=   0.000000

     crystal axes: (cart. coord. in units of alat)
               a(1) = (   1.000000   0.000000   0.000000 )  
               a(2) = (   0.000000   2.309401   0.000000 )  
               a(3) = (   0.000000   0.000000   3.388418 )  

     reciprocal axes: (cart. coord. in units 2 pi/alat)
               b(1) = (  1.000000  0.000000  0.000000 )  
               b(2) = (  0.000000  0.433013  0.000000 )  
               b(3) = (  0.000000  0.000000  0.295123 )  


     PseudoPot. # 1 for Cu read from file:
     /home/549/hxw549/Short/pseudopotentials/Cu.pbe-n-van_ak.UPF
     MD5 check sum: 601f7c30f7467666bec936e0661ce3e1
     Pseudo is Ultrasoft + core correction, Zval = 11.0
     Generated by new atomic code, or converted to UPF format
     Using radial grid of  867 points,  6 beta functions with: 
                l(1) =   0
                l(2) =   0
                l(3) =   1
                l(4) =   1
                l(5) =   2
                l(6) =   2
     Q(r) pseudized with  8 coefficients,  rinner =    1.400   1.400   1.400
                                                       1.400   1.400

     PseudoPot. # 2 for C  read from file:
     /home/549/hxw549/Short/pseudopotentials/C.pbe-mt_gipaw.UPF
     MD5 check sum: 5ac2f21f2c440b14befe521540822c15
     Pseudo is Norm-conserving, Zval =  4.0
     Generated by new atomic code, or converted to UPF format
     Using radial grid of 1073 points,  1 beta functions with: 
                l(1) =   0

     PseudoPot. # 3 for H  read from file:
     /home/549/hxw549/Short/pseudopotentials/H.pbe-van_ak.UPF
     MD5 check sum: 077eb6d537518a38cb46c6de387227b7
     Pseudo is Ultrasoft, Zval =  1.0
     Generated by new atomic code, or converted to UPF format
     Using radial grid of  615 points,  1 beta functions with: 
                l(1) =   0
     Q(r) pseudized with  8 coefficients,  rinner =    0.800

     atomic species   valence    mass     pseudopotential
        Cu            11.00    63.54600     Cu( 1.00)
        C              4.00    12.01070     C ( 1.00)
        H              1.00     1.00783     H ( 1.00)

     No symmetry found



   Cartesian axes

     site n.     atom                  positions (alat units)
         1           Cu  tau(   1) = (  -0.0000085   0.0002102   0.9978392  )
         2           Cu  tau(   2) = (   0.2499818   0.2308789   0.9975128  )
         3           Cu  tau(   3) = (   0.4999702   0.0000535   0.9976485  )
         4           Cu  tau(   4) = (   0.7499934   0.2309308   0.9975922  )
         5           Cu  tau(   5) = (   0.0000167   0.4617505   0.9973705  )
         6           Cu  tau(   6) = (   0.2501024   0.6928610   0.9975849  )
         7           Cu  tau(   7) = (   0.4999947   0.4618760   0.9976070  )
         8           Cu  tau(   8) = (   0.7499352   0.6928175   0.9974825  )
         9           Cu  tau(   9) = (   0.0000325   0.9237422   0.9973485  )
        10           Cu  tau(  10) = (   0.2501299   1.1545801   0.9976294  )
        11           Cu  tau(  11) = (   0.4999260   0.9237087   0.9977632  )
        12           Cu  tau(  12) = (   0.7498964   1.1546034   0.9975470  )
        13           Cu  tau(  13) = (   0.0000120   1.3856417   0.9973994  )
        14           Cu  tau(  14) = (   0.2499751   1.6165238   0.9976548  )
        15           Cu  tau(  15) = (   0.4999880   1.3855513   0.9977592  )
        16           Cu  tau(  16) = (   0.7499952   1.6165541   0.9976364  )
        17           Cu  tau(  17) = (   0.0000112   1.8473204   0.9978635  )
        18           Cu  tau(  18) = (   0.2499271   2.0785514   0.9978002  )
        19           Cu  tau(  19) = (   0.4999484   1.8474774   0.9976668  )
        20           Cu  tau(  20) = (   0.7500286   2.0784665   0.9976125  )
        21           Cu  tau(  21) = (   0.0000036   0.2310191   1.2460904  )
        22           Cu  tau(  22) = (   0.2498932   0.0001193   1.2460144  )
        23           Cu  tau(  23) = (   0.5000080   0.2302168   1.2450336  )
        24           Cu  tau(  24) = (   0.7500749  -0.0000485   1.2457806  )
        25           Cu  tau(  25) = (   0.0000791   0.6923256   1.2446243  )
        26           Cu  tau(  26) = (   0.2497740   0.4612614   1.2449334  )
        27           Cu  tau(  27) = (   0.5002232   0.6924922   1.2454565  )
        28           Cu  tau(  28) = (   0.7504004   0.4612774   1.2448913  )
        29           Cu  tau(  29) = (   0.0000617   1.1550474   1.2446220  )
        30           Cu  tau(  30) = (   0.2498308   0.9236474   1.2454829  )
        31           Cu  tau(  31) = (   0.5001870   1.1547476   1.2455440  )
        32           Cu  tau(  32) = (   0.7500899   0.9236205   1.2453070  )
        33           Cu  tau(  33) = (  -0.0000108   1.6164038   1.2460888  )
        34           Cu  tau(  34) = (   0.2497025   1.3860940   1.2449624  )
        35           Cu  tau(  35) = (   0.5000112   1.6174676   1.2448770  )
        36           Cu  tau(  36) = (   0.7504442   1.3861737   1.2448069  )
        37           Cu  tau(  37) = (   0.0000273   2.0784952   1.2459498  )
        38           Cu  tau(  38) = (   0.2498676   1.8475702   1.2458493  )
        39           Cu  tau(  39) = (   0.4999286   2.0784642   1.2456279  )
        40           Cu  tau(  40) = (   0.7500956   1.8475757   1.2458031  )
        41           Cu  tau(  41) = (   0.0000666  -0.0001272   1.4959009  )
        42           Cu  tau(  42) = (   0.2496562   0.2295941   1.4946150  )
        43           Cu  tau(  43) = (   0.4999447  -0.0005909   1.4951782  )
        44           Cu  tau(  44) = (   0.7505084   0.2298628   1.4949128  )
        45           Cu  tau(  45) = (   0.0000922   0.4609987   1.4949225  )
        46           Cu  tau(  46) = (   0.2494467   0.6908056   1.4915670  )
        47           Cu  tau(  47) = (   0.5006029   0.4568455   1.4895584  )
        48           Cu  tau(  48) = (   0.7516203   0.6896800   1.4911953  )
        49           Cu  tau(  49) = (   0.0013096   0.9235868   1.4906194  )
        50           Cu  tau(  50) = (   0.2489666   1.1565748   1.4911051  )
        51           Cu  tau(  51) = (   0.5001447   0.9234118   1.4929449  )
        52           Cu  tau(  52) = (   0.7518099   1.1576849   1.4907013  )
        53           Cu  tau(  53) = (   0.0000619   1.3864281   1.4950166  )
        54           Cu  tau(  54) = (   0.2495383   1.6181693   1.4942747  )
        55           Cu  tau(  55) = (   0.5005739   1.3917149   1.4881802  )
        56           Cu  tau(  56) = (   0.7506240   1.6175166   1.4950001  )
        57           Cu  tau(  57) = (  -0.0000317   1.8476434   1.4958893  )
        58           Cu  tau(  58) = (   0.2499105   2.0784604   1.4959348  )
        59           Cu  tau(  59) = (   0.5000270   1.8479957   1.4952832  )
        60           Cu  tau(  60) = (   0.7500668   2.0784868   1.4957776  )
        61           Cu  tau(  61) = (   0.0000119   0.2297285   1.7471342  )
        62           Cu  tau(  62) = (   0.2498759  -0.0000861   1.7474778  )
        63           Cu  tau(  63) = (   0.5007456   0.2283630   1.7451497  )
        64           Cu  tau(  64) = (   0.7503827  -0.0002450   1.7471821  )
        65           Cu  tau(  65) = (   0.0011486   0.6896441   1.7419574  )
        66           Cu  tau(  66) = (   0.2495702   0.4537576   1.7402200  )
        67           Cu  tau(  67) = (   0.5013151   0.6801589   1.7305350  )
        68           Cu  tau(  68) = (   0.7522014   0.4569577   1.7435928  )
        69           Cu  tau(  69) = (   0.0008730   1.1578785   1.7418781  )
        70           Cu  tau(  70) = (   0.2488220   0.9246930   1.7353790  )
        71           Cu  tau(  71) = (   0.5006247   1.1693614   1.7273097  )
        72           Cu  tau(  72) = (   0.7623069   0.9240234   1.7272191  )
        73           Cu  tau(  73) = (  -0.0001287   1.6178415   1.7471214  )
        74           Cu  tau(  74) = (   0.2490813   1.3939898   1.7398202  )
        75           Cu  tau(  75) = (   0.5008843   1.6184582   1.7455231  )
        76           Cu  tau(  76) = (   0.7525623   1.3900644   1.7439931  )
        77           Cu  tau(  77) = (   0.0000970   2.0783922   1.7472930  )
        78           Cu  tau(  78) = (   0.2500839   1.8474777   1.7472989  )
        79           Cu  tau(  79) = (   0.5000231   2.0784762   1.7471768  )
        80           Cu  tau(  80) = (   0.7501519   1.8476658   1.7471880  )
        81           Cu  tau(  81) = (   0.0005159  -0.0003410   1.9990793  )
        82           Cu  tau(  82) = (   0.2504129   0.2301835   1.9998797  )
        83           Cu  tau(  83) = (   0.5002822   0.0002685   1.9986737  )
        84           Cu  tau(  84) = (   0.7513765   0.2295687   1.9995514  )
        85           Cu  tau(  85) = (   0.0008840   0.4550255   2.0018914  )
        86           Cu  tau(  86) = (   0.2431291   0.6848761   1.9705279  )
        87           Cu  tau(  87) = (   0.5020723   0.4573403   1.9943158  )
        88           Cu  tau(  88) = (   0.7606107   0.6810214   1.9885719  )
        89           Cu  tau(  89) = (  -0.0099841   0.9244622   1.9915154  )
        90           Cu  tau(  90) = (   0.2423238   1.1654778   1.9725654  )
        91           Cu  tau(  91) = (   0.5279585   0.9279919   1.9444736  )
        92           Cu  tau(  92) = (   0.7614753   1.1672248   1.9916205  )
        93           Cu  tau(  93) = (   0.0006635   1.3932407   2.0017769  )
        94           Cu  tau(  94) = (   0.2511566   1.6172225   1.9995034  )
        95           Cu  tau(  95) = (   0.5017144   1.3875841   1.9949297  )
        96           Cu  tau(  96) = (   0.7502179   1.6173139   1.9994531  )
        97           Cu  tau(  97) = (   0.0001989   1.8473826   1.9987940  )
        98           Cu  tau(  98) = (   0.2503441   2.0782708   1.9990289  )
        99           Cu  tau(  99) = (   0.5004279   1.8474215   1.9987317  )
       100           Cu  tau( 100) = (   0.7500663   2.0785012   1.9989021  )
       101           C   tau( 101) = (  -0.0007251   0.0978987   2.5144982  )
       102           C   tau( 102) = (  -0.0008101   0.2906700   2.5083400  )
       103           C   tau( 103) = (   0.1659414   0.0009281   2.5179412  )
       104           C   tau( 104) = (   0.1662014   0.3867849   2.5143194  )
       105           C   tau( 105) = (   0.3326203   0.0973812   2.5157913  )
       106           C   tau( 106) = (   0.3323402   0.2901613   2.5133253  )
       107           C   tau( 107) = (   0.4993351   0.0007950   2.5182884  )
       108           C   tau( 108) = (   0.4990764   0.3868226   2.5162504  )
       109           C   tau( 109) = (   0.6660186   0.0976788   2.5154394  )
       110           C   tau( 110) = (   0.6656909   0.2905295   2.5100883  )
       111           C   tau( 111) = (   0.8328933   0.0011473   2.5176404  )
       112           C   tau( 112) = (   0.8325044   0.3869408   2.5057744  )
       113           C   tau( 113) = (   0.0001176   0.6749814   2.5191271  )
       114           C   tau( 114) = (  -0.0000137   0.8661361   2.5314464  )
       115           C   tau( 115) = (   0.1661400   0.5785333   2.5311431  )
       116           C   tau( 116) = (   0.1659073   0.9623548   2.5535452  )
       117           C   tau( 117) = (   0.3321207   0.6735848   2.5590070  )
       118           C   tau( 118) = (   0.3317716   0.8658895   2.5798784  )
       119           C   tau( 119) = (   0.4993041   0.5782205   2.5401060  )
       120           C   tau( 120) = (   0.5010280   0.9628405   2.5780322  )
       121           C   tau( 121) = (   0.6667179   0.6743864   2.5356036  )
       122           C   tau( 122) = (   0.6672239   0.8661892   2.5533019  )
       123           C   tau( 123) = (   0.8324660   0.5793806   2.5093262  )
       124           C   tau( 124) = (   0.8331311   0.9623326   2.5311736  )
       125           C   tau( 125) = (   0.0001725   1.2492156   2.5111915  )
       126           C   tau( 126) = (   0.0000433   1.4416310   2.5077210  )
       127           C   tau( 127) = (   0.1661956   1.1541051   2.5355056  )
       128           C   tau( 128) = (   0.1667969   1.5381036   2.5112586  )
       129           C   tau( 129) = (   0.3333476   1.2502950   2.5377006  )
       130           C   tau( 130) = (   0.3333696   1.4419754   2.5159316  )
       131           C   tau( 131) = (   0.5005232   1.1550813   2.5555912  )
       132           C   tau( 132) = (   0.5001968   1.5385236   2.5140651  )
       133           C   tau( 133) = (   0.6666880   1.2500228   2.5294745  )
       134           C   tau( 134) = (   0.6664152   1.4419872   2.5145478  )
       135           C   tau( 135) = (   0.8327510   1.1535940   2.5194061  )
       136           C   tau( 136) = (   0.8333582   1.5379604   2.5098064  )
       137           C   tau( 137) = (  -0.0002851   1.8275119   2.5175473  )
       138           C   tau( 138) = (  -0.0003416   2.0202978   2.5198847  )
       139           C   tau( 139) = (   0.1665395   1.7309331   2.5158614  )
       140           C   tau( 140) = (   0.1660945   2.1174803   2.5197581  )
       141           C   tau( 141) = (   0.3332580   1.8278688   2.5183241  )
       142           C   tau( 142) = (   0.3330187   2.0205541   2.5194887  )
       143           C   tau( 143) = (   0.4999558   1.7312662   2.5163758  )
       144           C   tau( 144) = (   0.4996307   2.1174648   2.5197086  )
       145           C   tau( 145) = (   0.6667037   1.8277190   2.5179870  )
       146           C   tau( 146) = (   0.6666425   2.0205683   2.5196713  )
       147           C   tau( 147) = (   0.8333717   1.7307444   2.5151112  )
       148           C   tau( 148) = (   0.8330049   2.1177521   2.5199542  )
       149           H   tau( 149) = (   0.4286955   0.9100547   2.3494295  )
       150           C   tau( 150) = (   0.4012587   0.9084465   2.2059654  )
       151           H   tau( 151) = (   0.5514214   0.9082869   2.1668597  )
       152           H   tau( 152) = (   0.3252310   0.7790074   2.1928225  )
       153           H   tau( 153) = (   0.3232684   1.0356711   2.1898289  )

     number of k points=     6  gaussian smearing, width (Ry)=  0.1000
                       cart. coord. in units 2pi/alat
        k(    1) = (   0.0000000   0.0000000   0.0000000), wk =   0.2500000
        k(    2) = (   0.0000000  -0.2165064   0.0000000), wk =   0.2500000
        k(    3) = (   0.2500000   0.0000000   0.0000000), wk =   0.5000000
        k(    4) = (   0.2500000  -0.2165064   0.0000000), wk =   0.5000000
        k(    5) = (  -0.5000000   0.0000000   0.0000000), wk =   0.2500000
        k(    6) = (  -0.5000000  -0.2165064   0.0000000), wk =   0.2500000

     Dense  grid:  2050409 G-vectors     FFT dimensions: (  80, 192, 270)

     Largest allocated arrays     est. size (Mb)     dimensions
        Kohn-Sham Wavefunctions        54.80 Mb     (    4604,  780)
        NL pseudopotentials           130.18 Mb     (    4604, 1853)
        Each V/rho on FFT grid          1.17 Mb     (   76800)
        Each G-vector array             0.28 Mb     (   36616)
        G-vector shells                 0.14 Mb     (   17932)
     Largest temporary arrays     est. size (Mb)     dimensions
        Auxiliary wavefunctions       219.18 Mb     (    4604, 3120)
        Each subspace H/S matrix        5.94 Mb     (     624,  624)
        Each <psi_i|beta_j> matrix     22.05 Mb     (    1853,  780)
        Arrays for rho mixing           9.38 Mb     (   76800,    8)

     Initial potential from superposition of free atoms
     Check: negative starting charge=   -0.001606

     starting charge 1274.31747, renormalised to 1300.00000

     negative rho (up, down):  1.638E-03 0.000E+00
     Starting wfc are 1296 randomized atomic wfcs

     total cpu time spent up to now is      107.2 secs

     Self-consistent Calculation

     iteration #  1     ecut=    80.00 Ry     beta=0.70
     Davidson diagonalization with overlap
     c_bands:  4 eigenvalues not converged
     c_bands:  1 eigenvalues not converged
     c_bands:  2 eigenvalues not converged
     c_bands:  4 eigenvalues not converged
     ethr =  1.00E-04,  avg # of iterations = 42.5

     negative rho (up, down):  2.593E+01 0.000E+00

     total cpu time spent up to now is     2351.9 secs

     total energy              =   -9867.65579254 Ry
     Harris-Foulkes estimate   =  -18125.33477739 Ry
     estimated scf accuracy    <  212324.36491523 Ry

     iteration #  2     ecut=    80.00 Ry     beta=0.70
     Davidson diagonalization with overlap
     ethr =  1.00E-02,  avg # of iterations = 14.8

     negative rho (up, down):  3.288E+01 0.000E+00

     total cpu time spent up to now is     3363.4 secs

     total energy              =  -12038.62469085 Ry
     Harris-Foulkes estimate   =  -13735.12024603 Ry
     estimated scf accuracy    <   28260.56717324 Ry

     iteration #  3     ecut=    80.00 Ry     beta=0.70
     Davidson diagonalization with overlap
     ethr =  1.00E-02,  avg # of iterations = 10.0

     negative rho (up, down):  3.465E+01 0.000E+00

     total cpu time spent up to now is     3924.6 secs

     total energy              =  -12347.77999677 Ry
     Harris-Foulkes estimate   =  -13487.56074612 Ry
     estimated scf accuracy    <    8301.75868767 Ry

     iteration #  4     ecut=    80.00 Ry     beta=0.70
     Davidson diagonalization with overlap
     ethr =  1.00E-02,  avg # of iterations =  5.0

     negative rho (up, down):  2.425E+01 0.000E+00

     total cpu time spent up to now is     4401.3 secs

     total energy              =  -12860.06771947 Ry
     Harris-Foulkes estimate   =  -13116.73583091 Ry
     estimated scf accuracy    <    1098.26666456 Ry

     iteration #  5     ecut=    80.00 Ry     beta=0.70
     Davidson diagonalization with overlap
     ethr =  1.00E-02,  avg # of iterations =  3.0

     negative rho (up, down):  1.556E+01 0.000E+00

     total cpu time spent up to now is     4661.3 secs

     total energy              =  -12832.03953569 Ry
     Harris-Foulkes estimate   =  -12931.47442999 Ry
     estimated scf accuracy    <     778.30784887 Ry

     iteration #  6     ecut=    80.00 Ry     beta=0.70
     Davidson diagonalization with overlap
     ethr =  1.00E-02,  avg # of iterations =  2.0

     negative rho (up, down):  1.082E+01 0.000E+00

     total cpu time spent up to now is     4869.4 secs

     total energy              =  -12821.57244605 Ry
     Harris-Foulkes estimate   =  -12863.40693784 Ry
     estimated scf accuracy    <     566.46501242 Ry

     iteration #  7     ecut=    80.00 Ry     beta=0.70
     Davidson diagonalization with overlap
     ethr =  1.00E-02,  avg # of iterations =  2.3

     negative rho (up, down):  8.034E+00 0.000E+00

     total cpu time spent up to now is     5051.8 secs

     total energy              =  -12803.53948597 Ry
     Harris-Foulkes estimate   =  -12832.85050985 Ry
     estimated scf accuracy    <     314.26444609 Ry

     iteration #  8     ecut=    80.00 Ry     beta=0.70
     Davidson diagonalization with overlap
     ethr =  1.00E-02,  avg # of iterations =  1.2

     negative rho (up, down):  5.153E+00 0.000E+00

     total cpu time spent up to now is     5220.8 secs

     total energy              =  -12780.11583381 Ry
     Harris-Foulkes estimate   =  -12809.15257018 Ry
     estimated scf accuracy    <     247.51762081 Ry

     iteration #  9     ecut=    80.00 Ry     beta=0.70
     Davidson diagonalization with overlap
     ethr =  1.00E-02,  avg # of iterations =  1.5

     negative rho (up, down):  3.621E+00 0.000E+00

     total cpu time spent up to now is     5393.8 secs

     total energy              =  -12769.22773782 Ry
     Harris-Foulkes estimate   =  -12785.11702655 Ry
     estimated scf accuracy    <     184.72285800 Ry

     iteration # 10     ecut=    80.00 Ry     beta=0.70
     Davidson diagonalization with overlap
     ethr =  1.00E-02,  avg # of iterations =  1.3

     negative rho (up, down):  8.805E-01 0.000E+00

     total cpu time spent up to now is     5564.4 secs

     total energy              =  -12737.68690216 Ry
     Harris-Foulkes estimate   =  -12771.87771209 Ry
     estimated scf accuracy    <     120.25708914 Ry

     iteration # 11     ecut=    80.00 Ry     beta=0.70
     Davidson diagonalization with overlap
     ethr =  9.25E-03,  avg # of iterations =  1.2

     negative rho (up, down):  1.312E+00 0.000E+00

     total cpu time spent up to now is     5733.5 secs

     total energy              =  -12730.93334817 Ry
     Harris-Foulkes estimate   =  -12745.93262185 Ry
     estimated scf accuracy    <     137.91676609 Ry

     iteration # 12     ecut=    80.00 Ry     beta=0.70
     Davidson diagonalization with overlap
     ethr =  9.25E-03,  avg # of iterations =  1.5

     negative rho (up, down):  3.039E+00 0.000E+00

     total cpu time spent up to now is     5906.2 secs

     total energy              =  -12726.90765739 Ry
     Harris-Foulkes estimate   =  -12737.39941111 Ry
     estimated scf accuracy    <      55.64387077 Ry

     iteration # 13     ecut=    80.00 Ry     beta=0.70
     Davidson diagonalization with overlap
     ethr =  4.28E-03,  avg # of iterations =  2.8

     negative rho (up, down):  4.612E+00 0.000E+00

     total cpu time spent up to now is     6093.4 secs

     total energy              =  -12723.10724593 Ry
     Harris-Foulkes estimate   =  -12728.76196497 Ry
     estimated scf accuracy    <      37.41140824 Ry

     iteration # 14     ecut=    80.00 Ry     beta=0.70
     Davidson diagonalization with overlap
     ethr =  2.88E-03,  avg # of iterations =  3.8

     negative rho (up, down):  6.695E+00 0.000E+00

     total cpu time spent up to now is     6294.4 secs

     total energy              =  -12721.67716659 Ry
     Harris-Foulkes estimate   =  -12724.45534177 Ry
     estimated scf accuracy    <      19.21082939 Ry

     iteration # 15     ecut=    80.00 Ry     beta=0.70
     Davidson diagonalization with overlap
     ethr =  1.48E-03,  avg # of iterations =  5.3

     negative rho (up, down):  4.607E+00 0.000E+00

     total cpu time spent up to now is     6521.0 secs

     total energy              =  -12720.66388223 Ry
     Harris-Foulkes estimate   =  -12722.42204820 Ry
     estimated scf accuracy    <      10.30414509 Ry

     iteration # 16     ecut=    80.00 Ry     beta=0.70
     Davidson diagonalization with overlap
     ethr =  7.93E-04,  avg # of iterations =  2.8

     negative rho (up, down):  3.325E+00 0.000E+00

     total cpu time spent up to now is     6707.9 secs

     total energy              =  -12719.74759482 Ry
     Harris-Foulkes estimate   =  -12721.02014646 Ry
     estimated scf accuracy    <       9.39247349 Ry

     iteration # 17     ecut=    80.00 Ry     beta=0.70
     Davidson diagonalization with overlap
     ethr =  7.22E-04,  avg # of iterations =  2.0

     negative rho (up, down):  1.503E+00 0.000E+00

     total cpu time spent up to now is     6885.9 secs

     total energy              =  -12717.93170337 Ry
     Harris-Foulkes estimate   =  -12719.97806450 Ry
     estimated scf accuracy    <       8.41439811 Ry

     iteration # 18     ecut=    80.00 Ry     beta=0.70
     Davidson diagonalization with overlap
     ethr =  6.47E-04,  avg # of iterations =  5.3

     negative rho (up, down):  1.749E+00 0.000E+00

     total cpu time spent up to now is     7103.3 secs

     total energy              =  -12717.85841336 Ry
     Harris-Foulkes estimate   =  -12718.45873469 Ry
     estimated scf accuracy    <      36.58648789 Ry

     iteration # 19     ecut=    80.00 Ry     beta=0.70
     Davidson diagonalization with overlap
     ethr =  6.47E-04,  avg # of iterations =  1.2

     negative rho (up, down):  8.279E-01 0.000E+00

     total cpu time spent up to now is     7271.4 secs

     total energy              =  -12717.18482797 Ry
     Harris-Foulkes estimate   =  -12718.23637449 Ry
     estimated scf accuracy    <      10.52357161 Ry

     iteration # 20     ecut=    80.00 Ry     beta=0.70
     Davidson diagonalization with overlap
     ethr =  6.47E-04,  avg # of iterations =  1.7

     negative rho (up, down):  6.596E-01 0.000E+00

     total cpu time spent up to now is     7446.1 secs

     total energy              =  -12716.57818891 Ry
     Harris-Foulkes estimate   =  -12717.40034567 Ry
     estimated scf accuracy    <      17.82585031 Ry

     iteration # 21     ecut=    80.00 Ry     beta=0.70
     Davidson diagonalization with overlap
     ethr =  6.47E-04,  avg # of iterations =  2.7

     negative rho (up, down):  5.284E-02 0.000E+00

     total cpu time spent up to now is     7632.7 secs

     total energy              =  -12715.41661458 Ry
     Harris-Foulkes estimate   =  -12717.29919536 Ry
     estimated scf accuracy    <      12.58478567 Ry

     iteration # 22     ecut=    80.00 Ry     beta=0.70
     Davidson diagonalization with overlap
     ethr =  6.47E-04,  avg # of iterations =  2.0

     negative rho (up, down):  2.383E-01 0.000E+00

     total cpu time spent up to now is     7811.2 secs

     total energy              =  -12715.09593008 Ry
     Harris-Foulkes estimate   =  -12715.86760745 Ry
     estimated scf accuracy    <       5.46813800 Ry

     iteration # 23     ecut=    80.00 Ry     beta=0.70
     Davidson diagonalization with overlap
     ethr =  4.21E-04,  avg # of iterations =  6.2

     negative rho (up, down):  6.690E-01 0.000E+00

     total cpu time spent up to now is     8041.7 secs

     total energy              =  -12714.82106001 Ry
     Harris-Foulkes estimate   =  -12715.28001912 Ry
     estimated scf accuracy    <       4.09821092 Ry

     iteration # 24     ecut=    80.00 Ry     beta=0.70
     Davidson diagonalization with overlap
     ethr =  3.15E-04,  avg # of iterations =  6.3

     negative rho (up, down):  7.826E-01 0.000E+00

     total cpu time spent up to now is     8272.1 secs

     total energy              =  -12714.75342872 Ry
     Harris-Foulkes estimate   =  -12715.00133821 Ry
     estimated scf accuracy    <       1.18581321 Ry

     iteration # 25     ecut=    80.00 Ry     beta=0.70
     Davidson diagonalization with overlap
     ethr =  9.12E-05,  avg # of iterations =  8.8

     negative rho (up, down):  5.186E-01 0.000E+00

     total cpu time spent up to now is     8554.8 secs

     total energy              =  -12714.73840681 Ry
     Harris-Foulkes estimate   =  -12714.84714126 Ry
     estimated scf accuracy    <       0.66353277 Ry

     iteration # 26     ecut=    80.00 Ry     beta=0.70
     Davidson diagonalization with overlap
     ethr =  5.10E-05,  avg # of iterations =  5.3

     negative rho (up, down):  2.561E-01 0.000E+00

     total cpu time spent up to now is     8771.8 secs

     total energy              =  -12714.73839278 Ry
     Harris-Foulkes estimate   =  -12714.78168984 Ry
     estimated scf accuracy    <       0.41233510 Ry

     iteration # 27     ecut=    80.00 Ry     beta=0.70
     Davidson diagonalization with overlap
     ethr =  3.17E-05,  avg # of iterations =  8.8

     negative rho (up, down):  1.826E-02 0.000E+00

     total cpu time spent up to now is     9046.0 secs

     total energy              =  -12714.73716569 Ry
     Harris-Foulkes estimate   =  -12714.75911625 Ry
     estimated scf accuracy    <       0.27713433 Ry

     iteration # 28     ecut=    80.00 Ry     beta=0.70
     Davidson diagonalization with overlap
     c_bands:  2 eigenvalues not converged
     ethr =  2.13E-05,  avg # of iterations = 15.8

     negative rho (up, down):  5.464E-03 0.000E+00

     total cpu time spent up to now is     9402.7 secs

     total energy              =  -12714.73566757 Ry
     Harris-Foulkes estimate   =  -12714.74754137 Ry
     estimated scf accuracy    <       0.15893133 Ry

     iteration # 29     ecut=    80.00 Ry     beta=0.70
     Davidson diagonalization with overlap
     ethr =  1.22E-05,  avg # of iterations =  8.7

     negative rho (up, down):  1.495E-02 0.000E+00

     total cpu time spent up to now is     9669.9 secs

     total energy              =  -12714.72826933 Ry
     Harris-Foulkes estimate   =  -12714.74044764 Ry
     estimated scf accuracy    <       0.06069622 Ry

     iteration # 30     ecut=    80.00 Ry     beta=0.70
     Davidson diagonalization with overlap
     ethr =  4.67E-06,  avg # of iterations =  9.7

     negative rho (up, down):  4.887E-03 0.000E+00

     total cpu time spent up to now is     9956.3 secs

     total energy              =  -12714.72818582 Ry
     Harris-Foulkes estimate   =  -12714.73561691 Ry
     estimated scf accuracy    <       0.05057659 Ry

     iteration # 31     ecut=    80.00 Ry     beta=0.70
     Davidson diagonalization with overlap
     ethr =  3.89E-06,  avg # of iterations = 10.5

     negative rho (up, down):  3.391E-05 0.000E+00

     total cpu time spent up to now is    10257.6 secs

     total energy              =  -12714.73307878 Ry
     Harris-Foulkes estimate   =  -12714.73536833 Ry
     estimated scf accuracy    <       0.02269217 Ry

     iteration # 32     ecut=    80.00 Ry     beta=0.70
     Davidson diagonalization with overlap
     ethr =  1.75E-06,  avg # of iterations =  7.2

     negative rho (up, down):  6.023E-04 0.000E+00

     total cpu time spent up to now is    10511.0 secs

     total energy              =  -12714.73401520 Ry
     Harris-Foulkes estimate   =  -12714.73465735 Ry
     estimated scf accuracy    <       0.00684979 Ry

     iteration # 33     ecut=    80.00 Ry     beta=0.70
     Davidson diagonalization with overlap
     c_bands:  1 eigenvalues not converged
     ethr =  5.27E-07,  avg # of iterations = 12.3

     negative rho (up, down):  1.304E-02 0.000E+00

     total cpu time spent up to now is    10834.3 secs

     total energy              =  -12714.73481270 Ry
     Harris-Foulkes estimate   =  -12714.73473123 Ry
     estimated scf accuracy    <       0.00177537 Ry

     iteration # 34     ecut=    80.00 Ry     beta=0.70
     Davidson diagonalization with overlap
     ethr =  1.37E-07,  avg # of iterations =  7.5

     negative rho (up, down):  5.648E-03 0.000E+00

     total cpu time spent up to now is    11094.6 secs

     total energy              =  -12714.73482825 Ry
     Harris-Foulkes estimate   =  -12714.73498842 Ry
     estimated scf accuracy    <       0.00025732 Ry

     iteration # 35     ecut=    80.00 Ry     beta=0.70
     Davidson diagonalization with overlap
     ethr =  1.98E-08,  avg # of iterations =  9.7

     negative rho (up, down):  3.640E-03 0.000E+00

     total cpu time spent up to now is    11389.0 secs

     total energy              =  -12714.73480659 Ry
     Harris-Foulkes estimate   =  -12714.73485968 Ry
     estimated scf accuracy    <       0.00012859 Ry

     iteration # 36     ecut=    80.00 Ry     beta=0.70
     Davidson diagonalization with overlap
     ethr =  9.89E-09,  avg # of iterations =  5.0

     negative rho (up, down):  1.830E-03 0.000E+00

     total cpu time spent up to now is    11611.7 secs

     total energy              =  -12714.73480219 Ry
     Harris-Foulkes estimate   =  -12714.73481800 Ry
     estimated scf accuracy    <       0.00001153 Ry

     iteration # 37     ecut=    80.00 Ry     beta=0.70
     Davidson diagonalization with overlap
     c_bands:  2 eigenvalues not converged
     ethr =  8.87E-10,  avg # of iterations =  7.2

     negative rho (up, down):  2.244E-03 0.000E+00

     total cpu time spent up to now is    11923.1 secs

     total energy              =  -12714.73480418 Ry
     Harris-Foulkes estimate   =  -12714.73480529 Ry
     estimated scf accuracy    <       0.00000896 Ry

     iteration # 38     ecut=    80.00 Ry     beta=0.70
     Davidson diagonalization with overlap
     ethr =  6.89E-10,  avg # of iterations =  5.2

     negative rho (up, down):  1.915E-03 0.000E+00

     total cpu time spent up to now is    12142.0 secs

     total energy              =  -12714.73480433 Ry
     Harris-Foulkes estimate   =  -12714.73480487 Ry
     estimated scf accuracy    <       0.00000092 Ry

     iteration # 39     ecut=    80.00 Ry     beta=0.70
     Davidson diagonalization with overlap
     ethr =  7.04E-11,  avg # of iterations =  2.5

     negative rho (up, down):  1.682E-03 0.000E+00

     total cpu time spent up to now is    12342.8 secs

     total energy              =  -12714.73480437 Ry
     Harris-Foulkes estimate   =  -12714.73480445 Ry
     estimated scf accuracy    <       0.00000034 Ry

     iteration # 40     ecut=    80.00 Ry     beta=0.70
     Davidson diagonalization with overlap
     ethr =  2.65E-11,  avg # of iterations =  3.0

     negative rho (up, down):  1.687E-03 0.000E+00

     total cpu time spent up to now is    12540.6 secs

     total energy              =  -12714.73480445 Ry
     Harris-Foulkes estimate   =  -12714.73480441 Ry
     estimated scf accuracy    <       0.00000004 Ry

     iteration # 41     ecut=    80.00 Ry     beta=0.70
     Davidson diagonalization with overlap
     ethr =  3.17E-12,  avg # of iterations =  3.0

     negative rho (up, down):  1.674E-03 0.000E+00

     total cpu time spent up to now is    12823.8 secs

     total energy              =  -12714.73480452 Ry
     Harris-Foulkes estimate   =  -12714.73480446 Ry
     estimated scf accuracy    <       0.00000002 Ry

     iteration # 42     ecut=    80.00 Ry     beta=0.70
     Davidson diagonalization with overlap
     ethr =  1.29E-12,  avg # of iterations =  3.2

     negative rho (up, down):  1.656E-03 0.000E+00

     total cpu time spent up to now is    13019.0 secs

     End of self-consistent calculation

          k = 0.0000 0.0000 0.0000 (256287 PWs)   bands (ev):

   -15.8285 -15.4529 -15.4305 -14.3550 -14.3284 -13.8814 -13.8533 -13.5168
   -13.4821 -13.4815 -13.4777 -12.5611 -12.5403 -12.4485 -12.4220 -12.4169
   -12.4138 -11.0694 -10.7419 -10.7353 -10.7237 -10.7035 -10.5285  -9.5274
    -8.8714  -8.8707  -8.8514  -8.8471  -7.9838  -7.9800  -7.9686  -7.9590
    -6.9978  -6.9924  -6.9162  -6.9111  -6.9086  -6.8992  -6.8743  -6.8740
    -5.7086  -5.3709  -5.3656  -5.3564  -5.3471  -5.1979  -5.1954  -5.1873
    -5.1854  -5.1848  -5.1641  -4.6249  -4.4697  -4.3197  -4.2105  -4.0596
    -4.0458  -4.0026  -3.9488  -3.8085  -3.7368  -3.7151  -3.6651  -3.6564
    -3.4735  -3.1399  -3.0915  -3.0853  -2.9312  -2.9307  -2.9107  -2.9051
    -2.8716  -2.7731  -2.7535  -2.7430  -2.7112  -2.7097  -2.6939  -2.6765
    -2.6606  -2.6588  -2.4949  -2.4032  -2.3898  -2.3857  -2.2203  -2.1769
    -2.1571  -2.1500  -2.1088  -2.0953  -2.0665  -2.0393  -1.9756  -1.9698
    -1.9447  -1.9386  -1.8887  -1.8846  -1.8598  -1.8586  -1.8526  -1.8497
    -1.7221  -1.7216  -1.6897  -1.6884  -1.6719  -1.6574  -1.5619  -1.5371
    -1.4711  -1.4279  -1.4191  -1.4127  -1.4104  -1.3973  -1.3958  -1.3904
    -1.3902  -1.3853  -1.3523  -1.3324  -1.3299  -1.3004  -1.2918  -1.2842
    -1.2682  -1.2646  -1.2570  -1.2398  -1.2300  -1.2285  -1.2259  -1.2196
    -1.2079  -1.1994  -1.1962  -1.1482  -1.1384  -1.0951  -1.0657  -1.0382
    -1.0075  -0.9720  -0.9652  -0.9631  -0.9605  -0.9514  -0.9352  -0.9285
    -0.9188  -0.8929  -0.8897  -0.8777  -0.8658  -0.8481  -0.7754  -0.7571
    -0.7567  -0.7520  -0.7448  -0.7408  -0.7255  -0.7236  -0.7184  -0.7154
    -0.7142  -0.7097  -0.7030  -0.6980  -0.6896  -0.6803  -0.6791  -0.6773
    -0.6653  -0.6596  -0.6322  -0.6299  -0.6272  -0.5943  -0.5870  -0.5839
    -0.5817  -0.5635  -0.5602  -0.5587  -0.5536  -0.5482  -0.5473  -0.5425
    -0.5407  -0.5385  -0.5315  -0.5310  -0.5306  -0.5287  -0.5172  -0.5149
    -0.5109  -0.5036  -0.4472  -0.3957  -0.3845  -0.3749  -0.3712  -0.3349
    -0.3343  -0.3278  -0.3262  -0.3162  -0.3054  -0.3040  -0.2948  -0.2838
    -0.2762  -0.2674  -0.2574  -0.2539  -0.2527  -0.2505  -0.2385  -0.2345
    -0.2261  -0.2216  -0.2153  -0.1963  -0.1756  -0.1668  -0.1635  -0.1520
    -0.1419  -0.1338  -0.1250  -0.1155  -0.1149  -0.1096  -0.1045  -0.1011
    -0.0982  -0.0940  -0.0929  -0.0903  -0.0894  -0.0879  -0.0782  -0.0764
    -0.0710  -0.0659  -0.0619  -0.0608  -0.0533  -0.0356  -0.0318  -0.0256
    -0.0197  -0.0125   0.0006   0.0122   0.0134   0.0333   0.0341   0.0389
     0.0435   0.0484   0.0496   0.0552   0.0560   0.0640   0.0681   0.0765
     0.0788   0.0871   0.0930   0.0936   0.0966   0.0990   0.0999   0.1095
     0.1161   0.1180   0.1195   0.1261   0.1310   0.1337   0.1380   0.1580
     0.1665   0.1848   0.1989   0.2002   0.2093   0.2235   0.2269   0.2376
     0.2427   0.2510   0.2530   0.2565   0.2601   0.2606   0.2663   0.2682
     0.2793   0.2911   0.2972   0.3113   0.3225   0.3276   0.3290   0.3393
     0.3405   0.3418   0.3451   0.3547   0.3550   0.3587   0.3619   0.3658
     0.3734   0.3740   0.3806   0.3815   0.3880   0.3983   0.4033   0.4088
     0.4162   0.4211   0.4259   0.4366   0.4675   0.4718   0.4765   0.4831
     0.4855   0.4916   0.4985   0.5189   0.5335   0.5374   0.5453   0.5499
     0.5736   0.5741   0.5835   0.5841   0.5867   0.6017   0.6093   0.6117
     0.6184   0.6198   0.6383   0.6418   0.6447   0.6515   0.6532   0.6643
     0.6724   0.6758   0.6953   0.6974   0.7092   0.7120   0.7212   0.7244
     0.7347   0.7355   0.7452   0.7495   0.7567   0.7643   0.7663   0.7703
     0.7855   0.7876   0.7986   0.8072   0.8125   0.8219   0.8245   0.8265
     0.8406   0.8435   0.8436   0.8473   0.8567   0.8662   0.8667   0.8688
     0.8722   0.8739   0.8778   0.8827   0.8846   0.8903   0.8920   0.8936
     0.8965   0.9103   0.9136   0.9257   0.9303   0.9360   0.9396   0.9499
     0.9542   0.9595   0.9625   0.9671   0.9718   0.9763   0.9817   0.9849
     0.9878   0.9882   0.9931   1.0021   1.0029   1.0047   1.0102   1.0116
     1.0198   1.0236   1.0318   1.0345   1.0419   1.0445   1.0513   1.0596
     1.0601   1.0601   1.0644   1.0679   1.0724   1.0739   1.0797   1.0825
     1.0894   1.1054   1.1121   1.1209   1.1303   1.1434   1.1436   1.1585
     1.1612   1.1621   1.1673   1.1737   1.1778   1.1942   1.1958   1.1968
     1.2055   1.2060   1.2102   1.2146   1.2290   1.2348   1.2378   1.2428
     1.2475   1.2491   1.2512   1.2530   1.2592   1.2602   1.2611   1.2695
     1.2757   1.2844   1.2985   1.3032   1.3058   1.3069   1.3141   1.3153
     1.3178   1.3197   1.3266   1.3281   1.3344   1.3399   1.3436   1.3460
     1.3485   1.3537   1.3546   1.3645   1.3700   1.3713   1.3754   1.3865
     1.3884   1.3945   1.4010   1.4096   1.4122   1.4170   1.4198   1.4220
     1.4243   1.4269   1.4309   1.4349   1.4352   1.4377   1.4395   1.4420
     1.4459   1.4502   1.4517   1.4542   1.4688   1.4755   1.4791   1.4866
     1.4889   1.4916   1.4942   1.5074   1.5189   1.5202   1.5278   1.5297
     1.5392   1.5406   1.5475   1.5509   1.5542   1.5579   1.5650   1.5657
     1.5756   1.5769   1.5814   1.5833   1.5839   1.5914   1.5926   1.5954
     1.6004   1.6034   1.6116   1.6128   1.6153   1.6192   1.6206   1.6267
     1.6269   1.6290   1.6291   1.6306   1.6320   1.6380   1.6395   1.6473
     1.6514   1.6553   1.6585   1.6616   1.6633   1.6655   1.6670   1.6746
     1.6827   1.6915   1.6936   1.7004   1.7048   1.7121   1.7163   1.7204
     1.7273   1.7303   1.7313   1.7333   1.7353   1.7383   1.7394   1.7409
     1.7419   1.7458   1.7493   1.7504   1.7514   1.7544   1.7593   1.7628
     1.7673   1.7719   1.7778   1.7806   1.7855   1.7919   1.7946   1.7956
     1.8071   1.8130   1.8151   1.8192   1.8283   1.8353   1.8539   1.8627
     1.8751   1.8773   1.8827   1.8941   1.8980   1.9120   1.9261   1.9352
     1.9417   1.9426   1.9488   1.9561   1.9604   1.9615   1.9806   2.0498
     2.2476   2.2691   2.3656   2.3706   2.3960   2.4480   2.5024   2.5066
     2.5135   2.5169   2.5281   2.5284   2.5306   2.5382   2.6795   2.6858
     2.7178   2.7268   2.7572   2.7952   2.8042   2.8901   2.9862   3.0192
     3.0258   3.0509   3.3231   3.6124   3.6550   3.6890   3.6918   3.7513
     3.7868   4.0299   4.0414   4.0847   4.0951   4.1208   4.1297   4.1620
     4.1912   4.2385   4.2585   4.2851   4.3043   4.3088   4.3126   4.3163
     4.3251   4.3933   4.4262   4.4601   4.6023   4.8666   5.0607   5.2819
     5.4045   5.4797   5.5030   5.5401   5.5740   5.5940   5.6041   5.6542
     5.8264   5.8366   6.0152   6.0321   6.2050   6.2330   6.4595   6.4667
     6.5666   6.6377   6.6696   6.7057   6.7463   6.7736   6.8130   6.9230
     6.9406   7.0633   7.1075   7.1739   7.1858   7.2817   7.3039   7.3131
     7.3192   7.3731   7.3872   7.4098   7.4328   7.4437   7.4984   7.6173
     7.6275   7.6557   7.7734   7.8686   7.9100   7.9143   7.9241   7.9486
     8.0161   8.0804   8.2152   8.3072   8.3351   8.4081   8.4339   8.4953
     8.5175   8.5325   8.5422   8.5482   8.6244   8.6339   8.7444   8.7947
     8.8071   8.8465   8.8690   8.9244   8.9404   8.9734   9.0086   9.0579
     9.0970   9.1130   9.1145   9.1307   9.2187   9.2387   9.2721   9.2891
     9.3416   9.3599   9.3680   9.3968   9.4256   9.4471   9.4697   9.6211
     9.7816   9.8406   9.8769   9.9600   9.9856  10.0155  10.0385  10.0668
    10.0881  10.1399  10.1537  10.3076

          k = 0.0000-0.2165 0.0000 (256176 PWs)   bands (ev):

   -15.7740 -15.6798 -14.9950 -14.9693 -13.8392 -13.7943 -13.7216 -13.7194
   -13.5364 -13.5127 -13.0730 -13.0373 -13.0340 -13.0309 -11.6995 -11.6453
   -11.6400 -11.6375 -11.4490 -11.4239 -10.9918  -9.7562  -9.7543  -9.7394
    -9.7348  -8.5177  -8.4866  -8.3828  -8.3726  -8.3133  -8.3055  -7.5164
    -7.5150  -7.5096  -7.4961  -6.3439  -6.3422  -6.3092  -6.3031  -6.1885
    -6.1819  -6.1810  -6.1668  -5.5939  -5.5524  -5.3870  -5.3807  -4.6463
    -4.5597  -4.5455  -4.5378  -4.5207  -4.5095  -4.4936  -4.4406  -4.3997
    -4.2312  -4.0826  -3.9812  -3.9765  -3.9669  -3.9642  -3.8026  -3.4941
    -3.4076  -3.3975  -3.0137  -2.9930  -2.9765  -2.9737  -2.9533  -2.8302
    -2.8191  -2.7307  -2.7252  -2.7125  -2.6099  -2.6062  -2.4469  -2.4358
    -2.4049  -2.3980  -2.2825  -2.2788  -2.2734  -2.2651  -2.2540  -2.2473
    -2.2360  -2.2203  -2.1574  -2.1544  -2.1105  -2.1078  -2.1066  -2.0905
    -1.9814  -1.9634  -1.9550  -1.9465  -1.8592  -1.8573  -1.8118  -1.7997
    -1.7995  -1.7960  -1.6738  -1.6715  -1.6664  -1.6659  -1.5891  -1.5772
    -1.5528  -1.5363  -1.5330  -1.4770  -1.4707  -1.4574  -1.4467  -1.4445
    -1.4249  -1.4226  -1.4212  -1.3940  -1.3642  -1.3533  -1.3483  -1.3384
    -1.3342  -1.3243  -1.2787  -1.2119  -1.1762  -1.1707  -1.1699  -1.1162
    -1.0570  -1.0442  -1.0256  -1.0162  -1.0099  -1.0009  -0.9862  -0.9805
    -0.9781  -0.9734  -0.9704  -0.9543  -0.9513  -0.9499  -0.9395  -0.9229
    -0.9202  -0.9022  -0.8898  -0.8894  -0.8856  -0.8634  -0.8625  -0.8527
    -0.7967  -0.7855  -0.7838  -0.7811  -0.7785  -0.7650  -0.7498  -0.7462
    -0.7450  -0.7412  -0.7385  -0.7196  -0.7152  -0.7051  -0.6972  -0.6756
    -0.6653  -0.6593  -0.6571  -0.6551  -0.6398  -0.6395  -0.6155  -0.6137
    -0.6002  -0.5985  -0.5941  -0.5909  -0.5887  -0.5886  -0.5868  -0.5735
    -0.5358  -0.5181  -0.5136  -0.5101  -0.5075  -0.4970  -0.4926  -0.4687
    -0.4657  -0.4614  -0.4533  -0.4454  -0.4383  -0.4334  -0.4320  -0.4137
    -0.3820  -0.3704  -0.3389  -0.3341  -0.3288  -0.3281  -0.3081  -0.3079
    -0.3070  -0.2977  -0.2973  -0.2962  -0.2590  -0.2476  -0.2351  -0.2228
    -0.2210  -0.2132  -0.2093  -0.2065  -0.1988  -0.1908  -0.1826  -0.1823
    -0.1723  -0.1631  -0.1496  -0.1453  -0.1416  -0.1377  -0.1311  -0.1285
    -0.1264  -0.1238  -0.0966  -0.0881  -0.0769  -0.0704  -0.0612  -0.0452
    -0.0319  -0.0275  -0.0211  -0.0076   0.0072   0.0077   0.0128   0.0139
     0.0163   0.0249   0.0302   0.0335   0.0542   0.0559   0.0606   0.0610
     0.0692   0.0714   0.0820   0.0842   0.0883   0.0921   0.0941   0.0980
     0.0995   0.1018   0.1052   0.1088   0.1153   0.1289   0.1390   0.1542
     0.1615   0.1683   0.1759   0.1790   0.1874   0.1918   0.2056   0.2174
     0.2198   0.2256   0.2312   0.2320   0.2346   0.2383   0.2420   0.2432
     0.2487   0.2511   0.2564   0.2578   0.2713   0.2743   0.2876   0.2972
     0.3000   0.3036   0.3158   0.3201   0.3252   0.3282   0.3341   0.3376
     0.3384   0.3414   0.3550   0.3613   0.3625   0.3686   0.3770   0.3907
     0.3928   0.3975   0.4005   0.4106   0.4137   0.4201   0.4261   0.4301
     0.4415   0.4543   0.4554   0.4600   0.4645   0.4665   0.4697   0.4725
     0.4792   0.5100   0.5108   0.5204   0.5240   0.5277   0.5293   0.5364
     0.5383   0.5500   0.5689   0.5712   0.5802   0.5805   0.6075   0.6144
     0.6270   0.6386   0.6453   0.6503   0.6768   0.6958   0.7004   0.7117
     0.7147   0.7196   0.7261   0.7323   0.7375   0.7464   0.7494   0.7513
     0.7578   0.7607   0.7616   0.7708   0.7793   0.7839   0.7861   0.7895
     0.7978   0.7996   0.8050   0.8092   0.8163   0.8194   0.8216   0.8263
     0.8306   0.8319   0.8348   0.8426   0.8434   0.8478   0.8481   0.8527
     0.8562   0.8568   0.8574   0.8644   0.8668   0.8717   0.8775   0.8809
     0.8868   0.8878   0.8976   0.9004   0.9044   0.9069   0.9149   0.9164
     0.9252   0.9297   0.9309   0.9316   0.9395   0.9459   0.9521   0.9550
     0.9658   0.9755   0.9777   0.9785   0.9810   0.9901   0.9904   0.9925
     0.9982   1.0011   1.0034   1.0042   1.0048   1.0161   1.0248   1.0258
     1.0354   1.0370   1.0499   1.0532   1.0579   1.0588   1.0683   1.0690
     1.0755   1.0892   1.0965   1.0992   1.1047   1.1060   1.1151   1.1154
     1.1394   1.1483   1.1821   1.1837   1.1917   1.1939   1.2075   1.2141
     1.2160   1.2185   1.2226   1.2250   1.2335   1.2359   1.2383   1.2406
     1.2448   1.2466   1.2496   1.2551   1.2563   1.2578   1.2658   1.2765
     1.2769   1.2780   1.2784   1.2824   1.2906   1.2923   1.2945   1.2948
     1.2971   1.3001   1.3009   1.3042   1.3053   1.3056   1.3061   1.3103
     1.3123   1.3156   1.3278   1.3353   1.3408   1.3411   1.3494   1.3539
     1.3564   1.3575   1.3591   1.3603   1.3665   1.3680   1.3721   1.3840
     1.4012   1.4022   1.4074   1.4121   1.4309   1.4410   1.4444   1.4518
     1.4608   1.4755   1.4847   1.4866   1.4936   1.4979   1.5019   1.5032
     1.5067   1.5092   1.5099   1.5137   1.5158   1.5165   1.5186   1.5202
     1.5219   1.5300   1.5327   1.5369   1.5384   1.5404   1.5409   1.5448
     1.5476   1.5552   1.5616   1.5636   1.5648   1.5686   1.5751   1.5781
     1.5788   1.5929   1.5961   1.5972   1.6004   1.6055   1.6066   1.6073
     1.6125   1.6212   1.6227   1.6254   1.6314   1.6351   1.6397   1.6435
     1.6476   1.6512   1.6572   1.6575   1.6623   1.6803   1.6819   1.6957
     1.6983   1.6992   1.7007   1.7018   1.7026   1.7056   1.7081   1.7095
     1.7218   1.7291   1.7323   1.7332   1.7443   1.7452   1.7535   1.7572
     1.7602   1.7649   1.7655   1.7686   1.7697   1.7709   1.7730   1.7807
     1.7884   1.7980   1.8020   1.8042   1.8080   1.8086   1.8156   1.8231
     1.8275   1.8287   1.8328   1.8407   1.8456   1.8470   1.8525   1.8799
     1.8841   1.8879   1.8916   1.9058   1.9634   1.9679   1.9720   2.0376
     2.0721   2.0762   2.0786   2.0796   2.0947   2.1075   2.1095   2.1331
     2.1408   2.1477   2.1605   2.1658   2.1879   2.2344   2.6119   2.6537
     2.6732   2.6771   2.6800   2.6836   2.7157   2.7368   2.7879   2.8117
     2.8181   2.8386   2.8570   2.8798   2.8829   2.9203   2.9830   3.0061
     3.0169   3.0209   3.0844   3.1867   3.2303   3.2316   3.4216   3.4377
     3.4698   3.4698   3.4892   3.6971   3.9832   4.0084   4.2713   4.2794
     4.3450   4.3753   4.5249   4.5513   4.5619   4.5975   4.6239   4.6487
     4.6650   4.6671   4.6788   4.7218   4.7386   4.7702   4.8887   5.1778
     5.3803   5.4048   5.5652   5.5714   5.6357   5.6517   5.6530   5.6977
     5.8269   5.9309   5.9524   6.0477   6.3719   6.3900   6.4107   6.4205
     6.4485   6.4919   6.5134   6.5317   6.5780   6.6383   6.7151   6.8398
     6.9224   6.9721   6.9882   7.0226   7.0658   7.2471   7.3133   7.3174
     7.3245   7.3396   7.3629   7.3682   7.4279   7.4711   7.4991   7.5109
     7.5338   7.5512   7.5587   7.6086   7.6307   8.0861   8.1447   8.1587
     8.1780   8.2276   8.2947   8.3098   8.3878   8.4147   8.4316   8.4414
     8.4828   8.4955   8.5315   8.5990   8.6502   8.6681   8.8533   8.8981
     8.9405   8.9570   9.0146   9.0448   9.0500   9.0550   9.0663   9.0735
     9.1401   9.1725   9.1882   9.1970   9.2450   9.2801   9.2977   9.4069
     9.5038   9.5352   9.5513   9.5816   9.6247   9.6456   9.6597   9.6909
     9.7120   9.7241   9.7944   9.8039   9.8403   9.8576   9.9716  10.0037
    10.0841  10.1049  10.1251  10.1435

          k = 0.2500 0.0000 0.0000 (256240 PWs)   bands (ev):

   -15.7046 -15.3296 -15.3070 -14.7183 -14.3495 -14.3261 -14.2287 -14.2069
   -13.2683 -13.2436 -12.7938 -12.4556 -12.4242 -12.4143 -12.4128 -11.5318
   -11.5053 -11.4155 -11.3910 -11.0061 -10.4252 -10.1638 -10.1004 -10.0541
    -9.5882  -9.4234  -9.1204  -9.1159  -8.7327  -8.4730  -8.4629  -7.9242
    -6.9276  -6.9212  -6.9097  -6.9042  -6.8186  -6.7935  -6.3202  -6.0461
    -5.5308  -5.4984  -5.3219  -5.3093  -5.2589  -5.2520  -5.0131  -4.9983
    -4.5709  -4.5609  -4.5355  -4.4303  -4.2514  -4.1503  -4.1262  -4.0480
    -3.8482  -3.8431  -3.7885  -3.7589  -3.7327  -3.7112  -3.6918  -3.6658
    -3.6155  -3.5177  -3.5150  -3.3487  -3.2895  -3.1154  -3.0500  -3.0114
    -2.9966  -2.9221  -2.9065  -2.8959  -2.8938  -2.8155  -2.8023  -2.7665
    -2.7525  -2.6917  -2.5763  -2.5635  -2.5362  -2.5212  -2.4928  -2.4911
    -2.3753  -2.2979  -2.2232  -2.1615  -2.0915  -2.0637  -1.9891  -1.9864
    -1.8648  -1.8524  -1.8103  -1.7977  -1.7896  -1.7879  -1.7604  -1.7064
    -1.6291  -1.5857  -1.5301  -1.5106  -1.5056  -1.5052  -1.4936  -1.4915
    -1.4764  -1.4735  -1.4665  -1.4461  -1.4281  -1.4072  -1.3973  -1.3818
    -1.3571  -1.3276  -1.3202  -1.3060  -1.2772  -1.2636  -1.2619  -1.2572
    -1.2537  -1.2431  -1.2240  -1.2082  -1.1997  -1.1933  -1.1928  -1.1660
    -1.0741  -1.0555  -1.0531  -1.0136  -1.0105  -1.0029  -0.9956  -0.9846
    -0.9613  -0.9365  -0.9296  -0.9252  -0.9151  -0.9134  -0.9106  -0.8879
    -0.8831  -0.8791  -0.8755  -0.8728  -0.8707  -0.8558  -0.8440  -0.8334
    -0.8236  -0.8061  -0.7980  -0.7947  -0.7911  -0.7897  -0.7751  -0.7611
    -0.7463  -0.7264  -0.7160  -0.7142  -0.7101  -0.7092  -0.6973  -0.6962
    -0.6882  -0.6828  -0.6786  -0.6776  -0.6721  -0.6614  -0.6600  -0.6567
    -0.6550  -0.6467  -0.6395  -0.6298  -0.6173  -0.6105  -0.6006  -0.5581
    -0.5545  -0.5316  -0.5256  -0.5136  -0.5065  -0.5017  -0.4939  -0.4791
    -0.4621  -0.4608  -0.4561  -0.4449  -0.4388  -0.4332  -0.4310  -0.4071
    -0.4006  -0.3986  -0.3926  -0.3472  -0.2961  -0.2880  -0.2724  -0.2691
    -0.2643  -0.2628  -0.2550  -0.2480  -0.2422  -0.2368  -0.2238  -0.2216
    -0.2104  -0.2070  -0.2029  -0.1893  -0.1865  -0.1691  -0.1665  -0.1626
    -0.1614  -0.1587  -0.1550  -0.1517  -0.1510  -0.1469  -0.1213  -0.1111
    -0.1040  -0.1000  -0.0928  -0.0894  -0.0842  -0.0806  -0.0790  -0.0745
    -0.0541  -0.0513  -0.0478  -0.0359  -0.0310  -0.0184  -0.0127  -0.0077
     0.0013   0.0064   0.0112   0.0180   0.0205   0.0255   0.0358   0.0435
     0.0488   0.0544   0.0556   0.0652   0.0718   0.0753   0.0805   0.1056
     0.1127   0.1138   0.1163   0.1209   0.1291   0.1344   0.1366   0.1463
     0.1599   0.1611   0.1653   0.1729   0.1818   0.1856   0.1989   0.2068
     0.2076   0.2141   0.2273   0.2328   0.2406   0.2434   0.2658   0.2679
     0.2736   0.2859   0.2888   0.2990   0.3023   0.3032   0.3057   0.3086
     0.3131   0.3192   0.3227   0.3246   0.3308   0.3351   0.3398   0.3427
     0.3507   0.3520   0.3580   0.3597   0.3633   0.3707   0.3733   0.3826
     0.3834   0.3902   0.3949   0.4066   0.4129   0.4235   0.4265   0.4340
     0.4367   0.4423   0.4442   0.4596   0.4642   0.4681   0.4693   0.4855
     0.4885   0.5000   0.5179   0.5434   0.5627   0.5640   0.5768   0.5795
     0.5896   0.5916   0.5988   0.6030   0.6045   0.6094   0.6108   0.6150
     0.6181   0.6204   0.6210   0.6241   0.6249   0.6392   0.6418   0.6471
     0.6508   0.6518   0.6568   0.6670   0.6747   0.6895   0.6931   0.7018
     0.7093   0.7221   0.7326   0.7390   0.7567   0.7580   0.7618   0.7660
     0.7701   0.7739   0.7868   0.7884   0.7936   0.8018   0.8070   0.8126
     0.8153   0.8175   0.8205   0.8237   0.8243   0.8262   0.8316   0.8360
     0.8374   0.8425   0.8543   0.8633   0.8664   0.8685   0.8766   0.8882
     0.8931   0.8951   0.8975   0.9000   0.9034   0.9132   0.9147   0.9202
     0.9272   0.9316   0.9347   0.9410   0.9476   0.9498   0.9519   0.9536
     0.9616   0.9674   0.9686   0.9726   0.9748   0.9791   0.9816   0.9858
     0.9891   1.0079   1.0111   1.0175   1.0270   1.0373   1.0472   1.0558
     1.0569   1.0634   1.0748   1.0776   1.0822   1.0834   1.0906   1.0939
     1.0979   1.0991   1.1032   1.1057   1.1075   1.1335   1.1394   1.1456
     1.1500   1.1582   1.1633   1.1649   1.1681   1.1764   1.1804   1.1838
     1.1936   1.1973   1.2014   1.2026   1.2060   1.2112   1.2182   1.2213
     1.2245   1.2258   1.2331   1.2395   1.2431   1.2544   1.2619   1.2658
     1.2787   1.2840   1.2918   1.2953   1.3006   1.3090   1.3151   1.3167
     1.3190   1.3250   1.3292   1.3297   1.3322   1.3346   1.3368   1.3428
     1.3497   1.3517   1.3538   1.3569   1.3642   1.3665   1.3714   1.3728
     1.3739   1.3824   1.3829   1.3874   1.3933   1.3965   1.4013   1.4027
     1.4057   1.4098   1.4167   1.4199   1.4207   1.4265   1.4315   1.4342
     1.4396   1.4412   1.4433   1.4441   1.4486   1.4509   1.4526   1.4640
     1.4719   1.4801   1.4841   1.4932   1.4992   1.5014   1.5041   1.5049
     1.5111   1.5131   1.5243   1.5362   1.5384   1.5415   1.5560   1.5568
     1.5619   1.5698   1.5704   1.5750   1.5779   1.5789   1.5821   1.5891
     1.5898   1.5950   1.5974   1.6024   1.6069   1.6159   1.6161   1.6193
     1.6210   1.6231   1.6248   1.6263   1.6288   1.6313   1.6321   1.6361
     1.6432   1.6438   1.6492   1.6572   1.6602   1.6671   1.6702   1.6727
     1.6876   1.6892   1.6930   1.6979   1.7010   1.7094   1.7194   1.7245
     1.7269   1.7319   1.7367   1.7376   1.7396   1.7414   1.7443   1.7530
     1.7534   1.7555   1.7573   1.7585   1.7600   1.7655   1.7663   1.7683
     1.7734   1.7757   1.7867   1.7907   1.7936   1.7967   1.7982   1.8037
     1.8071   1.8113   1.8157   1.8171   1.8189   1.8208   1.8348   1.8372
     1.8404   1.8676   1.8745   1.8811   1.8953   1.9013   1.9261   1.9385
     1.9408   1.9436   1.9537   1.9643   1.9798   2.0248   2.0588   2.0756
     2.0774   2.1287   2.1478   2.1519   2.3213   2.3343   2.3425   2.3445
     2.3770   2.3820   2.4023   2.4708   2.4784   2.6361   2.6957   2.8540
     2.8580   2.8776   2.9500   3.2567   3.2845   3.2850   3.4635   3.5010
     3.5089   3.5146   3.5252   3.5258   3.6179   3.7357   3.7894   3.8326
     3.9248   3.9394   3.9688   3.9937   3.9993   4.0333   4.0824   4.1368
     4.1405   4.2011   4.2408   4.3068   4.5438   4.5625   4.5937   4.6341
     4.8050   4.9383   5.0728   5.0844   5.1307   5.1509   5.2602   5.2810
     5.4936   5.4969   5.5364   5.5923   5.6406   5.6684   5.6919   5.6976
     5.7710   5.7848   5.8014   5.8500   5.9135   5.9198   5.9743   5.9966
     6.0629   6.2082   6.2901   6.3032   6.3367   6.3790   6.4270   6.4832
     6.8371   6.8826   6.9977   7.0391   7.0425   7.1350   7.1890   7.2624
     7.2815   7.3054   7.3190   7.3395   7.3492   7.3668   7.3797   7.3868
     7.4015   7.4155   7.4873   7.4992   7.5602   7.6437   7.7588   7.7822
     7.8320   7.8834   8.0052   8.0384   8.0707   8.1754   8.1899   8.2311
     8.2808   8.2997   8.3354   8.3408   8.4313   8.4855   8.5840   8.6031
     8.7067   8.7075   8.7408   8.7723   8.8189   8.8515   8.8809   8.9268
     9.0192   9.0984   9.1823   9.2110   9.2821   9.2901   9.3766   9.3929
     9.4076   9.4164   9.4442   9.4824   9.4946   9.4984   9.5265   9.5384
     9.5509   9.5656   9.5933   9.6228   9.7119   9.7579   9.7812   9.9399
     9.9869  10.0391  10.0959  10.1010

          k = 0.2500-0.2165 0.0000 (256316 PWs)   bands (ev):

   -15.6502 -15.5559 -14.8738 -14.8466 -14.6627 -14.5709 -13.8970 -13.8723
   -13.4186 -13.3932 -12.7449 -12.6468 -12.4710 -12.4470 -12.0044 -11.9793
   -11.3538 -11.3122 -11.0215 -10.6932 -10.6862 -10.4359 -10.4337 -10.0966
   -10.0104  -9.0027  -8.9929  -8.4950  -8.4720  -8.4243  -8.3899  -7.8786
    -7.8322  -7.7548  -7.7440  -6.0540  -6.0341  -6.0165  -6.0061  -5.8989
    -5.8301  -5.6737  -5.6389  -5.4187  -5.3743  -5.3464  -5.3407  -4.5879
    -4.5446  -4.5243  -4.4040  -4.3864  -4.3433  -4.2780  -4.2084  -4.2003
    -4.1088  -4.0624  -4.0164  -4.0011  -3.6698  -3.5927  -3.5493  -3.5329
    -3.5246  -3.3993  -3.2831  -3.2808  -3.2392  -3.1473  -3.1399  -3.1270
    -3.0051  -2.9773  -2.9743  -2.9195  -2.8043  -2.7359  -2.6749  -2.6317
    -2.5992  -2.5950  -2.5922  -2.5842  -2.5254  -2.4552  -2.4463  -2.3665
    -2.3536  -2.2897  -2.2760  -2.2287  -2.0239  -1.9929  -1.9885  -1.9734
    -1.9143  -1.8879  -1.8737  -1.8724  -1.8205  -1.8167  -1.7035  -1.7023
    -1.6999  -1.6848  -1.6620  -1.6077  -1.5382  -1.5187  -1.5184  -1.5077
    -1.4621  -1.4319  -1.4177  -1.3926  -1.3917  -1.3889  -1.3864  -1.3761
    -1.3740  -1.3665  -1.3584  -1.3567  -1.3493  -1.3272  -1.3205  -1.3139
    -1.2952  -1.2566  -1.1629  -1.1489  -1.1473  -1.1444  -1.1378  -1.1156
    -1.0735  -1.0386  -1.0176  -1.0066  -0.9817  -0.9731  -0.9667  -0.9662
    -0.9613  -0.9570  -0.9431  -0.9379  -0.9318  -0.9301  -0.9259  -0.9218
    -0.9128  -0.9024  -0.8939  -0.8906  -0.8787  -0.8706  -0.8682  -0.8651
    -0.8490  -0.8464  -0.8356  -0.8230  -0.8105  -0.8022  -0.8004  -0.7990
    -0.7799  -0.7658  -0.7381  -0.7348  -0.7211  -0.7198  -0.6988  -0.6933
    -0.6822  -0.6778  -0.6657  -0.6625  -0.6488  -0.6453  -0.6403  -0.6393
    -0.6355  -0.6238  -0.6229  -0.6094  -0.6057  -0.5956  -0.5872  -0.5830
    -0.5785  -0.5551  -0.5541  -0.5399  -0.4906  -0.4709  -0.4535  -0.4494
    -0.4406  -0.4361  -0.4086  -0.4046  -0.3981  -0.3906  -0.3873  -0.3847
    -0.3832  -0.3638  -0.3590  -0.3536  -0.3248  -0.3194  -0.3029  -0.2977
    -0.2790  -0.2738  -0.2617  -0.2611  -0.2525  -0.2364  -0.2276  -0.2170
    -0.2131  -0.2042  -0.1992  -0.1955  -0.1849  -0.1816  -0.1794  -0.1755
    -0.1675  -0.1650  -0.1577  -0.1303  -0.1207  -0.1162  -0.1067  -0.1050
    -0.0986  -0.0940  -0.0894  -0.0805  -0.0666  -0.0653  -0.0622  -0.0610
    -0.0572  -0.0490  -0.0441  -0.0409  -0.0405  -0.0309  -0.0244  -0.0172
    -0.0073  -0.0033  -0.0007   0.0054   0.0139   0.0252   0.0371   0.0403
     0.0459   0.0502   0.0664   0.0697   0.0747   0.0758   0.0930   0.1025
     0.1065   0.1122   0.1283   0.1307   0.1518   0.1550   0.1604   0.1669
     0.1786   0.1884   0.1929   0.2006   0.2051   0.2073   0.2124   0.2261
     0.2292   0.2364   0.2379   0.2478   0.2517   0.2531   0.2579   0.2622
     0.2701   0.2743   0.2843   0.2861   0.2958   0.2970   0.2985   0.3054
     0.3076   0.3109   0.3141   0.3176   0.3211   0.3218   0.3260   0.3289
     0.3314   0.3336   0.3401   0.3488   0.3573   0.3585   0.3744   0.3805
     0.3869   0.3907   0.3942   0.3991   0.4072   0.4145   0.4238   0.4346
     0.4441   0.4518   0.4642   0.4656   0.4666   0.4724   0.4756   0.4809
     0.4849   0.4875   0.4960   0.4975   0.5102   0.5192   0.5330   0.5412
     0.5692   0.5738   0.5897   0.5935   0.6033   0.6070   0.6106   0.6178
     0.6241   0.6276   0.6280   0.6333   0.6341   0.6422   0.6427   0.6502
     0.6512   0.6572   0.6607   0.6623   0.6689   0.6773   0.6902   0.6933
     0.7007   0.7080   0.7177   0.7199   0.7324   0.7364   0.7394   0.7448
     0.7599   0.7651   0.7781   0.7846   0.7948   0.7984   0.8049   0.8068
     0.8125   0.8154   0.8174   0.8232   0.8264   0.8315   0.8458   0.8504
     0.8540   0.8605   0.8839   0.8875   0.8938   0.8968   0.9038   0.9057
     0.9083   0.9208   0.9224   0.9241   0.9297   0.9319   0.9352   0.9367
     0.9500   0.9530   0.9580   0.9597   0.9651   0.9700   0.9720   0.9750
     0.9793   0.9843   0.9879   0.9884   0.9900   0.9981   0.9996   1.0021
     1.0080   1.0100   1.0143   1.0154   1.0178   1.0212   1.0265   1.0318
     1.0371   1.0410   1.0492   1.0544   1.0586   1.0706   1.0741   1.0766
     1.0796   1.0826   1.1110   1.1130   1.1234   1.1300   1.1330   1.1401
     1.1502   1.1529   1.1593   1.1600   1.1635   1.1645   1.1686   1.1719
     1.1745   1.1771   1.1806   1.1845   1.1893   1.1921   1.1989   1.2078
     1.2160   1.2270   1.2297   1.2314   1.2338   1.2389   1.2439   1.2482
     1.2493   1.2519   1.2629   1.2705   1.2760   1.2817   1.2851   1.2882
     1.2943   1.3019   1.3151   1.3201   1.3255   1.3392   1.3541   1.3579
     1.3690   1.3719   1.3813   1.3853   1.3873   1.3935   1.3990   1.4002
     1.4038   1.4085   1.4108   1.4133   1.4162   1.4194   1.4206   1.4217
     1.4255   1.4299   1.4355   1.4368   1.4409   1.4485   1.4499   1.4586
     1.4638   1.4657   1.4710   1.4733   1.4758   1.4765   1.4831   1.4873
     1.4904   1.4961   1.4976   1.5000   1.5037   1.5069   1.5077   1.5109
     1.5145   1.5188   1.5224   1.5253   1.5301   1.5338   1.5406   1.5414
     1.5432   1.5447   1.5466   1.5541   1.5577   1.5647   1.5683   1.5747
     1.5831   1.5866   1.5875   1.5894   1.5928   1.5985   1.6022   1.6100
     1.6178   1.6251   1.6278   1.6287   1.6374   1.6441   1.6463   1.6532
     1.6552   1.6605   1.6635   1.6682   1.6691   1.6714   1.6787   1.6844
     1.6851   1.6880   1.6888   1.6933   1.7029   1.7036   1.7123   1.7135
     1.7162   1.7177   1.7238   1.7280   1.7331   1.7344   1.7383   1.7407
     1.7452   1.7497   1.7510   1.7543   1.7567   1.7597   1.7613   1.7646
     1.7694   1.7748   1.7767   1.7794   1.7804   1.7846   1.7965   1.7972
     1.7985   1.8149   1.8193   1.8203   1.8228   1.8416   1.8479   1.8492
     1.8663   1.8685   1.8693   1.8789   1.8909   1.8945   1.9461   1.9539
     2.0025   2.0070   2.0187   2.0361   2.0415   2.0435   2.0571   2.0625
     2.0686   2.0703   2.0839   2.0959   2.1078   2.2263   2.2998   2.3632
     2.4337   2.4355   2.4631   2.4750   2.5757   2.6341   2.8874   2.8895
     3.0262   3.0284   3.0451   3.0598   3.0820   3.0977   3.1390   3.1575
     3.2776   3.2944   3.2992   3.4254   3.7177   3.7243   3.7879   3.8145
     3.8722   4.0179   4.1290   4.1399   4.1528   4.2222   4.2781   4.3187
     4.3836   4.3925   4.4629   4.4679   4.6642   4.6779   4.7822   4.7974
     4.9237   4.9435   4.9641   4.9889   5.0003   5.0180   5.0464   5.1790
     5.2187   5.3245   5.3371   5.4129   5.4589   5.4831   5.5943   5.6269
     5.6413   5.7494   5.7798   5.8504   5.8822   5.9873   6.0275   6.0445
     6.0476   6.1675   6.1802   6.3009   6.6183   6.6336   6.6442   6.6871
     6.8311   6.8704   6.8970   6.9445   7.0106   7.0252   7.0525   7.1278
     7.1892   7.2698   7.2720   7.4260   7.4858   7.4911   7.5115   7.5924
     7.6102   7.6289   7.6594   7.6722   7.6786   7.6845   7.6865   7.7756
     7.7959   7.8725   7.9060   7.9830   8.0038   8.0221   8.0421   8.2841
     8.3184   8.3309   8.4116   8.4557   8.4752   8.5863   8.6598   8.6865
     8.7592   8.7862   8.8162   8.8511   8.9045   8.9306   8.9499   8.9885
     9.0048   9.0168   9.0226   9.0905   9.1311   9.1936   9.2218   9.2265
     9.2585   9.3333   9.3588   9.3604   9.4255   9.4434   9.4597   9.4797
     9.5406   9.5613   9.5868   9.6268   9.6799   9.6880   9.6978   9.7941
     9.8338   9.9031   9.9510  10.0430

          k =-0.5000 0.0000 0.0000 (256496 PWs)   bands (ev):

   -15.3490 -15.3184 -14.9745 -14.9428 -14.9381 -14.9372 -13.8872 -13.8488
   -13.8447 -13.8429 -12.1193 -12.0771 -12.0761 -12.0677 -11.5433 -11.5125
   -11.2296 -11.1768 -11.1649 -11.1569 -10.9724 -10.5277 -10.5250 -10.1197
   -10.1036  -9.5205  -9.5154  -9.1282  -9.1251  -8.2962  -8.2877  -8.2814
    -8.2807  -6.8069  -6.8013  -6.7494  -6.7355  -6.7298  -6.7271  -5.2795
    -5.2785  -5.0142  -5.0045  -4.6070  -4.5640  -4.5592  -4.5204  -4.5054
    -4.4967  -4.3932  -4.2653  -4.1454  -4.1442  -4.1295  -4.1236  -4.0828
    -4.0664  -4.0596  -4.0543  -4.0442  -3.8560  -3.8329  -3.7722  -3.7654
    -3.7505  -3.7495  -3.4572  -3.4185  -3.4066  -3.3678  -3.3320  -3.2065
    -3.1139  -3.1096  -3.0985  -3.0937  -2.9377  -2.9279  -2.9101  -2.7770
    -2.7676  -2.7546  -2.7461  -2.7409  -2.7374  -2.4755  -2.3652  -2.3278
    -2.3235  -2.3094  -2.2915  -2.2455  -2.1695  -2.1614  -2.1568  -2.1531
    -2.0634  -2.0329  -2.0266  -1.9009  -1.6816  -1.6780  -1.6438  -1.5932
    -1.5830  -1.5818  -1.5785  -1.5692  -1.5669  -1.5113  -1.4797  -1.4761
    -1.4584  -1.3572  -1.3488  -1.3337  -1.3321  -1.3121  -1.3120  -1.2977
    -1.2902  -1.2825  -1.2273  -1.1939  -1.1909  -1.1650  -1.1171  -1.1151
    -1.1099  -1.1071  -1.1017  -1.1004  -1.0687  -1.0563  -1.0546  -1.0482
    -1.0458  -1.0414  -1.0399  -1.0361  -1.0293  -1.0180  -1.0069  -0.9981
    -0.9952  -0.9925  -0.9847  -0.9707  -0.9613  -0.9562  -0.9541  -0.9267
    -0.9091  -0.9027  -0.8961  -0.8800  -0.8755  -0.8734  -0.8656  -0.8596
    -0.8577  -0.8512  -0.8454  -0.8369  -0.8338  -0.8234  -0.8120  -0.8053
    -0.8015  -0.7947  -0.7903  -0.7862  -0.7801  -0.7784  -0.7696  -0.7589
    -0.7578  -0.7499  -0.6898  -0.6861  -0.6778  -0.6749  -0.6724  -0.6714
    -0.6500  -0.6479  -0.6359  -0.6275  -0.6199  -0.6164  -0.6105  -0.6065
    -0.6028  -0.6000  -0.5928  -0.5843  -0.5706  -0.5598  -0.5093  -0.5061
    -0.5029  -0.4947  -0.4767  -0.4664  -0.4183  -0.4105  -0.4089  -0.4083
    -0.4042  -0.4030  -0.3589  -0.3527  -0.3500  -0.3452  -0.3441  -0.3382
    -0.3129  -0.3011  -0.2992  -0.2922  -0.2885  -0.2848  -0.2838  -0.2807
    -0.2799  -0.2668  -0.2656  -0.2628  -0.2469  -0.2427  -0.1546  -0.1505
    -0.1411  -0.1316  -0.1249  -0.1116  -0.1090  -0.1013  -0.1007  -0.0855
    -0.0811  -0.0802  -0.0768  -0.0638  -0.0588  -0.0570  -0.0547  -0.0509
    -0.0245  -0.0168  -0.0156  -0.0064  -0.0024  -0.0002   0.0046   0.0114
     0.0142   0.0168   0.0188   0.0225   0.0240   0.0246   0.0299   0.0333
     0.0584   0.0644   0.0729   0.0750   0.1001   0.1015   0.1031   0.1144
     0.1537   0.1614   0.1668   0.1699   0.1774   0.1855   0.1940   0.1969
     0.1977   0.2115   0.2174   0.2341   0.2471   0.2495   0.2626   0.2656
     0.2709   0.2778   0.2854   0.2881   0.2932   0.2950   0.2977   0.2982
     0.3005   0.3060   0.3087   0.3094   0.3174   0.3258   0.3376   0.3531
     0.3649   0.3674   0.3739   0.3756   0.3854   0.3890   0.3925   0.4000
     0.4002   0.4085   0.4108   0.4141   0.4147   0.4166   0.4175   0.4186
     0.4191   0.4237   0.4254   0.4271   0.4302   0.4309   0.4347   0.4423
     0.4439   0.4452   0.4461   0.4531   0.4605   0.4629   0.4667   0.4694
     0.4797   0.4818   0.4895   0.5017   0.5093   0.5116   0.5204   0.5372
     0.5670   0.5791   0.5921   0.6020   0.6155   0.6182   0.6240   0.6313
     0.6348   0.6378   0.6475   0.6491   0.6543   0.6606   0.6658   0.6680
     0.6724   0.6745   0.6775   0.6828   0.6838   0.6866   0.6916   0.6941
     0.6964   0.6974   0.7084   0.7107   0.7142   0.7221   0.7266   0.7315
     0.7396   0.7656   0.7891   0.8011   0.8029   0.8098   0.8142   0.8199
     0.8323   0.8352   0.8420   0.8467   0.8483   0.8487   0.8540   0.8584
     0.8592   0.8607   0.8613   0.8635   0.8644   0.8696   0.8721   0.8752
     0.8809   0.8855   0.8877   0.8954   0.8980   0.9012   0.9170   0.9249
     0.9283   0.9311   0.9404   0.9480   0.9500   0.9536   0.9545   0.9557
     0.9579   0.9627   0.9649   0.9706   0.9743   0.9762   0.9788   0.9801
     0.9809   0.9835   0.9921   1.0017   1.0169   1.0213   1.0273   1.0312
     1.0359   1.0430   1.0442   1.0476   1.0528   1.0562   1.0645   1.0686
     1.0790   1.0809   1.0860   1.0883   1.1036   1.1079   1.1185   1.1295
     1.1353   1.1421   1.1469   1.1489   1.1494   1.1508   1.1514   1.1518
     1.1556   1.1629   1.1642   1.1673   1.1733   1.1793   1.1827   1.1829
     1.1920   1.1978   1.2047   1.2090   1.2118   1.2138   1.2216   1.2251
     1.2268   1.2294   1.2425   1.2436   1.2470   1.2481   1.2499   1.2622
     1.2943   1.3016   1.3148   1.3173   1.3272   1.3325   1.3342   1.3366
     1.3407   1.3443   1.3469   1.3593   1.3699   1.3747   1.3807   1.3852
     1.3957   1.4010   1.4062   1.4113   1.4154   1.4173   1.4214   1.4247
     1.4264   1.4290   1.4320   1.4337   1.4350   1.4428   1.4484   1.4512
     1.4556   1.4590   1.4599   1.4628   1.4664   1.4674   1.4688   1.4727
     1.4749   1.4776   1.4797   1.4829   1.4870   1.4937   1.5163   1.5180
     1.5194   1.5220   1.5335   1.5379   1.5425   1.5462   1.5482   1.5502
     1.5530   1.5541   1.5548   1.5553   1.5566   1.5600   1.5620   1.5647
     1.5693   1.5732   1.6034   1.6061   1.6076   1.6164   1.6188   1.6194
     1.6200   1.6222   1.6230   1.6247   1.6283   1.6303   1.6363   1.6375
     1.6397   1.6436   1.6451   1.6486   1.6516   1.6543   1.6556   1.6570
     1.6571   1.6636   1.6663   1.6703   1.6704   1.6730   1.6761   1.6770
     1.6775   1.6798   1.6994   1.7117   1.7159   1.7178   1.7215   1.7251
     1.7315   1.7327   1.7334   1.7360   1.7437   1.7473   1.7483   1.7510
     1.7531   1.7568   1.7598   1.7612   1.7624   1.7733   1.7779   1.7810
     1.7830   1.7972   1.8009   1.8028   1.8054   1.8076   1.8142   1.8197
     1.8221   1.8243   1.8293   1.8294   1.8363   1.8373   1.8735   1.8751
     1.8871   1.8891   1.8960   1.8987   1.9206   1.9264   1.9272   1.9570
     1.9580   2.0222   2.2831   2.2929   2.3286   2.3467   2.4715   2.4948
     2.5431   2.5719   2.5960   2.5998   2.6018   2.6090   2.7988   2.8304
     2.8495   3.0420   3.1284   3.1347   3.1551   3.2235   3.4761   3.4920
     3.4949   3.5083   3.7468   3.7956   3.9286   3.9634   4.0023   4.0533
     4.1728   4.1796   4.1953   4.2558   4.2673   4.3043   4.3705   4.3853
     4.4441   4.4972   4.7950   4.8271   4.8448   4.9985   5.0628   5.0900
     5.1055   5.1145   5.1388   5.1584   5.2718   5.2892   5.2900   5.3072
     5.3249   5.3275   5.3402   5.3539   5.3579   5.3942   5.3993   5.4559
     5.6471   5.6640   5.6863   5.7097   5.7897   5.8372   5.8736   5.8940
     5.9223   5.9354   6.1289   6.1753   6.1947   6.2552   6.2615   6.2901
     6.3202   6.3431   6.4010   6.4573   6.4669   6.4698   6.4847   6.6911
     6.9999   7.0513   7.0731   7.1085   7.2150   7.2742   7.3261   7.3439
     7.3714   7.4865   7.6788   7.7566   7.7903   7.8219   7.8394   7.8456
     7.8533   7.9354   8.0141   8.0233   8.0468   8.0654   8.0764   8.1086
     8.1128   8.1193   8.1335   8.1389   8.1767   8.2489   8.2641   8.2952
     8.3422   8.5328   8.5399   8.5441   8.5931   8.7049   8.7079   8.9126
     9.0467   9.0577   9.0893   9.0947   9.1934   9.2138   9.2179   9.2214
     9.2276   9.2286   9.3277   9.3343   9.5378   9.5533   9.5614   9.5852
     9.6465   9.6530   9.6658   9.7565   9.7662   9.8691   9.8838   9.9345
     9.9671   9.9875  10.0132  10.0181

          k =-0.5000-0.2165 0.0000 (256328 PWs)   bands (ev):

   -15.3019 -15.2566 -15.1854 -15.1846 -14.5218 -14.4859 -14.4801 -14.4791
   -13.0815 -13.0421 -13.0364 -13.0360 -11.5230 -11.4632 -11.3786 -11.3763
   -11.1390 -10.9815 -10.9774 -10.9731 -10.9056 -10.8298 -10.7982 -10.7777
   -10.7563  -9.1160  -9.1090  -9.0815  -9.0802  -8.1651  -8.1635  -8.1366
    -8.1207  -7.3939  -7.3874  -7.3664  -7.3631  -5.3340  -5.3275  -5.3225
    -5.3145  -4.9232  -4.9024  -4.8539  -4.8464  -4.7042  -4.7019  -4.6666
    -4.6634  -4.5191  -4.5012  -4.4832  -4.3953  -4.3928  -4.2706  -4.1353
    -3.8867  -3.8848  -3.8662  -3.8526  -3.7713  -3.7374  -3.7254  -3.6750
    -3.5856  -3.5821  -3.5749  -3.5711  -3.3107  -3.2401  -3.2347  -3.0635
    -3.0614  -3.0554  -3.0444  -3.0382  -3.0246  -3.0189  -3.0051  -2.9346
    -2.9194  -2.9080  -2.8848  -2.8411  -2.4075  -2.4026  -2.3783  -2.2885
    -2.2772  -2.2737  -2.2719  -2.2703  -2.2540  -2.2522  -2.2112  -1.9401
    -1.7642  -1.7602  -1.7582  -1.7542  -1.7523  -1.7400  -1.7351  -1.7202
    -1.7168  -1.7082  -1.7030  -1.6006  -1.5204  -1.5076  -1.4892  -1.4763
    -1.4429  -1.4347  -1.3917  -1.3859  -1.2831  -1.2807  -1.2661  -1.2627
    -1.2169  -1.2015  -1.1987  -1.1925  -1.1852  -1.1614  -1.1518  -1.1474
    -1.1430  -1.1222  -1.1195  -1.1105  -1.1045  -1.0928  -1.0895  -1.0757
    -1.0737  -1.0712  -1.0681  -1.0602  -1.0554  -1.0494  -1.0461  -1.0439
    -0.9836  -0.9809  -0.9793  -0.9759  -0.9522  -0.9462  -0.9267  -0.9035
    -0.8920  -0.8912  -0.8855  -0.8772  -0.8611  -0.8565  -0.8347  -0.8322
    -0.8302  -0.8293  -0.8194  -0.8178  -0.8157  -0.8103  -0.8085  -0.8018
    -0.7995  -0.7862  -0.7824  -0.7764  -0.7664  -0.7576  -0.7543  -0.7524
    -0.7466  -0.7337  -0.7321  -0.7253  -0.7236  -0.7173  -0.7140  -0.7133
    -0.7109  -0.7074  -0.7047  -0.6313  -0.5642  -0.5576  -0.5568  -0.5527
    -0.5514  -0.5450  -0.5374  -0.5309  -0.4796  -0.4748  -0.4635  -0.4604
    -0.4534  -0.4438  -0.4427  -0.4361  -0.4343  -0.4317  -0.4287  -0.4280
    -0.4264  -0.4245  -0.4049  -0.4026  -0.3998  -0.3931  -0.3922  -0.3849
    -0.3781  -0.3604  -0.3589  -0.3525  -0.3505  -0.3399  -0.3254  -0.3183
    -0.2650  -0.2372  -0.2353  -0.2276  -0.2214  -0.2142  -0.2099  -0.1994
    -0.1853  -0.1805  -0.1678  -0.1647  -0.1356  -0.1338  -0.1311  -0.1270
    -0.1211  -0.1089  -0.1052  -0.0946  -0.0941  -0.0908  -0.0845  -0.0695
    -0.0693  -0.0493  -0.0441  -0.0411  -0.0085   0.0013   0.0034   0.0154
     0.0160   0.0274   0.0364   0.0448   0.0609   0.0649   0.0652   0.0683
     0.0697   0.0700   0.0815   0.0971   0.1213   0.1233   0.1300   0.1470
     0.1538   0.1601   0.1615   0.1640   0.1700   0.1732   0.1762   0.1799
     0.1895   0.1923   0.1987   0.2003   0.2027   0.2080   0.2141   0.2151
     0.2182   0.2203   0.2231   0.2368   0.2400   0.2681   0.2750   0.2804
     0.2920   0.2986   0.3056   0.3225   0.3377   0.3543   0.3645   0.3798
     0.3817   0.3859   0.3875   0.3944   0.3948   0.4026   0.4049   0.4084
     0.4107   0.4119   0.4141   0.4173   0.4175   0.4210   0.4250   0.4270
     0.4278   0.4324   0.4350   0.4388   0.4392   0.4396   0.4426   0.4500
     0.4585   0.4639   0.4677   0.4711   0.4746   0.4767   0.4871   0.4959
     0.5004   0.5086   0.5121   0.5128   0.5258   0.5385   0.5443   0.5510
     0.5556   0.5587   0.5659   0.5705   0.5796   0.5856   0.6104   0.6312
     0.6359   0.6472   0.6556   0.6602   0.6671   0.6731   0.6770   0.6818
     0.6866   0.6883   0.6886   0.6897   0.6991   0.7008   0.7034   0.7100
     0.7168   0.7287   0.7413   0.7613   0.7640   0.7679   0.7715   0.7762
     0.7794   0.7826   0.7836   0.7862   0.7896   0.7958   0.8007   0.8043
     0.8212   0.8232   0.8240   0.8269   0.8356   0.8426   0.8470   0.8525
     0.8548   0.8602   0.8658   0.8746   0.8769   0.8842   0.8905   0.8941
     0.8949   0.9012   0.9054   0.9091   0.9125   0.9222   0.9243   0.9278
     0.9318   0.9339   0.9397   0.9406   0.9463   0.9511   0.9530   0.9597
     0.9612   0.9718   0.9767   0.9849   0.9898   0.9998   1.0022   1.0054
     1.0065   1.0086   1.0099   1.0104   1.0180   1.0270   1.0281   1.0319
     1.0360   1.0412   1.0448   1.0485   1.0506   1.0548   1.0562   1.0590
     1.0680   1.0698   1.0757   1.0859   1.0935   1.0997   1.1005   1.1079
     1.1217   1.1284   1.1294   1.1381   1.1541   1.1654   1.1740   1.1752
     1.1800   1.1813   1.1830   1.1847   1.1983   1.2132   1.2302   1.2354
     1.2447   1.2570   1.2593   1.2608   1.2664   1.2718   1.2754   1.2800
     1.2824   1.2864   1.2891   1.2923   1.2929   1.3065   1.3078   1.3090
     1.3197   1.3330   1.3406   1.3422   1.3429   1.3481   1.3498   1.3533
     1.3566   1.3572   1.3585   1.3599   1.3616   1.3630   1.3635   1.3642
     1.3694   1.3729   1.3739   1.3772   1.3788   1.3835   1.3877   1.3912
     1.4015   1.4035   1.4049   1.4073   1.4088   1.4160   1.4196   1.4244
     1.4272   1.4300   1.4316   1.4344   1.4404   1.4425   1.4468   1.4492
     1.4546   1.4558   1.4567   1.4738   1.4876   1.5091   1.5102   1.5121
     1.5132   1.5143   1.5172   1.5207   1.5224   1.5249   1.5268   1.5283
     1.5320   1.5353   1.5369   1.5388   1.5430   1.5462   1.5476   1.5838
     1.5881   1.5908   1.5924   1.5962   1.5967   1.6004   1.6045   1.6067
     1.6089   1.6120   1.6141   1.6191   1.6334   1.6451   1.6460   1.6497
     1.6568   1.6597   1.6646   1.6662   1.6700   1.6704   1.6729   1.6743
     1.6759   1.6762   1.6767   1.6780   1.6800   1.6811   1.6823   1.6876
     1.6885   1.6951   1.7037   1.7048   1.7075   1.7098   1.7125   1.7143
     1.7168   1.7173   1.7209   1.7216   1.7236   1.7305   1.7321   1.7459
     1.7530   1.7538   1.7571   1.7590   1.7680   1.7759   1.7763   1.7784
     1.7928   1.7976   1.8063   1.8095   1.8111   1.8137   1.8143   1.8327
     1.8444   1.8462   1.8497   1.8530   1.8769   1.8842   1.8905   1.8914
     1.8974   1.8989   1.9007   1.9053   1.9235   1.9268   1.9284   1.9336
     1.9415   1.9431   1.9510   2.0437   2.1347   2.1448   2.1580   2.1894
     2.5458   2.5541   2.5776   2.7032   2.8478   2.8598   2.8702   2.8793
     3.0415   3.0494   3.0954   3.1087   3.2670   3.3071   3.3495   3.5567
     3.7474   3.7598   3.7632   3.7694   3.9355   3.9379   3.9421   3.9987
     4.2275   4.2298   4.2415   4.2437   4.3897   4.3961   4.4153   4.4905
     4.5253   4.5418   4.5477   4.5989   4.7487   4.7751   4.8490   4.8739
     4.9764   5.0075   5.0193   5.0512   5.3467   5.3625   5.4037   5.4159
     5.4232   5.4323   5.4486   5.4541   5.4544   5.4646   5.4784   5.5310
     5.5577   5.5904   5.6355   5.6910   5.7233   5.7346   5.7975   5.8163
     5.8475   5.8676   5.9025   5.9834   6.0197   6.0318   6.0408   6.2060
     6.2526   6.3179   6.3477   6.3537   7.0051   7.0306   7.1244   7.1538
[...]
     atom    7 type  1   force =     0.00032290   -0.00047776    0.00164289
     atom    8 type  1   force =     0.00039230   -0.00074184    0.00211632
     atom    9 type  1   force =     0.00022967    0.00010934    0.00246495
     atom   10 type  1   force =     0.00019748    0.00060453    0.00242967
     atom   11 type  1   force =    -0.00019477    0.00013007    0.00254112
     atom   12 type  1   force =     0.00030888    0.00090127    0.00193229
     atom   13 type  1   force =     0.00009206    0.00055583    0.00267400
     atom   14 type  1   force =     0.00010746   -0.00076569    0.00156495
     atom   15 type  1   force =     0.00024865    0.00059650    0.00157287
     atom   16 type  1   force =     0.00004956   -0.00134359    0.00238954
     atom   17 type  1   force =     0.00018767   -0.00113637   -0.00013795
     atom   18 type  1   force =     0.00069602    0.00009966    0.00005264
     atom   19 type  1   force =    -0.00003420   -0.00189122    0.00187418
     atom   20 type  1   force =    -0.00057141    0.00008559   -0.00085500
     atom   21 type  1   force =    -0.00017373    0.00083970    0.00021470
     atom   22 type  1   force =    -0.00017815    0.00110542   -0.00040154
     atom   23 type  1   force =     0.00055579   -0.00123334   -0.00273466
     atom   24 type  1   force =     0.00040548    0.00099568   -0.00048879
     atom   25 type  1   force =    -0.00024504   -0.00032304   -0.00243621
     atom   26 type  1   force =    -0.00103378   -0.00025758   -0.00162902
     atom   27 type  1   force =    -0.00030174    0.00086933   -0.00060786
     atom   28 type  1   force =     0.00161460   -0.00048826   -0.00148166
     atom   29 type  1   force =    -0.00019950    0.00028147   -0.00248064
     atom   30 type  1   force =     0.00051908    0.00011606   -0.00243475
     atom   31 type  1   force =    -0.00035019   -0.00091156   -0.00046045
     atom   32 type  1   force =    -0.00148541    0.00009066   -0.00231730
     atom   33 type  1   force =     0.00000455   -0.00086046    0.00006967
     atom   34 type  1   force =    -0.00126786    0.00010170   -0.00167110
     atom   35 type  1   force =     0.00039503    0.00218872   -0.00383940
     atom   36 type  1   force =     0.00190730    0.00054920   -0.00194214
     atom   37 type  1   force =     0.00048275   -0.00024336   -0.00064723
     atom   38 type  1   force =    -0.00031710   -0.00120412   -0.00035884
     atom   39 type  1   force =    -0.00017528    0.00030506   -0.00245712
     atom   40 type  1   force =     0.00051571   -0.00089666   -0.00056827
     atom   41 type  1   force =     0.00012189    0.00089716   -0.00063115
     atom   42 type  1   force =    -0.00115032   -0.00077196   -0.00115135
     atom   43 type  1   force =     0.00018283    0.00008265   -0.00006841
     atom   44 type  1   force =     0.00171212   -0.00091466    0.00040236
     atom   45 type  1   force =    -0.00056231   -0.00044257   -0.00090230
     atom   46 type  1   force =    -0.00074154   -0.00096567   -0.00106957
     atom   47 type  1   force =    -0.00015385    0.00142270   -0.00139816
     atom   48 type  1   force =    -0.00187894   -0.00067933   -0.00136206
     atom   49 type  1   force =     0.00001436   -0.00062027   -0.00181556
     atom   50 type  1   force =    -0.00031620    0.00159216   -0.00107488
     atom   51 type  1   force =    -0.00053628    0.00002613   -0.00347880
     atom   52 type  1   force =    -0.00223429    0.00137658   -0.00101754
     atom   53 type  1   force =    -0.00038282    0.00070426   -0.00050211
     atom   54 type  1   force =    -0.00146504    0.00096812   -0.00075918
     atom   55 type  1   force =    -0.00029953   -0.00287031   -0.00014298
     atom   56 type  1   force =     0.00222949    0.00097157    0.00049749
     atom   57 type  1   force =     0.00017270   -0.00087675   -0.00068300
     atom   58 type  1   force =    -0.00147813   -0.00004582   -0.00127884
     atom   59 type  1   force =     0.00014508   -0.00005477   -0.00024035
     atom   60 type  1   force =     0.00176217   -0.00001019   -0.00080968
     atom   61 type  1   force =    -0.00001979   -0.00124687   -0.00066247
     atom   62 type  1   force =    -0.00049477   -0.00013448    0.00148083
     atom   63 type  1   force =    -0.00020288    0.00155448    0.00157353
     atom   64 type  1   force =     0.00078704   -0.00049620    0.00021312
     atom   65 type  1   force =     0.00036483    0.00360072   -0.00020817
     atom   66 type  1   force =     0.00191102    0.00238790    0.00065927
     atom   67 type  1   force =    -0.00337376   -0.00260630    0.00213477
     atom   68 type  1   force =    -0.00334667    0.00187319   -0.00137397
     atom   69 type  1   force =     0.00026450   -0.00382754   -0.00071529
     atom   70 type  1   force =     0.00303717    0.00043057    0.00172144
     atom   71 type  1   force =    -0.00371271    0.00489944   -0.00056405
     atom   72 type  1   force =     0.00695527   -0.00092987   -0.00865207
     atom   73 type  1   force =     0.00012847    0.00188018   -0.00042969
     atom   74 type  1   force =     0.00268742   -0.00160965   -0.00045120
     atom   75 type  1   force =    -0.00021691   -0.00199424    0.00170499
     atom   76 type  1   force =    -0.00390850   -0.00252228   -0.00134018
     atom   77 type  1   force =    -0.00057700    0.00007520   -0.00026911
     atom   78 type  1   force =    -0.00041196    0.00049423    0.00129842
     atom   79 type  1   force =     0.00083066   -0.00009954    0.00100083
     atom   80 type  1   force =     0.00085704    0.00027045    0.00032169
     atom   81 type  1   force =     0.00007779    0.00106937   -0.00079993
     atom   82 type  1   force =    -0.00220521    0.00283465    0.00028978
     atom   83 type  1   force =    -0.00045929    0.00256422   -0.00028502
     atom   84 type  1   force =     0.00071422   -0.00209213    0.00025598
     atom   85 type  1   force =     0.00040092   -0.00231290    0.00398530
     atom   86 type  1   force =     0.00196280    0.00180611   -0.00039865
     atom   87 type  1   force =     0.00110927    0.00221382   -0.00075523
     atom   88 type  1   force =    -0.00036809   -0.00221424    0.00313857
     atom   89 type  1   force =    -0.00397703    0.00020508    0.00509675
     atom   90 type  1   force =     0.00145509   -0.00096227   -0.00057870
     atom   91 type  1   force =     0.00357329   -0.00272914    0.00229841
     atom   92 type  1   force =    -0.00029750    0.00321782    0.00396361
     atom   93 type  1   force =    -0.00071781    0.00258324    0.00298111
     atom   94 type  1   force =    -0.00230351   -0.00265221    0.00013816
     atom   95 type  1   force =     0.00155489   -0.00288338   -0.00071407
     atom   96 type  1   force =     0.00040196    0.00183440    0.00038322
     atom   97 type  1   force =    -0.00014913   -0.00083564   -0.00094631
     atom   98 type  1   force =    -0.00039428    0.00001045    0.00037894
     atom   99 type  1   force =    -0.00038457   -0.00254775    0.00009749
     atom  100 type  1   force =     0.00088962    0.00005227    0.00019653
     atom  101 type  2   force =    -0.00090895    0.00091642    0.00375869
     atom  102 type  2   force =     0.00076279    0.00297306   -0.00210441
     atom  103 type  2   force =     0.00166989    0.00077277   -0.00728939
     atom  104 type  2   force =    -0.00123128   -0.00120172   -0.00400923
     atom  105 type  2   force =    -0.00338543    0.00050175   -0.00373443
     atom  106 type  2   force =    -0.00039398    0.00144086    0.01033868
     atom  107 type  2   force =     0.00280132   -0.00187771   -0.00856894
     atom  108 type  2   force =     0.00291865   -0.00212163    0.00745680
     atom  109 type  2   force =     0.00038490    0.00030758   -0.00351862
     atom  110 type  2   force =     0.00071251    0.00138232   -0.00272951
     atom  111 type  2   force =     0.00174019   -0.00160535    0.00420047
     atom  112 type  2   force =     0.00015395   -0.00168205   -0.00123154
     atom  113 type  2   force =    -0.00262894   -0.00360259   -0.00214950
     atom  114 type  2   force =    -0.00374870    0.00058527   -0.00055194
     atom  115 type  2   force =    -0.00518242   -0.00317598    0.00493534
     atom  116 type  2   force =    -0.00032649   -0.00313622   -0.00180217
     atom  117 type  2   force =     0.00004147    0.00015590   -0.00199974
     atom  118 type  2   force =    -0.00566988   -0.00163432    0.02043944
     atom  119 type  2   force =    -0.00073530    0.00143619    0.00037719
     atom  120 type  2   force =     0.00349560    0.00246206    0.01619803
     atom  121 type  2   force =     0.00215684   -0.00194198    0.00071287
     atom  122 type  2   force =     0.00140041    0.00140643   -0.00146697
     atom  123 type  2   force =     0.00247633    0.00111696    0.00016673
     atom  124 type  2   force =     0.00382266   -0.00004165   -0.00061608
     atom  125 type  2   force =    -0.00108845   -0.00166738    0.00203031
     atom  126 type  2   force =     0.00099448    0.00383613   -0.00036149
     atom  127 type  2   force =    -0.00333821    0.00298346    0.00096630
     atom  128 type  2   force =    -0.00189325   -0.00218103   -0.00187756
     atom  129 type  2   force =     0.00008401   -0.00079195   -0.00206807
     atom  130 type  2   force =    -0.00188340    0.00161174    0.00546543
     atom  131 type  2   force =     0.00026482   -0.00321879   -0.00155237
     atom  132 type  2   force =     0.00063270   -0.00296789    0.00958096
     atom  133 type  2   force =     0.00562689    0.00416003    0.00296037
     atom  134 type  2   force =     0.00120676    0.00123503   -0.00395749
     atom  135 type  2   force =     0.00275387    0.00321853   -0.00232439
     atom  136 type  2   force =     0.00050206   -0.00348611    0.00039517
     atom  137 type  2   force =    -0.00236983    0.00175222    0.00211248
     atom  138 type  2   force =     0.00153066   -0.00625207   -0.00290565
     atom  139 type  2   force =     0.00039455    0.00045009   -0.00358667
     atom  140 type  2   force =    -0.00597728    0.00447346   -0.00433833
     atom  141 type  2   force =    -0.00326963    0.00221314   -0.00824001
     atom  142 type  2   force =     0.00484821   -0.00362969   -0.00108373
     atom  143 type  2   force =     0.00264283    0.00107650   -0.00504235
     atom  144 type  2   force =    -0.00510449    0.00433342   -0.00152085
     atom  145 type  2   force =    -0.00111948   -0.00085172   -0.00763286
     atom  146 type  2   force =     0.00466165   -0.00459031   -0.00413505
     atom  147 type  2   force =     0.00127597   -0.00035539    0.00447456
     atom  148 type  2   force =    -0.00171463    0.00619481   -0.00221795
     atom  149 type  3   force =     0.00129835   -0.00111009    0.00865293
     atom  150 type  2   force =    -0.00013119    0.00011819    0.01045621
     atom  151 type  3   force =    -0.00406615   -0.00149573   -0.01250580
     atom  152 type  3   force =     0.00186989   -0.00050119   -0.00561837
     atom  153 type  3   force =     0.00029842   -0.00084145   -0.00600796

     Total force =     0.058639     Total SCF correction =     0.000468

     number of scf cycles    =  12
     number of bfgs steps    =  11

     energy   old            =  -12714.7694952107 Ry
     energy   new            =  -12714.7745525926 Ry

     CASE: energy  _new < energy  _old

     new trust radius        =       0.0987647361 bohr
     new conv_thr            =       0.0000000100 Ry


ATOMIC_POSITIONS (angstrom)
Cu       0.000038948  -0.035614996   7.309761805
Cu       1.851382697   1.651730504   7.316513038
Cu       3.690003546  -0.047370112   7.305019956
Cu       5.529179994   1.649794379   7.309437064
Cu       0.001865876   3.369770405   7.329257587
Cu       1.847834401   5.095985112   7.357007935
Cu       3.691826381   3.372542917   7.333494521
Cu       5.538396821   5.096276286   7.357917804
Cu       0.006023587   6.812466031   7.366910373
Cu       1.847149858   8.531590964   7.355655254
Cu       3.693301912   6.813063740   7.370821651
Cu       5.538701009   8.531479498   7.356325416
Cu       0.001211159  10.262258562   7.324859573
Cu       1.851676219  11.984145782   7.307362315
Cu       3.691869937  10.259790195   7.327188783
Cu       5.528451970  11.985640649   7.302623847
Cu      -0.000000552  13.671393638   7.306023820
Cu       1.835685793  15.337282497   7.297716486
Cu       3.689813883  13.681063897   7.297587101
Cu       5.542637611  15.336468989   7.311968053
Cu       0.005269288   1.637267802   9.156567917
Cu       1.849871676  -0.046021084   9.172313917
Cu       3.690815674   1.640971596   9.162784113
Cu       5.532771272  -0.038020256   9.176152788
Cu       0.009638724   5.068919273   9.182225666
Cu       1.853852676   3.343402366   9.161517128
Cu       3.701732158   5.071217584   9.180848582
Cu       5.537673183   3.343996018   9.162390387
Cu       0.009822827   8.566014663   9.174191895
Cu       1.848856815   6.816284558   9.194825109
Cu       3.700472470   8.562562045   9.174888774
Cu       5.548983297   6.815928566   9.187744998
Cu       0.004127751  11.996752229   9.149625205
Cu       1.853848519  10.291411669   9.152622983
Cu       3.690931899  11.994292891   9.156923969
Cu       5.536329595  10.291138022   9.154200014
Cu      -0.002006905  15.336015099   9.189562253
Cu       1.849543173  13.678734179   9.166861810
Cu       3.694662231  15.333074559   9.187283416
Cu       5.532696837  13.670035820   9.173492086
Cu       0.003973502  -0.043170971  11.064787636
Cu       1.854076982   1.620680665  11.017995791
Cu       3.696981127  -0.042039070  11.048078039
Cu       5.540854101   1.629548131  11.025186381
Cu       0.011313194   3.312461916  10.992859984
Cu       1.854673560   5.049261671  10.971859010
Cu       3.705807220   3.310097102  10.996079542
Cu       5.557061205   5.054481694  10.985689132
Cu      -0.008405902   6.824153816  10.980717995
Cu       1.852683860   8.590229522  10.969449180
Cu       3.704202016   6.821155519  10.975286544
Cu       5.557258228   8.588224892  10.976416028
Cu       0.010590395  10.323768555  10.984533846
Cu       1.852582630  12.013382587  11.010568275
Cu       3.704544110  10.332856298  10.984119985
Cu       5.540623560  12.003830943  11.022064413
Cu       0.003114720  13.672522959  11.063597348
Cu       1.854011115  15.333630588  11.072354110
Cu       3.696916766  13.672259308  11.050644564
Cu       5.534684446  15.334718582  11.078863943
Cu       0.009493979   1.635056965  12.911571487
Cu       1.852209658  -0.032868347  12.942196807
Cu       3.706934733   1.620365895  12.896612635
Cu       5.548315555  -0.031624202  12.957391285
Cu       0.001086184   5.037870787  12.752042358
Cu       1.855870888   3.296645607  12.813132144
Cu       3.709398749   5.047762477  12.742374553
Cu       5.553759897   3.315342589  12.844382152
Cu      -0.001977196   8.611879678  12.755542292
Cu       1.822181766   6.822876822  12.702180790
Cu       3.711604430   8.609354447  12.732094729
Cu       5.520437897   6.830856508  12.758423084
Cu       0.008702260  11.996278078  12.914677090
Cu       1.851185799  10.346637472  12.809881896
Cu       3.707282866  12.007210894  12.900595728
Cu       5.558081230  10.325649425  12.849366564
Cu       0.012764358  15.332493307  12.981029532
Cu       1.852228896  13.660206562  12.942201444
Cu       3.696333119  15.335778788  12.949631072
Cu       5.547825771  13.661953238  12.956876023
Cu       0.008898084   0.009882616  14.840688922
Cu       1.879551190   1.678606633  14.769723374
Cu       3.711547526  -0.039270818  14.830331483
Cu       5.528866581   1.700210714  14.780914570
Cu      -0.005612515   3.386708167  14.668110142
Cu       1.811388544   5.043001389  14.476499681
Cu       3.704811167   3.384613855  14.651722208
Cu       5.570079027   5.114756575  14.542145468
Cu       0.020734435   6.826078711  14.474615379
Cu       1.806105677   8.612049370  14.475764086
Cu       3.675611127   6.870312625  14.325901616
Cu       5.569398586   8.531028462  14.561682405
Cu      -0.000842676  10.253553956  14.689637446
Cu       1.880452026  11.957139773  14.776959620
Cu       3.698945865  10.244290266  14.669123922
Cu       5.529423479  11.933845230  14.787349772
Cu       0.010650365  13.620865985  14.848455514
Cu       1.840782527  15.334662977  14.839131326
Cu       3.711480140  13.670996050  14.825784698
Cu       5.566854042  15.333970959  14.850655097
C       -0.002837595   0.725993425  18.395839401
C       -0.001848214   2.147136209  18.531670659
C        1.229198555   0.010525162  18.388378332
C        1.227766536   2.857299997  18.610580121
C        2.455950475   0.726246138  18.413914699
C        2.457101067   2.150559482  18.497174938
C        3.687235852   0.011025139  18.406102483
C        3.685871465   2.861131690  18.587752250
C        4.916006596   0.726685560  18.415467136
C        4.916466148   2.150247676  18.515625099
C        6.145455581   0.011646544  18.352839786
C        6.146007538   2.858451374  18.612358275
C       -0.001069101   4.972267861  18.934845506
C       -0.001878558   6.392622328  19.045706655
C        1.229285223   4.266948048  18.832218104
C        1.229981248   7.103096216  19.081593229
C        2.457758132   4.968136423  18.988904282
C        2.452457868   6.386428425  19.161826796
C        3.685127284   4.266282919  18.838597837
C        3.689262589   7.110283783  19.154796333
C        4.916301692   4.974297855  18.936986864
C        4.916705546   6.391886098  19.092137644
C        6.146851699   4.269579060  18.825928846
C        6.146938785   7.103490789  19.045825616
C       -0.003139502   9.223871133  18.801743635
C       -0.002818395  10.635269882  18.586148619
C        1.227361181   8.520784462  18.922767333
C        1.226904008  11.345116737  18.510840264
C        2.457521438   9.230993149  18.836379224
C        2.457395416  10.636764904  18.599949172
C        3.685196815   8.527477706  18.975824910
C        3.686334758  11.346026892  18.511368799
C        4.914897346   9.229307323  18.824501721
C        4.915897560  10.637867685  18.606426874
C        6.144855634   8.522328513  18.922184262
C        6.145188251  11.346699438  18.508457721
C       -0.000234459  13.483744065  18.348288307
C        0.000873151  14.909406196  18.328427626
C        1.229884894  12.768931188  18.416440636
C        1.229176610  15.624433507  18.364739088
C        2.458019365  13.483720881  18.418436486
C        2.460654548  14.908369639  18.387725349
C        3.688990674  12.769978667  18.428584169
C        3.686440779  15.625072985  18.386093664
C        4.916825790  13.484653662  18.391042195
C        4.917777294  14.909649742  18.364098931
C        6.147335773  12.769168763  18.382959540
C        6.146243837  15.624957129  18.324262599
H        3.261925814   6.714828230  17.387758531
C        2.886012282   6.632296840  16.378962775
H        3.958776840   6.611756236  16.018351459
H        2.317709789   5.687069701  16.388165099
H        2.268873285   7.539291905  16.305565493



     Writing output data file gc.save
     Check: negative starting charge=   -0.001553
     NEW-OLD atomic charge density approx. for the potential
     Check: negative starting charge=   -0.001551

     negative rho (up, down):  1.526E-03 0.000E+00

     total cpu time spent up to now is    49776.3 secs

     Self-consistent Calculation

     iteration #  1     ecut=    80.00 Ry     beta=0.70
     Davidson diagonalization with overlap
     ethr =  1.00E-06,  avg # of iterations = 11.3

     negative rho (up, down):  3.152E-03 0.000E+00

     total cpu time spent up to now is    50470.3 secs

     total energy              =  -12714.77028248 Ry
     Harris-Foulkes estimate   =  -12714.82546536 Ry
     estimated scf accuracy    <       0.42817264 Ry

     iteration #  2     ecut=    80.00 Ry     beta=0.70
     Davidson diagonalization with overlap
