mpirun: INFO: switching to OpenMPI runtime version 1.10.2

     Program PWSCF v.5.4.0 starts on  5Oct2017 at  7:15:23 

     This program is part of the open-source Quantum ESPRESSO suite
     for quantum simulation of materials; please cite
         "P. Giannozzi et al., J. Phys.:Condens. Matter 21 395502 (2009);
          URL http://www.quantum-espresso.org", 
     in publications or presentations arising from this work. More details at
     http://www.quantum-espresso.org/quote

     Parallel version (MPI & OpenMP), running on      28 processor cores
     Number of MPI processes:                28
     Threads/MPI process:                     1
     R & G space division:  proc/nbgrp/npool/nimage =      28
     Waiting for input...
     Reading input from standard input
Warning: card &IONS ignored
Warning: card / ignored

     Current dimensions of program PWSCF are:
     Max number of different atomic species (ntypx) = 10
     Max number of k-points (npk) =  40000
     Max angular momentum in pseudopotentials (lmaxx) =  3
     WARNING: atomic wfc #  2 for atom type 4 has zero norm
     WARNING: atomic wfc #  4 for atom type 4 has zero norm
     WARNING: atomic wfc #  5 for atom type 4 has zero norm

     -------------------------------------
     Parameters for Dispersion Correction:
     -------------------------------------
       atom      VdW radius       C_6     

        Cu         2.952        374.666
        C_h        2.744         60.710
        C          2.744         60.710
        O          2.536         24.284

     Subspace diagonalization in iterative solution of the eigenvalue problem:
     one sub-group per band group will be used
     scalapack distributed-memory algorithm (size of sub-group:  3*  3 procs)

 
     Parallelization info
     --------------------
     sticks:   dense  smooth     PW     G-vecs:    dense   smooth      PW
     Min         408     408    108                73226    73226    9928
     Max         410     410    109                73231    73231    9931
     Sum       11433   11433   3039              2050409  2050409  278033
 


     bravais-lattice index     =            0
     lattice parameter (alat)  =      13.9425  a.u.
     unit-cell volume          =   21209.0878 (a.u.)^3
     number of atoms/cell      =          151
     number of atomic types    =            4
     number of electrons       =      1308.00
     number of Kohn-Sham states=          785
     kinetic-energy cutoff     =      80.0000  Ry
     charge density cutoff     =     320.0000  Ry
     convergence threshold     =      1.0E-08
     mixing beta               =       0.7000
     number of iterations used =            8  local-TF  mixing
     Exchange-correlation      =  SLA  PW   PBX  PBC ( 1  4  3  4 0 0)

     celldm(1)=  13.942539  celldm(2)=   0.000000  celldm(3)=   0.000000
     celldm(4)=   0.000000  celldm(5)=   0.000000  celldm(6)=   0.000000

     crystal axes: (cart. coord. in units of alat)
               a(1) = (   1.000000   0.000000   0.000000 )  
               a(2) = (   0.000000   2.309401   0.000000 )  
               a(3) = (   0.000000   0.000000   3.388418 )  

     reciprocal axes: (cart. coord. in units 2 pi/alat)
               b(1) = (  1.000000  0.000000  0.000000 )  
               b(2) = (  0.000000  0.433013  0.000000 )  
               b(3) = (  0.000000  0.000000  0.295123 )  


     PseudoPot. # 1 for Cu read from file:
     /home/549/hxw549/Short/pseudopotentials/Cu.pbe-n-van_ak.UPF
     MD5 check sum: 601f7c30f7467666bec936e0661ce3e1
     Pseudo is Ultrasoft + core correction, Zval = 11.0
     Generated by new atomic code, or converted to UPF format
     Using radial grid of  867 points,  6 beta functions with: 
                l(1) =   0
                l(2) =   0
                l(3) =   1
                l(4) =   1
                l(5) =   2
                l(6) =   2
     Q(r) pseudized with  8 coefficients,  rinner =    1.400   1.400   1.400
                                                       1.400   1.400

     PseudoPot. # 2 for C  read from file:
     /home/549/hxw549/Short/pseudopotentials/C.star1s-pbe-mt_gipaw.UPF
     MD5 check sum: ef0cb3dee31bd9e4ba2a832a2c716264
     Pseudo is Norm-conserving, Zval =  5.0
     Generated by new atomic code, or converted to UPF format
     Using radial grid of 1073 points,  1 beta functions with: 
                l(1) =   0

     PseudoPot. # 3 for C  read from file:
     /home/549/hxw549/Short/pseudopotentials/C.pbe-mt_gipaw.UPF
     MD5 check sum: 5ac2f21f2c440b14befe521540822c15
     Pseudo is Norm-conserving, Zval =  4.0
     Generated by new atomic code, or converted to UPF format
     Using radial grid of 1073 points,  1 beta functions with: 
                l(1) =   0

     PseudoPot. # 4 for O  read from file:
     /home/549/hxw549/Short/pseudopotentials/O.pbe-van_gipaw.UPF
     MD5 check sum: 5ce2a047509d4f331db576c963e74b29
     Pseudo is Ultrasoft, Zval =  6.0
     Generated by new atomic code, or converted to UPF format
     Using radial grid of 1095 points,  4 beta functions with: 
                l(1) =   0
                l(2) =   0
                l(3) =   1
                l(4) =   1
     Q(r) pseudized with 0 coefficients 


     atomic species   valence    mass     pseudopotential
        Cu            11.00    63.54600     Cu( 1.00)
        C_h            5.00    12.01070     C ( 1.00)
        C              4.00    12.01070     C ( 1.00)
        O              6.00    15.99940     O ( 1.00)

     No symmetry found



   Cartesian axes

     site n.     atom                  positions (alat units)
         1           Cu  tau(   1) = (   0.0008573  -0.0018351   0.9978221  )
         2           Cu  tau(   2) = (   0.2509084   0.2265501   0.9988819  )
         3           Cu  tau(   3) = (   0.5008508  -0.0019840   0.9975683  )
         4           Cu  tau(   4) = (   0.7507462   0.2262783   0.9983867  )
         5           Cu  tau(   5) = (   0.0009226   0.4569115   0.9995359  )
         6           Cu  tau(   6) = (   0.2509466   0.6897606   1.0003884  )
         7           Cu  tau(   7) = (   0.5007722   0.4569051   0.9997958  )
         8           Cu  tau(   8) = (   0.7508337   0.6899314   1.0007366  )
         9           Cu  tau(   9) = (   0.0008211   0.9242436   1.0005631  )
        10           Cu  tau(  10) = (   0.2510407   1.1587939   0.9997695  )
        11           Cu  tau(  11) = (   0.5010675   0.9243093   1.0009642  )
        12           Cu  tau(  12) = (   0.7507832   1.1585479   1.0002867  )
        13           Cu  tau(  13) = (   0.0008076   1.3920149   0.9981651  )
        14           Cu  tau(  14) = (   0.2508641   1.6229259   0.9968872  )
        15           Cu  tau(  15) = (   0.5009303   1.3917396   0.9986134  )
        16           Cu  tau(  16) = (   0.7508151   1.6234999   0.9965118  )
        17           Cu  tau(  17) = (   0.0010768   1.8521250   0.9962205  )
        18           Cu  tau(  18) = (   0.2506674   2.0802054   0.9970792  )
        19           Cu  tau(  19) = (   0.5006451   1.8527931   0.9957352  )
        20           Cu  tau(  20) = (   0.7510969   2.0800373   0.9962109  )
        21           Cu  tau(  21) = (   0.0009471   0.2250132   1.2487253  )
        22           Cu  tau(  22) = (   0.2507882  -0.0031446   1.2497440  )
        23           Cu  tau(  23) = (   0.5007919   0.2252728   1.2491714  )
        24           Cu  tau(  24) = (   0.7507971  -0.0036897   1.2491278  )
        25           Cu  tau(  25) = (   0.0012713   0.6893980   1.2461710  )
        26           Cu  tau(  26) = (   0.2511689   0.4560768   1.2478036  )
        27           Cu  tau(  27) = (   0.5013541   0.6891833   1.2462003  )
        28           Cu  tau(  28) = (   0.7508430   0.4560683   1.2474521  )
        29           Cu  tau(  29) = (   0.0015975   1.1598104   1.2452581  )
        30           Cu  tau(  30) = (   0.2511932   0.9245903   1.2453945  )
        31           Cu  tau(  31) = (   0.5012471   1.1599306   1.2456365  )
        32           Cu  tau(  32) = (   0.7516486   0.9243255   1.2458244  )
        33           Cu  tau(  33) = (   0.0010131   1.6253539   1.2462781  )
        34           Cu  tau(  34) = (   0.2511431   1.3937977   1.2457308  )
        35           Cu  tau(  35) = (   0.5008404   1.6254812   1.2457260  )
        36           Cu  tau(  36) = (   0.7511009   1.3943200   1.2451525  )
        37           Cu  tau(  37) = (   0.0008426   2.0793482   1.2491166  )
        38           Cu  tau(  38) = (   0.2507133   1.8534255   1.2477591  )
        39           Cu  tau(  39) = (   0.5006933   2.0795606   1.2489990  )
        40           Cu  tau(  40) = (   0.7509172   1.8537366   1.2472554  )
        41           Cu  tau(  41) = (   0.0008611  -0.0043987   1.5029302  )
        42           Cu  tau(  42) = (   0.2512449   0.2256642   1.5010773  )
        43           Cu  tau(  43) = (   0.5006184  -0.0040937   1.5031608  )
        44           Cu  tau(  44) = (   0.7506508   0.2245354   1.4992095  )
        45           Cu  tau(  45) = (   0.0016362   0.4566646   1.4959563  )
        46           Cu  tau(  46) = (   0.2523890   0.6905661   1.4930847  )
        47           Cu  tau(  47) = (   0.5011624   0.4575926   1.4977523  )
        48           Cu  tau(  48) = (   0.7518349   0.6902421   1.4941960  )
        49           Cu  tau(  49) = (   0.0023347   0.9247476   1.4925255  )
        50           Cu  tau(  50) = (   0.2526869   1.1599081   1.4923416  )
        51           Cu  tau(  51) = (   0.5020293   0.9246479   1.4907170  )
        52           Cu  tau(  52) = (   0.7523795   1.1609499   1.4907313  )
        53           Cu  tau(  53) = (   0.0022775   1.3952011   1.4935895  )
        54           Cu  tau(  54) = (   0.2511571   1.6262829   1.4978436  )
        55           Cu  tau(  55) = (   0.5013820   1.3947667   1.4939515  )
        56           Cu  tau(  56) = (   0.7512738   1.6266946   1.4968330  )
        57           Cu  tau(  57) = (   0.0008850   1.8536557   1.5027652  )
        58           Cu  tau(  58) = (   0.2508739   2.0790658   1.5048008  )
        59           Cu  tau(  59) = (   0.5008476   1.8533228   1.5022434  )
        60           Cu  tau(  60) = (   0.7505503   2.0787726   1.5044290  )
        61           Cu  tau(  61) = (   0.0016980   0.2262386   1.7497375  )
        62           Cu  tau(  62) = (   0.2509798  -0.0025672   1.7582257  )
        63           Cu  tau(  63) = (   0.5004316   0.2264262   1.7510009  )
        64           Cu  tau(  64) = (   0.7505303  -0.0023169   1.7573829  )
        65           Cu  tau(  65) = (   0.0019661   0.6913147   1.7387950  )
        66           Cu  tau(  66) = (   0.2525391   0.4569089   1.7431399  )
        67           Cu  tau(  67) = (   0.5023063   0.6918415   1.7420106  )
        68           Cu  tau(  68) = (   0.7512651   0.4566422   1.7431147  )
        69           Cu  tau(  69) = (   0.0041309   1.1625029   1.7356721  )
        70           Cu  tau(  70) = (   0.2541015   0.9252915   1.7395658  )
        71           Cu  tau(  71) = (   0.5034121   1.1639708   1.7344821  )
        72           Cu  tau(  72) = (   0.7552233   0.9274694   1.7335093  )
        73           Cu  tau(  73) = (   0.0022497   1.6232892   1.7515641  )
        74           Cu  tau(  74) = (   0.2533954   1.3956478   1.7415910  )
        75           Cu  tau(  75) = (   0.5018708   1.6237189   1.7502102  )
        76           Cu  tau(  76) = (   0.7526275   1.3955884   1.7397767  )
        77           Cu  tau(  77) = (   0.0007931   2.0789532   1.7611861  )
        78           Cu  tau(  78) = (   0.2511024   1.8512109   1.7583458  )
        79           Cu  tau(  79) = (   0.5009469   2.0787117   1.7606683  )
        80           Cu  tau(  80) = (   0.7514974   1.8508067   1.7587645  )
        81           Cu  tau(  81) = (   0.0027001   0.0029980   2.0095044  )
        82           Cu  tau(  82) = (   0.2527623   0.2336652   2.0024965  )
        83           Cu  tau(  83) = (   0.4986408   0.0010217   2.0104275  )
        84           Cu  tau(  84) = (   0.7489619   0.2291224   2.0040216  )
        85           Cu  tau(  85) = (  -0.0040408   0.4547941   1.9920730  )
        86           Cu  tau(  86) = (   0.2450909   0.6829240   1.9777034  )
        87           Cu  tau(  87) = (   0.5057828   0.4610105   1.9921824  )
        88           Cu  tau(  88) = (   0.7566954   0.6902729   1.9820341  )
        89           Cu  tau(  89) = (  -0.0032760   0.9313842   1.9771744  )
        90           Cu  tau(  90) = (   0.2495046   1.1622461   1.9788034  )
        91           Cu  tau(  91) = (   0.5198945   0.9355611   1.9773492  )
        92           Cu  tau(  92) = (   0.7623623   1.1705451   1.9826590  )
        93           Cu  tau(  93) = (   0.0082718   1.3932274   1.9974148  )
        94           Cu  tau(  94) = (   0.2553816   1.6199201   2.0056436  )
        95           Cu  tau(  95) = (   0.5016980   1.3878665   1.9912681  )
        96           Cu  tau(  96) = (   0.7518046   1.6146709   2.0045172  )
        97           Cu  tau(  97) = (   0.0003802   1.8462857   2.0115053  )
        98           Cu  tau(  98) = (   0.2508654   2.0775278   2.0128486  )
        99           Cu  tau(  99) = (   0.5037438   1.8474348   2.0102532  )
       100           Cu  tau( 100) = (   0.7513138   2.0807412   2.0125075  )
       101           C   tau( 101) = (   0.0011935   0.1000454   2.4741236  )
       102           C   tau( 102) = (   0.0013404   0.2901495   2.5156341  )
       103           C   tau( 103) = (   0.1677339   0.0040837   2.4545295  )
       104           C   tau( 104) = (   0.1682026   0.3849657   2.5377422  )
       105           C   tau( 105) = (   0.3344074   0.1002286   2.4714289  )
       106           C   tau( 106) = (   0.3346996   0.2899831   2.5140076  )
       107           C_h tau( 107) = (   0.5012815   0.0040445   2.4544666  )
       108           C   tau( 108) = (   0.5015968   0.3851290   2.5349016  )
       109           C   tau( 109) = (   0.6681420   0.1002381   2.4726525  )
       110           C   tau( 110) = (   0.6684547   0.2904654   2.5131399  )
       111           C   tau( 111) = (   0.8345067   0.0035993   2.4576986  )
       112           C   tau( 112) = (   0.8349029   0.3856629   2.5369630  )
       113           C   tau( 113) = (   0.0018811   0.6733068   2.5877646  )
       114           C   tau( 114) = (   0.0016679   0.8678673   2.6011207  )
       115           C   tau( 115) = (   0.1685863   0.5750921   2.5778622  )
       116           C   tau( 116) = (   0.1663861   0.9662559   2.5993949  )
       117           C   tau( 117) = (   0.3352566   0.6695179   2.5928252  )
       118           C   tau( 118) = (   0.3355020   0.8670591   2.5834879  )
       119           C   tau( 119) = (   0.5017990   0.5752781   2.5750147  )
       120           C   tau( 120) = (   0.5035221   0.9663080   2.6054749  )
       121           C   tau( 121) = (   0.6682909   0.6736338   2.5862785  )
       122           C   tau( 122) = (   0.6682695   0.8677820   2.6039852  )
       123           C   tau( 123) = (   0.8352335   0.5773365   2.5725417  )
       124           C   tau( 124) = (   0.8349689   0.9652527   2.6001355  )
       125           C   tau( 125) = (   0.0010665   1.2552202   2.5666315  )
       126           C   tau( 126) = (   0.0012477   1.4457697   2.5284987  )
       127           C   tau( 127) = (   0.1675581   1.1585448   2.5807218  )
       128           C   tau( 128) = (   0.1679636   1.5404101   2.5050077  )
       129           C   tau( 129) = (   0.3349431   1.2542814   2.5630127  )
       130           C   tau( 130) = (   0.3347897   1.4444110   2.5243447  )
       131           C   tau( 131) = (   0.5020061   1.1584714   2.5841203  )
       132           C   tau( 132) = (   0.5013393   1.5403612   2.5043339  )
       133           C   tau( 133) = (   0.6681619   1.2552363   2.5673588  )
       134           C   tau( 134) = (   0.6680338   1.4454475   2.5275663  )
       135           C   tau( 135) = (   0.8346856   1.1586075   2.5821647  )
       136           C   tau( 136) = (   0.8345324   1.5411140   2.5071397  )
       137           C   tau( 137) = (   0.0010460   1.8278692   2.4511787  )
       138           C   tau( 138) = (   0.0010317   2.0217261   2.4342541  )
       139           C   tau( 139) = (   0.1678685   1.7310290   2.4663119  )
       140           C   tau( 140) = (   0.1675627   2.1197405   2.4349419  )
       141           C   tau( 141) = (   0.3343157   1.8275601   2.4502918  )
       142           C   tau( 142) = (   0.3343711   2.0217622   2.4360008  )
       143           C   tau( 143) = (   0.5010915   1.7307980   2.4646800  )
       144           C   tau( 144) = (   0.5010073   2.1196324   2.4373775  )
       145           C   tau( 145) = (   0.6676447   1.8274733   2.4494839  )
       146           C   tau( 146) = (   0.6675343   2.0216639   2.4345855  )
       147           C   tau( 147) = (   0.8343141   1.7313514   2.4669788  )
       148           C   tau( 148) = (   0.8342927   2.1195700   2.4359499  )
       149           C   tau( 149) = (   0.3364713   0.8554695   2.3059262  )
       150           O   tau( 150) = (   0.4663307   0.9439922   2.2440879  )
       151           O   tau( 151) = (   0.2156522   0.7576010   2.2397108  )

     number of k points=     6  gaussian smearing, width (Ry)=  0.1000
                       cart. coord. in units 2pi/alat
        k(    1) = (   0.0000000   0.0000000   0.0000000), wk =   0.2500000
        k(    2) = (   0.0000000  -0.2165064   0.0000000), wk =   0.2500000
        k(    3) = (   0.2500000   0.0000000   0.0000000), wk =   0.5000000
        k(    4) = (   0.2500000  -0.2165064   0.0000000), wk =   0.5000000
        k(    5) = (  -0.5000000   0.0000000   0.0000000), wk =   0.2500000
        k(    6) = (  -0.5000000  -0.2165064   0.0000000), wk =   0.2500000

     Dense  grid:  2050409 G-vectors     FFT dimensions: (  80, 192, 270)

     Largest allocated arrays     est. size (Mb)     dimensions
        Kohn-Sham Wavefunctions       109.85 Mb     (    9171,  785)
        NL pseudopotentials           260.99 Mb     (    9171, 1865)
        Each V/rho on FFT grid          2.34 Mb     (  153600)
        Each G-vector array             0.56 Mb     (   73230)
        G-vector shells                 0.27 Mb     (   35784)
     Largest temporary arrays     est. size (Mb)     dimensions
        Auxiliary wavefunctions       439.41 Mb     (    9171, 3140)
        Each subspace H/S matrix       16.69 Mb     (    1046, 1046)
        Each <psi_i|beta_j> matrix     22.34 Mb     (    1865,  785)
        Arrays for rho mixing          18.75 Mb     (  153600,    8)

     Initial potential from superposition of free atoms
     Check: negative starting charge=   -0.001495

     starting charge 1282.31751, renormalised to 1308.00000

     negative rho (up, down):  1.525E-03 0.000E+00
     Starting wfc are 1300 randomized atomic wfcs

     total cpu time spent up to now is      203.6 secs

     Self-consistent Calculation

     iteration #  1     ecut=    80.00 Ry     beta=0.70
     Davidson diagonalization with overlap
     c_bands:  4 eigenvalues not converged
     c_bands:  3 eigenvalues not converged
     c_bands:  4 eigenvalues not converged
     ethr =  1.00E-04,  avg # of iterations = 44.5

     negative rho (up, down):  2.457E+01 0.000E+00

     total cpu time spent up to now is     4900.4 secs

     total energy              =  -10071.70538339 Ry
     Harris-Foulkes estimate   =  -18275.42005955 Ry
     estimated scf accuracy    <  210224.32326136 Ry

     iteration #  2     ecut=    80.00 Ry     beta=0.70
     Davidson diagonalization with overlap
     ethr =  1.00E-02,  avg # of iterations = 14.8

     negative rho (up, down):  3.227E+01 0.000E+00

     total cpu time spent up to now is     6988.7 secs

     total energy              =  -11820.57103721 Ry
     Harris-Foulkes estimate   =  -13852.03207370 Ry
     estimated scf accuracy    <   37607.67438535 Ry

     iteration #  3     ecut=    80.00 Ry     beta=0.70
     Davidson diagonalization with overlap
     ethr =  1.00E-02,  avg # of iterations = 22.7

     negative rho (up, down):  3.082E+01 0.000E+00

     total cpu time spent up to now is     9234.6 secs

     total energy              =  -12145.15530590 Ry
     Harris-Foulkes estimate   =  -13808.26671697 Ry
     estimated scf accuracy    <    6637.88529180 Ry

     iteration #  4     ecut=    80.00 Ry     beta=0.70
     Davidson diagonalization with overlap
     ethr =  1.00E-02,  avg # of iterations =  4.0

     negative rho (up, down):  2.145E+01 0.000E+00

     total cpu time spent up to now is    10226.0 secs

     total energy              =  -12911.27910078 Ry
     Harris-Foulkes estimate   =  -13117.58135510 Ry
     estimated scf accuracy    <    1024.36678625 Ry

     iteration #  5     ecut=    80.00 Ry     beta=0.70
     Davidson diagonalization with overlap
     ethr =  1.00E-02,  avg # of iterations =  3.0

     negative rho (up, down):  1.776E+01 0.000E+00

     total cpu time spent up to now is    10725.1 secs

     total energy              =  -12908.23685080 Ry
     Harris-Foulkes estimate   =  -12976.97611289 Ry
     estimated scf accuracy    <    1621.74577295 Ry

     iteration #  6     ecut=    80.00 Ry     beta=0.70
     Davidson diagonalization with overlap
     ethr =  1.00E-02,  avg # of iterations =  2.0

     negative rho (up, down):  1.393E+01 0.000E+00

     total cpu time spent up to now is    11070.9 secs

     total energy              =  -12889.29295071 Ry
     Harris-Foulkes estimate   =  -12945.50594781 Ry
     estimated scf accuracy    <     682.55476274 Ry

     iteration #  7     ecut=    80.00 Ry     beta=0.70
     Davidson diagonalization with overlap
     ethr =  1.00E-02,  avg # of iterations =  2.0

     negative rho (up, down):  8.294E+00 0.000E+00

     total cpu time spent up to now is    11427.8 secs

     total energy              =  -12865.04250001 Ry
     Harris-Foulkes estimate   =  -12915.06200252 Ry
     estimated scf accuracy    <     425.83656156 Ry

     iteration #  8     ecut=    80.00 Ry     beta=0.70
     Davidson diagonalization with overlap
     ethr =  1.00E-02,  avg # of iterations =  2.0

     negative rho (up, down):  6.605E+00 0.000E+00

     total cpu time spent up to now is    11780.0 secs

     total energy              =  -12857.44965219 Ry
     Harris-Foulkes estimate   =  -12878.37078886 Ry
     estimated scf accuracy    <     279.86457011 Ry

     iteration #  9     ecut=    80.00 Ry     beta=0.70
     Davidson diagonalization with overlap
     ethr =  1.00E-02,  avg # of iterations =  2.0

     negative rho (up, down):  4.894E+00 0.000E+00

     total cpu time spent up to now is    12128.0 secs

     total energy              =  -12845.51806349 Ry
     Harris-Foulkes estimate   =  -12862.55701297 Ry
     estimated scf accuracy    <     204.19413291 Ry

     iteration # 10     ecut=    80.00 Ry     beta=0.70
     Davidson diagonalization with overlap
     ethr =  1.00E-02,  avg # of iterations =  1.0

     negative rho (up, down):  1.111E+00 0.000E+00

     total cpu time spent up to now is    12456.9 secs

     total energy              =  -12812.51385593 Ry
     Harris-Foulkes estimate   =  -12847.24707655 Ry
     estimated scf accuracy    <     182.08803946 Ry

     iteration # 11     ecut=    80.00 Ry     beta=0.70
     Davidson diagonalization with overlap
     ethr =  1.00E-02,  avg # of iterations =  2.0

     negative rho (up, down):  5.219E-01 0.000E+00

     total cpu time spent up to now is    12805.8 secs

     total energy              =  -12804.37052395 Ry
     Harris-Foulkes estimate   =  -12823.50592249 Ry
     estimated scf accuracy    <     344.59648044 Ry

     iteration # 12     ecut=    80.00 Ry     beta=0.70
     Davidson diagonalization with overlap
     ethr =  1.00E-02,  avg # of iterations =  1.0

     negative rho (up, down):  3.133E-01 0.000E+00

     total cpu time spent up to now is    13133.4 secs

     total energy              =  -12801.78436760 Ry
     Harris-Foulkes estimate   =  -12811.25712715 Ry
     estimated scf accuracy    <      69.94304992 Ry

     iteration # 13     ecut=    80.00 Ry     beta=0.70
     Davidson diagonalization with overlap
     ethr =  5.35E-03,  avg # of iterations =  2.3

     negative rho (up, down):  2.950E+00 0.000E+00

     total cpu time spent up to now is    13487.9 secs

     total energy              =  -12792.76184466 Ry
     Harris-Foulkes estimate   =  -12806.91620555 Ry
     estimated scf accuracy    <      51.81343063 Ry

     iteration # 14     ecut=    80.00 Ry     beta=0.70
     Davidson diagonalization with overlap
     ethr =  3.96E-03,  avg # of iterations =  2.8

     negative rho (up, down):  2.811E+00 0.000E+00

     total cpu time spent up to now is    13853.5 secs

     total energy              =  -12790.90544444 Ry
     Harris-Foulkes estimate   =  -12794.72181321 Ry
     estimated scf accuracy    <      27.25472714 Ry

     iteration # 15     ecut=    80.00 Ry     beta=0.70
     Davidson diagonalization with overlap
     ethr =  2.08E-03,  avg # of iterations =  5.0

     negative rho (up, down):  5.033E+00 0.000E+00

     total cpu time spent up to now is    14263.3 secs

     total energy              =  -12787.95714427 Ry
     Harris-Foulkes estimate   =  -12792.50553932 Ry
     estimated scf accuracy    <      19.37887470 Ry

     iteration # 16     ecut=    80.00 Ry     beta=0.70
     Davidson diagonalization with overlap
     ethr =  1.48E-03,  avg # of iterations =  3.8

     negative rho (up, down):  5.002E+00 0.000E+00

     total cpu time spent up to now is    14654.3 secs

     total energy              =  -12787.71825199 Ry
     Harris-Foulkes estimate   =  -12789.01327047 Ry
     estimated scf accuracy    <      10.80926105 Ry

     iteration # 17     ecut=    80.00 Ry     beta=0.70
     Davidson diagonalization with overlap
     ethr =  8.26E-04,  avg # of iterations =  6.2

     negative rho (up, down):  3.907E+00 0.000E+00

     total cpu time spent up to now is    15097.0 secs

     total energy              =  -12786.91448255 Ry
     Harris-Foulkes estimate   =  -12788.18029767 Ry
     estimated scf accuracy    <       8.06895751 Ry

     iteration # 18     ecut=    80.00 Ry     beta=0.70
     Davidson diagonalization with overlap
     ethr =  6.17E-04,  avg # of iterations =  3.8

     negative rho (up, down):  3.051E+00 0.000E+00

     total cpu time spent up to now is    15483.9 secs

     total energy              =  -12786.17994118 Ry
     Harris-Foulkes estimate   =  -12787.11057442 Ry
     estimated scf accuracy    <       7.45297899 Ry

     iteration # 19     ecut=    80.00 Ry     beta=0.70
     Davidson diagonalization with overlap
     ethr =  5.70E-04,  avg # of iterations =  3.2

     negative rho (up, down):  2.543E+00 0.000E+00

     total cpu time spent up to now is    15853.9 secs

     total energy              =  -12785.96022372 Ry
     Harris-Foulkes estimate   =  -12786.30988875 Ry
     estimated scf accuracy    <       7.66096395 Ry

     iteration # 20     ecut=    80.00 Ry     beta=0.70
     Davidson diagonalization with overlap
     ethr =  5.70E-04,  avg # of iterations =  2.2

     negative rho (up, down):  1.977E+00 0.000E+00

     total cpu time spent up to now is    16207.4 secs

     total energy              =  -12785.01792049 Ry
     Harris-Foulkes estimate   =  -12786.15029931 Ry
     estimated scf accuracy    <       6.19842452 Ry

     iteration # 21     ecut=    80.00 Ry     beta=0.70
     Davidson diagonalization with overlap
     ethr =  4.74E-04,  avg # of iterations =  2.2

     negative rho (up, down):  3.455E-01 0.000E+00

     total cpu time spent up to now is    16558.9 secs

     total energy              =  -12783.12620576 Ry
     Harris-Foulkes estimate   =  -12785.23631849 Ry
     estimated scf accuracy    <       6.11816252 Ry

     iteration # 22     ecut=    80.00 Ry     beta=0.70
     Davidson diagonalization with overlap
     ethr =  4.68E-04,  avg # of iterations =  5.2

     negative rho (up, down):  5.219E-01 0.000E+00

     total cpu time spent up to now is    16979.0 secs

     total energy              =  -12782.51572476 Ry
     Harris-Foulkes estimate   =  -12783.28404511 Ry
     estimated scf accuracy    <       2.60343716 Ry

     iteration # 23     ecut=    80.00 Ry     beta=0.70
     Davidson diagonalization with overlap
     ethr =  1.99E-04,  avg # of iterations =  9.3

     negative rho (up, down):  8.675E-01 0.000E+00

     total cpu time spent up to now is    17526.7 secs

     total energy              =  -12782.19663948 Ry
     Harris-Foulkes estimate   =  -12782.77584135 Ry
     estimated scf accuracy    <       3.09334930 Ry

     iteration # 24     ecut=    80.00 Ry     beta=0.70
     Davidson diagonalization with overlap
     ethr =  1.99E-04,  avg # of iterations =  6.8

     negative rho (up, down):  7.376E-01 0.000E+00

     total cpu time spent up to now is    18002.2 secs

     total energy              =  -12782.14825204 Ry
     Harris-Foulkes estimate   =  -12782.30908393 Ry
     estimated scf accuracy    <       0.76490268 Ry

     iteration # 25     ecut=    80.00 Ry     beta=0.70
     Davidson diagonalization with overlap
     ethr =  5.85E-05,  avg # of iterations =  6.7

     negative rho (up, down):  7.540E-01 0.000E+00

     total cpu time spent up to now is    18467.7 secs

     total energy              =  -12782.09413462 Ry
     Harris-Foulkes estimate   =  -12782.19217746 Ry
     estimated scf accuracy    <       0.48710199 Ry

     iteration # 26     ecut=    80.00 Ry     beta=0.70
     Davidson diagonalization with overlap
     ethr =  3.72E-05,  avg # of iterations =  7.3

     negative rho (up, down):  5.296E-01 0.000E+00

     total cpu time spent up to now is    18995.8 secs

     total energy              =  -12782.08945996 Ry
     Harris-Foulkes estimate   =  -12782.12794913 Ry
     estimated scf accuracy    <       0.15044960 Ry

     iteration # 27     ecut=    80.00 Ry     beta=0.70
     Davidson diagonalization with overlap
     ethr =  1.15E-05,  avg # of iterations =  8.7

     negative rho (up, down):  2.312E-01 0.000E+00

     total cpu time spent up to now is    19519.1 secs

     total energy              =  -12782.08045571 Ry
     Harris-Foulkes estimate   =  -12782.10162591 Ry
     estimated scf accuracy    <       0.08063127 Ry

     iteration # 28     ecut=    80.00 Ry     beta=0.70
     Davidson diagonalization with overlap
     c_bands:  3 eigenvalues not converged
     c_bands:  1 eigenvalues not converged
     ethr =  6.16E-06,  avg # of iterations = 17.7

     negative rho (up, down):  1.329E-01 0.000E+00

     total cpu time spent up to now is    20318.8 secs

     total energy              =  -12782.08097533 Ry
     Harris-Foulkes estimate   =  -12782.08534974 Ry
     estimated scf accuracy    <       0.01370251 Ry

     iteration # 29     ecut=    80.00 Ry     beta=0.70
     Davidson diagonalization with overlap
     c_bands:  4 eigenvalues not converged
     c_bands:  1 eigenvalues not converged
     c_bands:  1 eigenvalues not converged
     ethr =  1.05E-06,  avg # of iterations = 17.7

     negative rho (up, down):  6.173E-02 0.000E+00

     total cpu time spent up to now is    21090.2 secs

     total energy              =  -12782.08047755 Ry
     Harris-Foulkes estimate   =  -12782.08254004 Ry
     estimated scf accuracy    <       0.00772233 Ry

     iteration # 30     ecut=    80.00 Ry     beta=0.70
     Davidson diagonalization with overlap
     c_bands:  1 eigenvalues not converged
     c_bands:  1 eigenvalues not converged
     ethr =  5.90E-07,  avg # of iterations = 15.5

     negative rho (up, down):  3.035E-02 0.000E+00

     total cpu time spent up to now is    21798.9 secs

     total energy              =  -12782.08045690 Ry
     Harris-Foulkes estimate   =  -12782.08102826 Ry
     estimated scf accuracy    <       0.00148761 Ry

     iteration # 31     ecut=    80.00 Ry     beta=0.70
     Davidson diagonalization with overlap
     c_bands:  1 eigenvalues not converged
     c_bands:  2 eigenvalues not converged
     c_bands:  1 eigenvalues not converged
     ethr =  1.14E-07,  avg # of iterations = 15.0

     negative rho (up, down):  1.494E-02 0.000E+00

     total cpu time spent up to now is    22475.7 secs

     total energy              =  -12782.08035647 Ry
     Harris-Foulkes estimate   =  -12782.08062295 Ry
     estimated scf accuracy    <       0.00088766 Ry

     iteration # 32     ecut=    80.00 Ry     beta=0.70
     Davidson diagonalization with overlap
     ethr =  6.79E-08,  avg # of iterations = 10.8

     negative rho (up, down):  5.130E-03 0.000E+00

     total cpu time spent up to now is    23045.3 secs

     total energy              =  -12782.08034980 Ry
     Harris-Foulkes estimate   =  -12782.08042766 Ry
     estimated scf accuracy    <       0.00014186 Ry

     iteration # 33     ecut=    80.00 Ry     beta=0.70
     Davidson diagonalization with overlap
     c_bands:  3 eigenvalues not converged
     ethr =  1.08E-08,  avg # of iterations = 11.2

     negative rho (up, down):  1.973E-03 0.000E+00

     total cpu time spent up to now is    23638.5 secs

     total energy              =  -12782.08032709 Ry
     Harris-Foulkes estimate   =  -12782.08036109 Ry
     estimated scf accuracy    <       0.00005095 Ry

     iteration # 34     ecut=    80.00 Ry     beta=0.70
     Davidson diagonalization with overlap
     ethr =  3.90E-09,  avg # of iterations =  7.7

     negative rho (up, down):  1.249E-03 0.000E+00

     total cpu time spent up to now is    24141.3 secs

     total energy              =  -12782.08034926 Ry
     Harris-Foulkes estimate   =  -12782.08033319 Ry
     estimated scf accuracy    <       0.00002825 Ry

     iteration # 35     ecut=    80.00 Ry     beta=0.70
     Davidson diagonalization with overlap
     ethr =  2.16E-09,  avg # of iterations =  6.0

     negative rho (up, down):  1.251E-03 0.000E+00

     total cpu time spent up to now is    24601.9 secs

     total energy              =  -12782.08036528 Ry
     Harris-Foulkes estimate   =  -12782.08035195 Ry
     estimated scf accuracy    <       0.00000917 Ry

     iteration # 36     ecut=    80.00 Ry     beta=0.70
     Davidson diagonalization with overlap
     ethr =  7.01E-10,  avg # of iterations =  5.3

     negative rho (up, down):  1.275E-03 0.000E+00

     total cpu time spent up to now is    25058.9 secs

     total energy              =  -12782.08036844 Ry
     Harris-Foulkes estimate   =  -12782.08036629 Ry
     estimated scf accuracy    <       0.00000298 Ry

     iteration # 37     ecut=    80.00 Ry     beta=0.70
     Davidson diagonalization with overlap
     ethr =  2.28E-10,  avg # of iterations =  2.8

     negative rho (up, down):  1.472E-03 0.000E+00

     total cpu time spent up to now is    25445.0 secs

     total energy              =  -12782.08037104 Ry
     Harris-Foulkes estimate   =  -12782.08036884 Ry
     estimated scf accuracy    <       0.00000158 Ry

     iteration # 38     ecut=    80.00 Ry     beta=0.70
     Davidson diagonalization with overlap
     ethr =  1.21E-10,  avg # of iterations =  4.3

     negative rho (up, down):  1.508E-03 0.000E+00

     total cpu time spent up to now is    25857.6 secs

     total energy              =  -12782.08037133 Ry
     Harris-Foulkes estimate   =  -12782.08037115 Ry
     estimated scf accuracy    <       0.00000041 Ry

     iteration # 39     ecut=    80.00 Ry     beta=0.70
     Davidson diagonalization with overlap
     ethr =  3.17E-11,  avg # of iterations =  3.0

     negative rho (up, down):  1.570E-03 0.000E+00

     total cpu time spent up to now is    26245.3 secs

     total energy              =  -12782.08037143 Ry
     Harris-Foulkes estimate   =  -12782.08037136 Ry
     estimated scf accuracy    <       0.00000024 Ry

     iteration # 40     ecut=    80.00 Ry     beta=0.70
     Davidson diagonalization with overlap
     ethr =  1.86E-11,  avg # of iterations =  2.8

     negative rho (up, down):  1.587E-03 0.000E+00

     total cpu time spent up to now is    26636.4 secs

     total energy              =  -12782.08037140 Ry
     Harris-Foulkes estimate   =  -12782.08037145 Ry
     estimated scf accuracy    <       0.00000014 Ry

     iteration # 41     ecut=    80.00 Ry     beta=0.70
     Davidson diagonalization with overlap
     ethr =  1.08E-11,  avg # of iterations =  2.2

     negative rho (up, down):  1.603E-03 0.000E+00

     total cpu time spent up to now is    27006.7 secs

     total energy              =  -12782.08037137 Ry
     Harris-Foulkes estimate   =  -12782.08037142 Ry
     estimated scf accuracy    <       0.00000009 Ry

     iteration # 42     ecut=    80.00 Ry     beta=0.70
     Davidson diagonalization with overlap
     ethr =  6.95E-12,  avg # of iterations =  2.0

     negative rho (up, down):  1.624E-03 0.000E+00

     total cpu time spent up to now is    27376.6 secs

     total energy              =  -12782.08037133 Ry
     Harris-Foulkes estimate   =  -12782.08037137 Ry
     estimated scf accuracy    <       0.00000002 Ry

     iteration # 43     ecut=    80.00 Ry     beta=0.70
     Davidson diagonalization with overlap
     ethr =  1.60E-12,  avg # of iterations =  2.0

     negative rho (up, down):  1.645E-03 0.000E+00

     total cpu time spent up to now is    27732.3 secs

     End of self-consistent calculation

          k = 0.0000 0.0000 0.0000 (256287 PWs)   bands (ev):

   -20.2443 -18.3713 -16.8967 -15.7741 -15.6559 -15.0125 -14.6385 -14.3893
   -14.2826 -13.7866 -13.7500 -13.7060 -13.6877 -13.0773 -12.9528 -12.7437
   -12.7207 -12.6908 -12.6675 -11.3162 -11.1620 -11.1256 -11.0244 -10.9333
    -9.9501  -9.4419  -9.4175  -9.2489  -9.2012  -8.5805  -8.3804  -8.2655
    -8.1742  -7.7054  -7.4924  -7.4322  -7.2673  -7.2288  -7.1753  -7.1402
    -7.0991  -6.5852  -6.0034  -5.9860  -5.8743  -5.7532  -5.6708  -5.6143
    -5.5566  -5.5408  -5.5303  -5.3598  -5.3379  -5.1179  -4.8729  -4.7989
    -4.6426  -4.5014  -4.4769  -4.3821  -4.2873  -4.2295  -4.2137  -4.0241
    -3.8575  -3.8464  -3.7723  -3.7066  -3.6024  -3.3512  -3.3072  -3.2862
    -3.2711  -3.2672  -3.2353  -3.1369  -3.0965  -3.0694  -2.9223  -2.8909
    -2.8822  -2.8752  -2.8712  -2.8657  -2.8494  -2.7020  -2.6357  -2.6321
    -2.5614  -2.5218  -2.4669  -2.4573  -2.4258  -2.4049  -2.3847  -2.3511
    -2.2480  -2.1708  -2.1652  -2.1634  -2.1429  -2.0681  -2.0646  -2.0375
    -2.0352  -2.0319  -2.0311  -2.0220  -1.9025  -1.9008  -1.8932  -1.8917
    -1.8744  -1.7691  -1.7384  -1.7307  -1.6585  -1.6226  -1.6216  -1.6167
    -1.6101  -1.6088  -1.6020  -1.5739  -1.5649  -1.5505  -1.5443  -1.5381
    -1.5284  -1.5209  -1.5111  -1.4876  -1.4575  -1.4523  -1.4479  -1.4365
    -1.4324  -1.4176  -1.4085  -1.4023  -1.3995  -1.3900  -1.3602  -1.3388
    -1.3142  -1.2967  -1.2393  -1.1914  -1.1863  -1.1813  -1.1754  -1.1680
    -1.1548  -1.1441  -1.1356  -1.1298  -1.1007  -1.0965  -1.0798  -1.0727
    -1.0627  -1.0493  -1.0278  -0.9421  -0.9379  -0.9361  -0.9334  -0.9315
    -0.9292  -0.9197  -0.9160  -0.9122  -0.9105  -0.9067  -0.8999  -0.8962
    -0.8899  -0.8874  -0.8812  -0.8776  -0.8725  -0.8373  -0.8341  -0.8238
    -0.8079  -0.7994  -0.7977  -0.7943  -0.7840  -0.7805  -0.7556  -0.7519
    -0.7429  -0.7406  -0.7395  -0.7377  -0.7366  -0.7343  -0.7341  -0.7294
    -0.7254  -0.7241  -0.7229  -0.7216  -0.7190  -0.7081  -0.7059  -0.6486
    -0.5989  -0.5753  -0.5722  -0.5708  -0.5670  -0.5549  -0.5361  -0.5326
    -0.5199  -0.5182  -0.5105  -0.5050  -0.5035  -0.5016  -0.4926  -0.4806
    -0.4761  -0.4668  -0.4537  -0.4517  -0.4437  -0.4411  -0.4355  -0.4331
    -0.4263  -0.4227  -0.3915  -0.3731  -0.3691  -0.3680  -0.3329  -0.3261
    -0.3234  -0.3123  -0.3072  -0.3067  -0.3025  -0.3009  -0.3000  -0.2956
    -0.2928  -0.2891  -0.2878  -0.2854  -0.2810  -0.2790  -0.2760  -0.2699
    -0.2684  -0.2453  -0.2399  -0.2306  -0.2248  -0.2141  -0.1853  -0.1830
    -0.1766  -0.1748  -0.1732  -0.1727  -0.1529  -0.1524  -0.1476  -0.1454
    -0.1390  -0.1351  -0.1335  -0.1311  -0.1259  -0.1245  -0.1132  -0.1114
    -0.1056  -0.1042  -0.1006  -0.0947  -0.0832  -0.0798  -0.0764  -0.0734
    -0.0703  -0.0666  -0.0486  -0.0279  -0.0253  -0.0181  -0.0123  -0.0041
    -0.0019   0.0214   0.0273   0.0363   0.0461   0.0519   0.0563   0.0586
     0.0594   0.0658   0.0705   0.0756   0.0844   0.0975   0.0983   0.1062
     0.1085   0.1115   0.1175   0.1258   0.1331   0.1356   0.1499   0.1510
     0.1549   0.1570   0.1606   0.1622   0.1690   0.1698   0.1711   0.1750
     0.1781   0.1832   0.1969   0.2031   0.2155   0.2176   0.2236   0.2313
     0.2457   0.2486   0.2688   0.2695   0.2794   0.2828   0.2918   0.2988
     0.3097   0.3204   0.3261   0.3437   0.3541   0.3569   0.3640   0.3750
     0.3831   0.3960   0.4022   0.4039   0.4047   0.4144   0.4169   0.4422
     0.4442   0.4630   0.4676   0.4694   0.4709   0.4808   0.4866   0.4899
     0.4941   0.5005   0.5023   0.5090   0.5268   0.5305   0.5462   0.5503
     0.5595   0.5632   0.5704   0.5733   0.5802   0.5850   0.5912   0.5931
     0.6077   0.6092   0.6143   0.6241   0.6283   0.6331   0.6403   0.6414
     0.6447   0.6487   0.6561   0.6570   0.6595   0.6619   0.6629   0.6703
     0.6719   0.6730   0.6801   0.6818   0.6841   0.6885   0.7059   0.7102
     0.7125   0.7174   0.7345   0.7401   0.7461   0.7499   0.7572   0.7600
     0.7631   0.7704   0.7726   0.7759   0.7827   0.7841   0.7853   0.7864
     0.7897   0.7918   0.7949   0.8004   0.8078   0.8199   0.8226   0.8284
     0.8333   0.8334   0.8413   0.8461   0.8462   0.8492   0.8503   0.8589
     0.8616   0.8682   0.8693   0.8724   0.8756   0.8868   0.9047   0.9107
     0.9219   0.9232   0.9286   0.9321   0.9476   0.9548   0.9610   0.9624
     0.9644   0.9721   0.9765   0.9773   0.9795   0.9946   0.9976   0.9978
     1.0002   1.0032   1.0152   1.0231   1.0260   1.0308   1.0331   1.0355
     1.0401   1.0442   1.0450   1.0479   1.0498   1.0543   1.0671   1.0881
     1.0896   1.0932   1.0955   1.1015   1.1067   1.1087   1.1162   1.1208
     1.1237   1.1281   1.1301   1.1320   1.1389   1.1396   1.1435   1.1491
     1.1538   1.1595   1.1640   1.1651   1.1753   1.1810   1.1863   1.1928
     1.1943   1.2011   1.2043   1.2064   1.2075   1.2095   1.2136   1.2168
     1.2196   1.2219   1.2246   1.2264   1.2293   1.2325   1.2356   1.2393
     1.2420   1.2540   1.2576   1.2668   1.2689   1.2716   1.2760   1.2816
     1.2893   1.2998   1.3100   1.3127   1.3162   1.3244   1.3247   1.3358
     1.3401   1.3428   1.3474   1.3505   1.3533   1.3574   1.3617   1.3659
     1.3710   1.3758   1.3783   1.3810   1.3818   1.3859   1.3895   1.3917
     1.3964   1.3975   1.4048   1.4057   1.4096   1.4114   1.4127   1.4163
     1.4183   1.4219   1.4262   1.4316   1.4334   1.4389   1.4418   1.4434
     1.4463   1.4511   1.4541   1.4594   1.4629   1.4635   1.4796   1.4817
     1.4835   1.4867   1.5012   1.5022   1.5022   1.5053   1.5181   1.5189
     1.5203   1.5252   1.5271   1.5287   1.5313   1.5317   1.5333   1.5349
     1.5357   1.5427   1.5530   1.5567   1.5574   1.5658   1.5676   1.5709
     1.5751   1.5771   1.5777   1.5794   1.5969   1.6025   1.6076   1.6135
     1.6202   1.6227   1.6526   1.6560   1.6591   1.6683   1.6775   1.6887
     1.6906   1.6977   1.7159   1.7231   1.7275   1.7284   1.7333   1.7373
     1.7523   1.7596   1.7772   1.7973   2.0295   2.0540   2.1625   2.1729
     2.2062   2.2559   2.2992   2.3013   2.3073   2.3091   2.3114   2.3216
     2.3237   2.3260   2.4497   2.4527   2.5222   2.5228   2.5655   2.5717
     2.6017   2.6493   2.7508   2.8065   2.8117   2.8380   2.9118   3.1203
     3.1953   3.3169   3.3464   3.5627   3.5832   3.8521   3.8774   3.9110
     3.9284   3.9403   3.9483   3.9520   4.0025   4.0393   4.0465   4.0703
     4.0949   4.1087   4.1122   4.1157   4.1201   4.2228   4.2433   4.2586
     4.2782   4.4686   4.6835   4.7303   4.8789   5.1031   5.2046   5.2464
     5.2633   5.3821   5.4122   5.4334   5.6387   5.6784   5.7455   5.8761
     6.0229   6.0254   6.0550   6.2682   6.2850   6.3894   6.4550   6.4839
     6.5155   6.5469   6.5917   6.6145   6.6397   6.7381   6.7593   6.8327
     6.8533   6.9811   6.9839   6.9978   7.0296   7.1024   7.1405   7.1668
     7.1836   7.2416   7.3325   7.3990   7.4631   7.4979   7.5332   7.5830
     7.6635   7.7636   7.7755   7.8442   7.9062   8.0802   8.1274   8.1649
     8.1751   8.2199   8.2516   8.2692   8.3687   8.3739   8.4022   8.4243
     8.4381   8.4433   8.5685   8.5788   8.6487   8.6514   8.6608   8.6802
     8.7214   8.7610   8.7822   8.8161   8.8796   8.8810   8.9018   8.9262
     8.9843   9.0520   9.1029   9.1145   9.1791   9.1880   9.2667   9.3787
     9.4269   9.4772   9.4908   9.5093   9.5163   9.5553   9.6486   9.6830
     9.7138   9.7930   9.8388   9.9361  10.0327  10.1468  10.1480  10.1653
    10.2022

          k = 0.0000-0.2165 0.0000 (256176 PWs)   bands (ev):

   -20.2443 -18.3713 -16.8964 -15.8460 -15.4644 -15.2325 -14.6727 -14.2746
   -13.9164 -13.8891 -13.8620 -13.8274 -13.4005 -13.3483 -13.2881 -13.2600
   -12.2344 -12.0440 -12.0028 -11.9169 -11.8182 -11.7271 -10.3126 -10.2022
   -10.1959 -10.0392  -9.1333  -9.0771  -8.9204  -8.7596  -8.5874  -8.5538
    -7.9865  -7.8800  -7.7805  -7.7474  -7.1362  -7.0095  -6.6728  -6.5987
    -6.5854  -6.5182  -6.4758  -6.4556  -6.4045  -5.9214  -5.8258  -5.7531
    -5.7293  -5.2342  -5.1204  -5.0696  -4.8959  -4.8688  -4.8030  -4.7142
    -4.6978  -4.6869  -4.6142  -4.5993  -4.5510  -4.4448  -4.3659  -4.3271
    -4.0465  -3.8060  -3.6430  -3.6296  -3.4094  -3.3953  -3.2335  -3.1816
    -3.1725  -3.1700  -3.1567  -3.1349  -3.0137  -2.9493  -2.9443  -2.8970
    -2.8925  -2.8011  -2.7469  -2.7279  -2.6342  -2.6133  -2.5756  -2.5520
    -2.5402  -2.5303  -2.4971  -2.4574  -2.4550  -2.4518  -2.4468  -2.3473
    -2.3135  -2.2992  -2.2852  -2.2613  -2.1882  -2.1545  -2.1468  -2.0706
    -2.0630  -2.0378  -2.0052  -1.9978  -1.9956  -1.9881  -1.8653  -1.8645
    -1.8463  -1.8459  -1.8207  -1.7943  -1.7631  -1.6916  -1.6707  -1.6587
    -1.6478  -1.6354  -1.6300  -1.6164  -1.6144  -1.6014  -1.5977  -1.5581
    -1.5499  -1.5463  -1.5413  -1.5378  -1.5338  -1.5221  -1.4039  -1.3898
    -1.3705  -1.3464  -1.2961  -1.2626  -1.2563  -1.2352  -1.2092  -1.2082
    -1.1994  -1.1970  -1.1809  -1.1735  -1.1686  -1.1666  -1.1619  -1.1580
    -1.1544  -1.1484  -1.1370  -1.1278  -1.1255  -1.1128  -1.1079  -1.0991
    -1.0930  -1.0883  -1.0810  -1.0693  -1.0366  -1.0232  -1.0125  -0.9738
    -0.9709  -0.9700  -0.9546  -0.9492  -0.9427  -0.9360  -0.9333  -0.9301
    -0.8950  -0.8798  -0.8733  -0.8652  -0.8615  -0.8595  -0.8591  -0.8568
    -0.8512  -0.8170  -0.8151  -0.8115  -0.8082  -0.8033  -0.7915  -0.7893
    -0.7795  -0.7687  -0.7630  -0.7270  -0.7235  -0.7206  -0.7156  -0.7017
    -0.6977  -0.6969  -0.6917  -0.6756  -0.6722  -0.6623  -0.6473  -0.6406
    -0.6380  -0.6313  -0.6271  -0.5668  -0.5574  -0.5252  -0.5237  -0.5211
    -0.5186  -0.5086  -0.4981  -0.4953  -0.4931  -0.4914  -0.4911  -0.4873
    -0.4761  -0.4502  -0.4239  -0.4199  -0.4186  -0.4169  -0.4163  -0.4137
    -0.4090  -0.3960  -0.3914  -0.3838  -0.3831  -0.3777  -0.3740  -0.3478
    -0.3444  -0.3429  -0.3408  -0.3330  -0.3323  -0.3293  -0.3155  -0.2920
    -0.2903  -0.2725  -0.2688  -0.2546  -0.2507  -0.2178  -0.2158  -0.2021
    -0.1999  -0.1988  -0.1969  -0.1955  -0.1916  -0.1806  -0.1791  -0.1723
    -0.1577  -0.1507  -0.1463  -0.1441  -0.1425  -0.1367  -0.1347  -0.1332
    -0.1320  -0.1304  -0.1141  -0.1024  -0.1015  -0.0957  -0.0932  -0.0920
    -0.0886  -0.0868  -0.0762  -0.0568  -0.0484  -0.0435  -0.0398  -0.0374
    -0.0359  -0.0332  -0.0257  -0.0211  -0.0196  -0.0117   0.0022   0.0166
     0.0181   0.0235   0.0249   0.0269   0.0354   0.0376   0.0389   0.0417
     0.0434   0.0549   0.0776   0.0879   0.0933   0.1005   0.1008   0.1061
     0.1091   0.1162   0.1180   0.1272   0.1340   0.1396   0.1450   0.1468
     0.1578   0.1602   0.1657   0.1706   0.1750   0.1846   0.1890   0.1913
     0.1933   0.2083   0.2125   0.2197   0.2199   0.2224   0.2317   0.2398
     0.2457   0.2558   0.2570   0.2645   0.2668   0.2781   0.2807   0.2954
     0.2974   0.3092   0.3135   0.3221   0.3231   0.3279   0.3408   0.3410
     0.3543   0.3667   0.3868   0.3895   0.3935   0.3987   0.4053   0.4394
     0.4589   0.4640   0.4842   0.4956   0.5029   0.5074   0.5123   0.5162
     0.5265   0.5298   0.5333   0.5363   0.5385   0.5398   0.5442   0.5513
     0.5587   0.5717   0.5757   0.5837   0.5869   0.5924   0.5940   0.5974
     0.5990   0.6044   0.6057   0.6083   0.6133   0.6193   0.6232   0.6282
     0.6300   0.6338   0.6340   0.6371   0.6429   0.6445   0.6460   0.6549
     0.6620   0.6643   0.6693   0.6712   0.6761   0.6826   0.6854   0.6874
     0.6883   0.6911   0.7005   0.7038   0.7049   0.7067   0.7141   0.7172
     0.7321   0.7357   0.7425   0.7445   0.7507   0.7595   0.7612   0.7710
     0.7764   0.7817   0.7858   0.7904   0.7916   0.7936   0.7953   0.7972
     0.8010   0.8046   0.8201   0.8240   0.8265   0.8426   0.8490   0.8552
     0.8581   0.8608   0.8631   0.8675   0.8709   0.8780   0.8907   0.8951
     0.8970   0.8991   0.9019   0.9053   0.9372   0.9437   0.9833   0.9866
     1.0020   1.0031   1.0065   1.0101   1.0148   1.0168   1.0208   1.0221
     1.0230   1.0255   1.0271   1.0291   1.0317   1.0340   1.0380   1.0425
     1.0522   1.0590   1.0616   1.0634   1.0638   1.0678   1.0691   1.0747
     1.0765   1.0767   1.0798   1.0805   1.0834   1.0853   1.0868   1.0937
     1.0956   1.0991   1.1007   1.1024   1.1088   1.1120   1.1187   1.1227
     1.1288   1.1335   1.1355   1.1372   1.1416   1.1436   1.1453   1.1482
     1.1504   1.1530   1.1543   1.1605   1.1871   1.1910   1.1964   1.1982
     1.2273   1.2304   1.2311   1.2498   1.2696   1.2702   1.2727   1.2778
     1.2787   1.2878   1.2891   1.2953   1.2963   1.2970   1.3014   1.3021
     1.3059   1.3070   1.3086   1.3108   1.3140   1.3162   1.3181   1.3250
     1.3255   1.3283   1.3303   1.3353   1.3390   1.3398   1.3449   1.3490
     1.3555   1.3582   1.3632   1.3663   1.3703   1.3760   1.3813   1.3819
     1.3906   1.3914   1.3939   1.4006   1.4043   1.4063   1.4087   1.4129
     1.4201   1.4225   1.4295   1.4341   1.4354   1.4371   1.4405   1.4495
     1.4583   1.4674   1.4697   1.4742   1.4773   1.4827   1.4835   1.4847
     1.4864   1.4908   1.4929   1.4989   1.4999   1.5062   1.5091   1.5292
     1.5303   1.5363   1.5393   1.5439   1.5465   1.5469   1.5501   1.5515
     1.5534   1.5605   1.5692   1.5734   1.5815   1.5825   1.5869   1.5897
     1.5918   1.5974   1.6051   1.6072   1.6132   1.6153   1.6182   1.6205
     1.6286   1.6356   1.6574   1.6675   1.6723   1.6732   1.6956   1.7277
     1.7553   1.7606   1.7830   1.8215   1.8640   1.8667   1.8674   1.8693
     1.8766   1.8924   1.9021   1.9209   1.9241   1.9268   1.9347   1.9368
     1.9458   1.9685   2.0894   2.1840   2.3084   2.3480   2.4517   2.4539
     2.5203   2.5252   2.6024   2.6059   2.6324   2.6372   2.6803   2.6879
     2.6907   2.7139   2.7874   2.8012   2.8165   2.8203   2.9085   2.9122
     3.0258   3.0286   3.2682   3.2684   3.2744   3.2842   3.3001   3.3871
     3.7512   3.7810   3.8253   3.9522   4.0472   4.0526   4.1835   4.1854
     4.2736   4.3084   4.3779   4.3858   4.4416   4.4524   4.4753   4.5152
     4.5896   4.6267   4.7700   4.7958   5.1834   5.1982   5.2226   5.2801
     5.3707   5.4251   5.4515   5.4634   5.4715   5.5028   5.5761   5.7424
     5.8807   6.0126   6.0389   6.1376   6.2870   6.3126   6.3201   6.3211
     6.4036   6.4649   6.4988   6.6344   6.6851   6.7368   6.7559   6.8266
     6.8441   6.9002   7.0288   7.0787   7.1082   7.1376   7.1505   7.2148
     7.2204   7.2442   7.2566   7.2880   7.3848   7.4164   7.4286   7.4597
     7.5884   7.6587   7.7803   7.7943   7.8791   7.9263   7.9953   8.0876
     8.1907   8.2004   8.2770   8.2821   8.4545   8.4716   8.4754   8.5151
     8.5485   8.5588   8.6344   8.6718   8.7113   8.7338   8.7650   8.7711
     8.7956   8.8313   8.8489   8.8787   8.9440   8.9564   9.0229   9.0820
     9.1436   9.1833   9.1952   9.2065   9.3619   9.3800   9.4025   9.4041
     9.4293   9.4568   9.4609   9.5023   9.5216   9.5276   9.5646   9.5791
     9.5986   9.6620   9.8887   9.8956   9.9178   9.9898  10.0012  10.0195
    10.0494

          k = 0.2500 0.0000 0.0000 (256240 PWs)   bands (ev):

   -20.2442 -18.3714 -16.8465 -15.6702 -15.5341 -15.2489 -14.7063 -14.5777
   -14.5126 -14.4780 -13.6982 -13.5470 -13.3687 -12.8547 -12.7899 -12.6715
   -12.6158 -11.9699 -11.8674 -11.7373 -11.6772 -10.9440 -10.7799 -10.3952
   -10.2326 -10.0841  -9.8267  -9.5694  -9.5279  -9.0906  -8.8398  -8.7462
    -8.4052  -7.6848  -7.4514  -7.3883  -7.2441  -7.2015  -7.0936  -6.7306
    -6.6269  -6.5362  -5.9628  -5.8339  -5.6993  -5.6600  -5.5836  -5.5083
    -5.2218  -5.1710  -5.1569  -5.0820  -4.9816  -4.7842  -4.6880  -4.5847
    -4.5052  -4.3261  -4.2888  -4.2581  -4.2201  -4.1164  -4.0851  -4.0332
    -3.9906  -3.8670  -3.8555  -3.8299  -3.7133  -3.7010  -3.6439  -3.6295
    -3.4826  -3.3744  -3.3357  -3.3175  -3.3077  -3.1442  -3.1353  -3.0998
    -3.0838  -3.0530  -2.9767  -2.9492  -2.9180  -2.8928  -2.7857  -2.7763
    -2.6741  -2.6722  -2.6044  -2.5701  -2.5339  -2.4550  -2.3830  -2.2739
    -2.2453  -2.1950  -2.1844  -2.1637  -2.1124  -2.0670  -1.9770  -1.9745
    -1.9628  -1.9517  -1.9312  -1.8251  -1.7986  -1.7802  -1.7471  -1.6859
    -1.6847  -1.6818  -1.6807  -1.6790  -1.6757  -1.6694  -1.6558  -1.6479
    -1.6411  -1.6104  -1.5745  -1.5474  -1.5177  -1.5154  -1.4956  -1.4814
    -1.4651  -1.4574  -1.4552  -1.4540  -1.4440  -1.4412  -1.4319  -1.4196
    -1.3971  -1.3894  -1.3859  -1.3837  -1.3695  -1.2914  -1.2551  -1.2111
    -1.2047  -1.1986  -1.1780  -1.1581  -1.1492  -1.1301  -1.1257  -1.1214
    -1.1167  -1.1082  -1.0914  -1.0802  -1.0781  -1.0729  -1.0667  -1.0648
    -1.0576  -1.0495  -1.0284  -1.0237  -1.0175  -1.0151  -0.9972  -0.9915
    -0.9875  -0.9824  -0.9735  -0.9569  -0.9514  -0.9267  -0.9157  -0.9058
    -0.9022  -0.9010  -0.8968  -0.8933  -0.8895  -0.8874  -0.8853  -0.8783
    -0.8779  -0.8737  -0.8670  -0.8633  -0.8609  -0.8539  -0.8514  -0.8501
    -0.8460  -0.8347  -0.8252  -0.8007  -0.7806  -0.7708  -0.7591  -0.7364
    -0.7337  -0.7093  -0.7004  -0.6967  -0.6929  -0.6797  -0.6669  -0.6573
    -0.6553  -0.6388  -0.6322  -0.6299  -0.6247  -0.6128  -0.6049  -0.6022
    -0.5850  -0.4971  -0.4895  -0.4704  -0.4633  -0.4547  -0.4538  -0.4509
    -0.4400  -0.4382  -0.4350  -0.4333  -0.4225  -0.4133  -0.4091  -0.4074
    -0.3972  -0.3953  -0.3804  -0.3747  -0.3722  -0.3690  -0.3658  -0.3590
    -0.3567  -0.3532  -0.3521  -0.3397  -0.3286  -0.2946  -0.2934  -0.2815
    -0.2776  -0.2727  -0.2672  -0.2640  -0.2610  -0.2601  -0.2420  -0.2402
    -0.2350  -0.2317  -0.2264  -0.2210  -0.1947  -0.1899  -0.1846  -0.1796
    -0.1769  -0.1736  -0.1690  -0.1657  -0.1505  -0.1488  -0.1417  -0.1389
    -0.1380  -0.1308  -0.1234  -0.1207  -0.1005  -0.0888  -0.0870  -0.0841
    -0.0826  -0.0763  -0.0721  -0.0646  -0.0633  -0.0578  -0.0543  -0.0528
    -0.0275  -0.0231  -0.0074  -0.0049  -0.0020   0.0079   0.0105   0.0242
     0.0365   0.0438   0.0473   0.0625   0.0729   0.0796   0.0833   0.0859
     0.0899   0.0945   0.0993   0.1016   0.1027   0.1076   0.1203   0.1216
     0.1249   0.1263   0.1307   0.1351   0.1399   0.1434   0.1458   0.1496
     0.1546   0.1616   0.1646   0.1715   0.1815   0.1938   0.1977   0.2037
     0.2183   0.2225   0.2252   0.2305   0.2364   0.2420   0.2439   0.2470
     0.2495   0.2636   0.2697   0.2775   0.2843   0.3237   0.3306   0.3424
     0.3504   0.3537   0.3597   0.3641   0.3743   0.3836   0.3907   0.3936
     0.3943   0.3959   0.3998   0.4021   0.4044   0.4069   0.4105   0.4175
     0.4209   0.4291   0.4304   0.4381   0.4402   0.4431   0.4523   0.4574
     0.4717   0.4756   0.4845   0.4861   0.4921   0.4963   0.5141   0.5283
     0.5362   0.5429   0.5485   0.5528   0.5576   0.5598   0.5661   0.5690
     0.5786   0.5799   0.5833   0.5856   0.5957   0.6014   0.6072   0.6093
     0.6117   0.6123   0.6139   0.6156   0.6191   0.6294   0.6457   0.6549
     0.6572   0.6600   0.6620   0.6691   0.6730   0.6750   0.6819   0.6830
     0.6839   0.6922   0.7004   0.7034   0.7064   0.7166   0.7194   0.7244
     0.7316   0.7373   0.7383   0.7404   0.7427   0.7486   0.7549   0.7596
     0.7603   0.7645   0.7698   0.7740   0.7794   0.8054   0.8091   0.8119
     0.8189   0.8341   0.8439   0.8490   0.8522   0.8566   0.8608   0.8659
     0.8683   0.8732   0.8761   0.8802   0.8845   0.8917   0.8933   0.8963
     0.8986   0.9295   0.9339   0.9372   0.9446   0.9503   0.9556   0.9589
     0.9623   0.9663   0.9759   0.9843   0.9857   0.9872   0.9912   0.9934
     0.9955   1.0003   1.0038   1.0083   1.0111   1.0135   1.0162   1.0175
     1.0308   1.0435   1.0440   1.0605   1.0645   1.0734   1.0766   1.0888
     1.0915   1.0971   1.1026   1.1058   1.1075   1.1163   1.1170   1.1192
     1.1213   1.1220   1.1246   1.1286   1.1320   1.1373   1.1442   1.1478
     1.1499   1.1518   1.1566   1.1593   1.1607   1.1659   1.1710   1.1740
     1.1770   1.1801   1.1867   1.1897   1.1928   1.1943   1.1997   1.2077
     1.2122   1.2159   1.2184   1.2208   1.2248   1.2261   1.2282   1.2307
     1.2334   1.2346   1.2428   1.2473   1.2541   1.2622   1.2634   1.2746
     1.2773   1.2913   1.2935   1.2970   1.2979   1.3015   1.3153   1.3225
     1.3279   1.3292   1.3380   1.3525   1.3545   1.3558   1.3575   1.3610
     1.3632   1.3645   1.3690   1.3759   1.3775   1.3844   1.3894   1.3907
     1.3925   1.3953   1.4006   1.4042   1.4062   1.4099   1.4121   1.4146
     1.4178   1.4223   1.4252   1.4278   1.4298   1.4346   1.4421   1.4453
     1.4477   1.4516   1.4527   1.4574   1.4676   1.4732   1.4802   1.4829
     1.4877   1.4977   1.5049   1.5100   1.5151   1.5170   1.5180   1.5198
     1.5225   1.5273   1.5304   1.5322   1.5354   1.5359   1.5380   1.5393
     1.5452   1.5489   1.5522   1.5542   1.5566   1.5605   1.5633   1.5691
     1.5778   1.5796   1.5843   1.5851   1.5864   1.5896   1.5943   1.5994
     1.6037   1.6045   1.6086   1.6203   1.6242   1.6416   1.6451   1.6518
     1.6658   1.6748   1.6879   1.7218   1.7229   1.7285   1.7365   1.7578
     1.7793   1.8248   1.8377   1.8681   1.8776   1.9100   1.9343   1.9358
     2.0613   2.1322   2.1355   2.1384   2.1469   2.1741   2.1870   2.2384
     2.2688   2.3014   2.4389   2.6477   2.6611   2.6662   2.6998   3.0400
     3.0796   3.0807   3.2803   3.3010   3.3040   3.3194   3.3200   3.3727
     3.4031   3.5229   3.5930   3.6243   3.7033   3.7274   3.7716   3.7752
     3.7862   3.8309   3.8768   3.8932   3.9319   3.9609   4.0060   4.0433
     4.0708   4.1381   4.3704   4.3936   4.4109   4.5028   4.6695   4.7851
     4.8191   4.9137   4.9351   5.0931   5.1629   5.3052   5.3134   5.3407
     5.3585   5.4787   5.4924   5.5131   5.5335   5.5835   5.6020   5.6252
     5.6745   5.6894   5.7408   5.7612   5.7989   5.9427   6.0339   6.0782
     6.1083   6.1156   6.1363   6.1485   6.3901   6.5408   6.7258   6.7525
     6.7847   6.8018   6.8499   6.8588   6.9616   7.0086   7.0567   7.1021
     7.1262   7.1489   7.1633   7.1828   7.1997   7.2318   7.2779   7.3393
     7.3698   7.4202   7.5959   7.6250   7.6595   7.7028   7.7488   7.8198
     7.8310   7.9934   8.0668   8.0970   8.1570   8.1937   8.2289   8.2515
     8.2879   8.3141   8.3439   8.3644   8.3775   8.4921   8.5369   8.5433
     8.6082   8.7153   8.7257   8.8204   9.0421   9.0497   9.0558   9.0745
     9.0821   9.1672   9.2069   9.2210   9.2302   9.2947   9.3193   9.3424
     9.3777   9.4145   9.5200   9.5303   9.5704   9.5890   9.6091   9.6583
     9.6875   9.7159   9.7943   9.8128   9.8625   9.9042   9.9113   9.9543
    10.0110

          k = 0.2500-0.2165 0.0000 (256316 PWs)   bands (ev):

   -20.2442 -18.3714 -16.8463 -15.7227 -15.4495 -15.1171 -15.0451 -14.7315
   -14.2834 -14.1362 -13.8640 -13.7195 -13.3255 -12.8663 -12.8178 -12.7544
   -12.3413 -12.2305 -11.8401 -11.6756 -11.1315 -11.0399 -10.9513 -10.7700
   -10.5679 -10.1675  -9.4655  -9.3945  -9.0742  -9.0136  -8.7494  -8.7109
    -8.3353  -8.2425  -8.1077  -8.0374  -6.9273  -6.7314  -6.6394  -6.4880
    -6.2888  -6.2220  -6.1181  -5.9826  -5.9490  -5.7950  -5.7637  -5.5753
    -5.5576  -5.1530  -5.0769  -4.8956  -4.7581  -4.7195  -4.6711  -4.6183
    -4.5406  -4.5291  -4.4427  -4.4089  -4.2479  -4.2148  -4.2024  -4.1364
    -4.0614  -3.8920  -3.8090  -3.7668  -3.6957  -3.5068  -3.4976  -3.4363
    -3.3653  -3.3291  -3.3164  -3.2487  -3.2236  -3.1977  -3.1760  -3.0874
    -3.0401  -2.9865  -2.9016  -2.8779  -2.8347  -2.7932  -2.7824  -2.7766
    -2.7728  -2.6790  -2.6452  -2.5795  -2.5587  -2.5280  -2.4404  -2.4037
    -2.1912  -2.1870  -2.1514  -2.1171  -2.0741  -2.0512  -2.0489  -2.0286
    -2.0233  -1.9773  -1.8970  -1.8875  -1.8819  -1.8610  -1.7872  -1.7502
    -1.7291  -1.6962  -1.6934  -1.6878  -1.6613  -1.6452  -1.6159  -1.5949
    -1.5914  -1.5906  -1.5843  -1.5765  -1.5628  -1.5592  -1.5556  -1.5539
    -1.5505  -1.5455  -1.5397  -1.5140  -1.4742  -1.4602  -1.4538  -1.3855
    -1.3496  -1.3411  -1.2863  -1.2693  -1.2281  -1.2177  -1.1844  -1.1732
    -1.1685  -1.1622  -1.1513  -1.1496  -1.1431  -1.1415  -1.1308  -1.1247
    -1.1239  -1.1219  -1.1201  -1.1112  -1.1043  -1.0976  -1.0912  -1.0866
    -1.0765  -1.0591  -1.0542  -1.0512  -1.0403  -1.0204  -1.0169  -1.0139
    -1.0051  -1.0000  -0.9943  -0.9910  -0.9881  -0.9484  -0.9393  -0.9309
    -0.9224  -0.9105  -0.9057  -0.8883  -0.8841  -0.8815  -0.8691  -0.8622
    -0.8552  -0.8477  -0.8455  -0.8413  -0.8388  -0.8361  -0.8292  -0.8242
    -0.8120  -0.8050  -0.8012  -0.7962  -0.7760  -0.7545  -0.7465  -0.7412
    -0.7278  -0.6860  -0.6831  -0.6726  -0.6460  -0.6440  -0.6409  -0.6382
    -0.6304  -0.6051  -0.5946  -0.5943  -0.5909  -0.5845  -0.5795  -0.5730
    -0.5681  -0.5577  -0.5250  -0.5190  -0.4992  -0.4968  -0.4873  -0.4768
    -0.4607  -0.4589  -0.4530  -0.4484  -0.4335  -0.4295  -0.4183  -0.4107
    -0.3940  -0.3885  -0.3812  -0.3790  -0.3779  -0.3686  -0.3645  -0.3499
    -0.3373  -0.3137  -0.3102  -0.3073  -0.2973  -0.2945  -0.2855  -0.2838
    -0.2816  -0.2765  -0.2706  -0.2656  -0.2570  -0.2540  -0.2527  -0.2498
    -0.2413  -0.2332  -0.2300  -0.2258  -0.2163  -0.2065  -0.2038  -0.2000
    -0.1986  -0.1869  -0.1810  -0.1695  -0.1653  -0.1588  -0.1510  -0.1404
    -0.1344  -0.1297  -0.1286  -0.1271  -0.1228  -0.1163  -0.1029  -0.0881
    -0.0745  -0.0695  -0.0658  -0.0595  -0.0395  -0.0242  -0.0147   0.0010
     0.0027   0.0064   0.0090   0.0158   0.0235   0.0279   0.0322   0.0370
     0.0408   0.0453   0.0513   0.0562   0.0687   0.0709   0.0797   0.0824
     0.0876   0.0920   0.0954   0.1001   0.1045   0.1050   0.1069   0.1089
     0.1138   0.1185   0.1223   0.1243   0.1282   0.1321   0.1361   0.1392
     0.1457   0.1500   0.1680   0.1763   0.1797   0.1818   0.1886   0.1930
     0.2063   0.2144   0.2300   0.2364   0.2395   0.2475   0.2515   0.2542
     0.2696   0.2702   0.2719   0.2751   0.2798   0.2837   0.2863   0.2903
     0.3023   0.3202   0.3273   0.3506   0.3532   0.3647   0.3818   0.3865
     0.3902   0.3933   0.4000   0.4076   0.4091   0.4117   0.4223   0.4242
     0.4281   0.4330   0.4386   0.4445   0.4464   0.4487   0.4531   0.4673
     0.4797   0.4798   0.4877   0.4934   0.5014   0.5051   0.5075   0.5141
     0.5189   0.5245   0.5381   0.5436   0.5493   0.5540   0.5606   0.5660
     0.5714   0.5779   0.5844   0.5913   0.5926   0.5994   0.6042   0.6091
     0.6124   0.6149   0.6175   0.6260   0.6355   0.6417   0.6457   0.6522
     0.6861   0.6873   0.6907   0.6946   0.7008   0.7058   0.7115   0.7163
     0.7210   0.7231   0.7244   0.7256   0.7301   0.7368   0.7440   0.7527
     0.7555   0.7583   0.7631   0.7662   0.7715   0.7741   0.7775   0.7801
     0.7840   0.7870   0.7897   0.7940   0.7984   0.8018   0.8063   0.8080
     0.8123   0.8147   0.8168   0.8199   0.8234   0.8320   0.8346   0.8405
     0.8467   0.8560   0.8611   0.8637   0.8651   0.8722   0.8873   0.9046
     0.9146   0.9209   0.9276   0.9306   0.9337   0.9392   0.9440   0.9478
     0.9499   0.9514   0.9523   0.9590   0.9625   0.9655   0.9678   0.9700
     0.9729   0.9784   0.9903   0.9952   1.0005   1.0094   1.0110   1.0166
     1.0187   1.0246   1.0284   1.0307   1.0363   1.0400   1.0448   1.0525
     1.0617   1.0632   1.0726   1.0740   1.0787   1.0871   1.1024   1.1108
     1.1165   1.1196   1.1230   1.1334   1.1533   1.1576   1.1649   1.1741
     1.1840   1.1850   1.1897   1.1912   1.1940   1.1954   1.1983   1.1989
     1.2014   1.2034   1.2040   1.2074   1.2097   1.2108   1.2158   1.2198
     1.2284   1.2299   1.2342   1.2475   1.2504   1.2523   1.2542   1.2634
     1.2645   1.2686   1.2722   1.2757   1.2803   1.2832   1.2849   1.2882
     1.2912   1.2953   1.3019   1.3026   1.3065   1.3076   1.3101   1.3153
     1.3186   1.3249   1.3263   1.3303   1.3316   1.3321   1.3341   1.3428
     1.3455   1.3501   1.3536   1.3625   1.3655   1.3696   1.3710   1.3804
     1.3825   1.3892   1.3938   1.4007   1.4095   1.4127   1.4142   1.4165
     1.4288   1.4332   1.4365   1.4384   1.4389   1.4425   1.4482   1.4499
     1.4570   1.4604   1.4649   1.4677   1.4727   1.4757   1.4770   1.4809
     1.4837   1.4886   1.4910   1.4946   1.5033   1.5089   1.5121   1.5149
     1.5160   1.5187   1.5203   1.5227   1.5235   1.5286   1.5337   1.5353
     1.5394   1.5442   1.5463   1.5528   1.5550   1.5559   1.5588   1.5617
     1.5684   1.5734   1.5785   1.5808   1.5863   1.5950   1.6057   1.6068
     1.6099   1.6163   1.6215   1.6331   1.6406   1.6479   1.6499   1.6540
     1.6706   1.6780   1.6885   1.6975   1.7437   1.7587   1.7753   1.8214
     1.8259   1.8328   1.8387   1.8439   1.8496   1.8599   1.8717   1.8763
     1.8801   1.9652   2.0462   2.1552   2.2278   2.2287   2.2576   2.2643
     2.3488   2.4253   2.6832   2.6865   2.8262   2.8304   2.8698   2.8801
     2.8868   2.8913   2.9292   2.9577   3.0596   3.0813   3.0927   3.1959
     3.5501   3.5598   3.6003   3.6374   3.6426   3.7120   3.9079   3.9362
     3.9403   3.9646   4.0330   4.0623   4.0942   4.1809   4.2005   4.2124
     4.2684   4.2776   4.4769   4.4811   4.5821   4.5977   4.7002   4.7446
     4.7696   4.7966   4.8159   4.8864   4.9070   5.0326   5.1089   5.1167
     5.1659   5.2698   5.3250   5.4007   5.4205   5.4894   5.5219   5.5677
     5.6051   5.6418   5.8258   5.8541   5.8749   5.8958   5.9194   6.0453
     6.1988   6.2968   6.3456   6.5288   6.5727   6.6624   6.6863   6.7227
     6.7906   6.8162   6.8528   6.8936   6.9335   7.0299   7.0574   7.0767
     7.1986   7.2386   7.2594   7.2978   7.3258   7.3536   7.3795   7.4299
     7.4518   7.5006   7.5136   7.5401   7.5841   7.6396   7.7804   7.8059
     7.8180   7.8535   7.9077   7.9618   8.0363   8.1960   8.2142   8.2963
     8.3582   8.4498   8.5084   8.5510   8.6225   8.6364   8.6463   8.6726
     8.6956   8.7075   8.7697   8.7979   8.8688   8.8871   8.9210   8.9343
     8.9761   9.0502   9.1312   9.1732   9.2092   9.2301   9.2747   9.2776
     9.2882   9.3296   9.3521   9.3894   9.4183   9.4730   9.4818   9.5088
     9.5279   9.5466   9.6389   9.6729   9.6916   9.7179   9.9801   9.9842
    10.0282

          k =-0.5000 0.0000 0.0000 (256496 PWs)   bands (ev):

   -20.2442 -18.3715 -16.7870 -15.5869 -15.2933 -15.2101 -15.1553 -15.1103
   -14.3954 -14.2197 -14.0925 -14.0681 -12.8351 -12.5535 -12.3931 -12.3342
   -12.0693 -12.0229 -11.4489 -11.4355 -11.4025 -11.3458 -10.8200 -10.7877
   -10.7096 -10.4957  -9.9403  -9.9143  -9.6813  -9.3363  -8.7757  -8.7695
    -8.6138  -8.6008  -7.5375  -7.3445  -7.3146  -7.1249  -7.0722  -7.0320
    -6.5854  -5.9241  -5.8658  -5.4515  -5.2326  -5.1686  -5.1183  -4.9249
    -4.8429  -4.7195  -4.6755  -4.6678  -4.6559  -4.6480  -4.5139  -4.4986
    -4.4862  -4.4206  -4.3624  -4.3409  -4.3115  -4.2737  -4.2087  -4.2069
    -4.1267  -4.0974  -4.0629  -4.0556  -3.9859  -3.7152  -3.6482  -3.6357
    -3.6097  -3.5665  -3.3675  -3.2977  -3.2923  -3.2887  -3.2813  -3.2795
    -3.2323  -3.1677  -3.1238  -3.0963  -3.0593  -3.0343  -3.0317  -2.7740
    -2.5718  -2.5639  -2.5470  -2.5454  -2.5278  -2.5201  -2.5117  -2.5050
    -2.4914  -2.4659  -2.2768  -2.2528  -2.2313  -2.2136  -2.1519  -1.9815
    -1.9078  -1.8394  -1.7636  -1.7627  -1.7581  -1.7572  -1.7554  -1.7540
    -1.6773  -1.6722  -1.6692  -1.6199  -1.5600  -1.5432  -1.5341  -1.5325
    -1.5268  -1.5255  -1.4873  -1.4845  -1.4808  -1.4779  -1.4189  -1.4037
    -1.3857  -1.3845  -1.3708  -1.3164  -1.3053  -1.3042  -1.2974  -1.2959
    -1.2939  -1.2627  -1.2564  -1.2442  -1.2417  -1.2362  -1.2341  -1.2328
    -1.2298  -1.2210  -1.2143  -1.2070  -1.1901  -1.1844  -1.1830  -1.1762
    -1.1654  -1.1536  -1.1494  -1.1460  -1.1452  -1.1340  -1.1142  -1.0961
    -1.0937  -1.0722  -1.0680  -1.0651  -1.0602  -1.0580  -1.0543  -1.0406
    -1.0321  -1.0199  -1.0170  -1.0058  -0.9951  -0.9919  -0.9907  -0.9843
    -0.9792  -0.9622  -0.9588  -0.9483  -0.9441  -0.9050  -0.8860  -0.8714
    -0.8675  -0.8646  -0.8602  -0.8575  -0.8478  -0.8459  -0.8410  -0.8309
    -0.8161  -0.8121  -0.8098  -0.8079  -0.8009  -0.7985  -0.7971  -0.7928
    -0.7760  -0.7709  -0.7372  -0.7164  -0.7136  -0.7118  -0.7033  -0.6915
    -0.6766  -0.6747  -0.6063  -0.5982  -0.5946  -0.5926  -0.5832  -0.5531
    -0.5511  -0.5508  -0.5488  -0.5452  -0.5403  -0.5061  -0.5014  -0.5001
    -0.4908  -0.4893  -0.4866  -0.4858  -0.4836  -0.4816  -0.4714  -0.4634
    -0.4596  -0.4557  -0.4525  -0.3424  -0.3412  -0.3253  -0.3234  -0.3166
    -0.3134  -0.3086  -0.3021  -0.3008  -0.2983  -0.2961  -0.2940  -0.2901
    -0.2769  -0.2632  -0.2598  -0.2591  -0.2522  -0.2249  -0.2206  -0.2185
    -0.2142  -0.2118  -0.2062  -0.1975  -0.1949  -0.1885  -0.1861  -0.1831
    -0.1812  -0.1751  -0.1733  -0.1697  -0.1673  -0.1433  -0.1386  -0.1321
    -0.1316  -0.1174  -0.0967  -0.0956  -0.0942  -0.0862  -0.0414  -0.0394
    -0.0378  -0.0359  -0.0328  -0.0267  -0.0222  -0.0202  -0.0123   0.0150
     0.0206   0.0224   0.0306   0.0354   0.0549   0.0660   0.0666   0.0690
     0.0787   0.0822   0.0833   0.0855   0.0859   0.0939   0.0950   0.0961
     0.0996   0.1025   0.1309   0.1536   0.1667   0.1700   0.1718   0.1772
     0.1779   0.1822   0.1849   0.1861   0.1894   0.1917   0.1929   0.1967
     0.1972   0.1977   0.1986   0.2009   0.2035   0.2079   0.2128   0.2155
     0.2246   0.2272   0.2299   0.2320   0.2330   0.2357   0.2381   0.2390
     0.2442   0.2494   0.2561   0.2642   0.2664   0.2697   0.2735   0.2972
     0.2983   0.3000   0.3055   0.3442   0.3746   0.3788   0.3866   0.4012
     0.4049   0.4076   0.4099   0.4145   0.4208   0.4291   0.4374   0.4387
     0.4422   0.4479   0.4529   0.4598   0.4673   0.4750   0.4771   0.4786
     0.4809   0.4870   0.4913   0.4940   0.4941   0.4972   0.5002   0.5052
     0.5073   0.5097   0.5105   0.5152   0.5180   0.5226   0.5613   0.5878
     0.5943   0.5979   0.6020   0.6137   0.6143   0.6166   0.6215   0.6278
     0.6339   0.6364   0.6415   0.6421   0.6445   0.6455   0.6464   0.6484
     0.6525   0.6570   0.6587   0.6602   0.6646   0.6659   0.6701   0.6734
     0.6761   0.6769   0.6831   0.6964   0.7048   0.7060   0.7162   0.7294
     0.7314   0.7370   0.7406   0.7436   0.7469   0.7494   0.7523   0.7548
     0.7580   0.7593   0.7622   0.7631   0.7654   0.7664   0.7678   0.7756
     0.7840   0.7931   0.8016   0.8121   0.8220   0.8236   0.8287   0.8325
     0.8373   0.8407   0.8433   0.8454   0.8658   0.8706   0.8775   0.8850
     0.9011   0.9092   0.9124   0.9175   0.9243   0.9326   0.9347   0.9351
     0.9357   0.9376   0.9423   0.9468   0.9482   0.9534   0.9553   0.9587
     0.9639   0.9654   0.9737   0.9753   0.9866   0.9916   0.9930   0.9941
     0.9977   0.9999   1.0100   1.0132   1.0159   1.0206   1.0235   1.0259
     1.0352   1.0367   1.0472   1.0562   1.0777   1.1067   1.1134   1.1152
     1.1166   1.1168   1.1245   1.1354   1.1384   1.1433   1.1573   1.1616
     1.1684   1.1693   1.1733   1.1754   1.1815   1.1871   1.1937   1.1996
     1.2099   1.2109   1.2137   1.2153   1.2166   1.2194   1.2238   1.2248
     1.2294   1.2319   1.2362   1.2370   1.2407   1.2427   1.2440   1.2490
     1.2498   1.2545   1.2567   1.2623   1.2645   1.2680   1.2716   1.2736
     1.2765   1.2891   1.3083   1.3102   1.3122   1.3162   1.3178   1.3243
     1.3277   1.3300   1.3335   1.3356   1.3384   1.3405   1.3410   1.3426
     1.3435   1.3488   1.3512   1.3615   1.3634   1.3738   1.3898   1.3955
     1.3961   1.3996   1.4002   1.4014   1.4030   1.4050   1.4110   1.4130
     1.4137   1.4162   1.4177   1.4245   1.4297   1.4316   1.4334   1.4353
     1.4363   1.4388   1.4428   1.4441   1.4477   1.4498   1.4528   1.4538
     1.4546   1.4579   1.4642   1.4658   1.4689   1.4736   1.4794   1.4946
     1.5007   1.5043   1.5052   1.5095   1.5123   1.5137   1.5158   1.5166
     1.5256   1.5306   1.5361   1.5383   1.5406   1.5443   1.5451   1.5472
     1.5512   1.5558   1.5602   1.5642   1.5687   1.5772   1.5863   1.5878
     1.5898   1.5923   1.5958   1.5976   1.6012   1.6098   1.6108   1.6116
     1.6140   1.6264   1.6292   1.6431   1.6499   1.6696   1.6718   1.6879
     1.6977   1.7063   1.7080   1.7189   1.7381   1.7791   2.0896   2.0942
     2.1334   2.1363   2.2932   2.3166   2.3387   2.3501   2.3920   2.3933
     2.3944   2.3981   2.6169   2.6296   2.7068   2.7933   2.9261   2.9277
     2.9371   2.9588   3.2857   3.2904   3.2980   3.3006   3.5624   3.5690
     3.7305   3.7648   3.7793   3.8197   3.9148   3.9858   4.0017   4.0218
     4.0475   4.1180   4.1560   4.1687   4.1809   4.1942   4.2588   4.3474
     4.6387   4.6603   4.7578   4.7745   4.7926   4.8853   4.9213   4.9385
     4.9509   4.9751   5.0855   5.1137   5.1197   5.1274   5.1373   5.1417
     5.1471   5.1653   5.1658   5.1811   5.2236   5.3717   5.4635   5.5170
     5.5245   5.5442   5.5576   5.5857   5.6242   5.6627   5.8047   5.9904
     5.9996   6.0368   6.0609   6.0803   6.0952   6.1079   6.1223   6.1632
     6.2498   6.2728   6.3144   6.4039   6.4760   6.5824   6.6865   6.7423
     6.8725   7.1146   7.1227   7.1250   7.1595   7.2003   7.2634   7.3370
     7.6019   7.6384   7.6467   7.6607   7.6715   7.6769   7.7213   7.7729
     7.8797   7.9019   7.9457   7.9485   7.9913   8.0071   8.0270   8.0472
     8.0755   8.0897   8.1001   8.1579   8.2289   8.2638   8.4995   8.6722
     8.7336   8.7389   8.7672   8.8213   8.8718   8.8771   8.8861   8.8999
     9.0512   9.0526   9.0818   9.0953   9.1370   9.1863   9.2820   9.3630
     9.3749   9.4840   9.4854   9.5275   9.5432   9.5488   9.5492   9.5543
     9.5548   9.5688   9.5930   9.6152   9.6812   9.7378   9.8706   9.9331
    10.0468

          k =-0.5000-0.2165 0.0000 (256328 PWs)   bands (ev):

   -20.2442 -18.3715 -16.7870 -15.5646 -15.3814 -15.3234 -14.9703 -14.7915
   -14.7193 -14.6767 -13.6741 -13.4495 -13.3200 -13.2697 -12.3024 -12.0487
   -11.6223 -11.5517 -11.5179 -11.4006 -11.3448 -11.2393 -11.1587 -11.1190
   -10.9763 -10.9676  -9.6822  -9.6632  -9.3514  -9.3246  -8.9152  -8.5639
    -8.4615  -8.4076  -7.9679  -7.9235  -7.6744  -7.6678  -6.6182  -6.2539
    -5.9683  -5.8309  -5.6629  -5.5314  -5.3244  -5.2041  -5.0524  -5.0461
    -5.0431  -5.0304  -5.0050  -4.9599  -4.9318  -4.7978  -4.7071  -4.5444
    -4.5078  -4.4900  -4.1351  -4.0983  -4.0659  -4.0582  -4.0541  -4.0411
    -4.0185  -3.9766  -3.9628  -3.9274  -3.9262  -3.8483  -3.7890  -3.7379
    -3.6386  -3.5762  -3.4623  -3.4067  -3.3790  -3.3403  -3.2982  -3.2831
    -3.2725  -3.2010  -3.1285  -3.1119  -3.1098  -3.1001  -2.7308  -2.7050
    -2.6396  -2.5188  -2.4695  -2.4608  -2.4569  -2.4527  -2.4507  -2.4414
    -2.4245  -2.3689  -2.3181  -2.2701  -2.1459  -2.0828  -1.9572  -1.9540
    -1.9531  -1.9499  -1.9482  -1.9388  -1.9278  -1.8889  -1.8392  -1.7776
    -1.7246  -1.6861  -1.6844  -1.6826  -1.6783  -1.6485  -1.4977  -1.4790
    -1.4758  -1.4672  -1.4419  -1.3857  -1.3834  -1.3806  -1.3775  -1.3763
    -1.3733  -1.3699  -1.3318  -1.3275  -1.3259  -1.3114  -1.3111  -1.2850
    -1.2784  -1.2717  -1.2661  -1.2604  -1.2580  -1.2548  -1.2543  -1.2459
    -1.2437  -1.2427  -1.2402  -1.2224  -1.1959  -1.1946  -1.1746  -1.1644
    -1.1629  -1.1481  -1.1351  -1.1053  -1.0957  -1.0920  -1.0885  -1.0731
    -1.0677  -1.0644  -1.0535  -1.0451  -1.0355  -1.0317  -1.0287  -1.0207
    -1.0184  -1.0153  -1.0123  -1.0052  -1.0028  -1.0017  -0.9964  -0.9870
    -0.9795  -0.9658  -0.9576  -0.9534  -0.9460  -0.9438  -0.9406  -0.9365
    -0.9288  -0.9266  -0.9163  -0.9140  -0.9132  -0.9127  -0.9064  -0.8953
    -0.8100  -0.7710  -0.7586  -0.7543  -0.7535  -0.7497  -0.7436  -0.7421
    -0.7377  -0.7350  -0.7257  -0.6924  -0.6691  -0.6666  -0.6611  -0.6570
    -0.6525  -0.6435  -0.6427  -0.6392  -0.6389  -0.6365  -0.6285  -0.6173
    -0.5889  -0.5840  -0.5833  -0.5813  -0.5670  -0.5609  -0.5604  -0.5569
    -0.5551  -0.5407  -0.5212  -0.5179  -0.4448  -0.4399  -0.4350  -0.4277
    -0.4251  -0.4229  -0.4214  -0.4060  -0.3841  -0.3802  -0.3785  -0.3778
    -0.3363  -0.3355  -0.3330  -0.3275  -0.3166  -0.3127  -0.3105  -0.3074
    -0.2855  -0.2838  -0.2754  -0.2745  -0.2694  -0.2661  -0.2502  -0.2436
    -0.2102  -0.1970  -0.1867  -0.1775  -0.1756  -0.1723  -0.1601  -0.1545
    -0.1463  -0.1446  -0.1409  -0.1399  -0.1391  -0.1288  -0.1258  -0.1149
    -0.1059  -0.0681  -0.0632  -0.0613  -0.0538  -0.0533  -0.0526  -0.0499
    -0.0468  -0.0388  -0.0367  -0.0316  -0.0312  -0.0166  -0.0149  -0.0118
    -0.0096   0.0039   0.0094   0.0134   0.0158   0.0193   0.0214   0.0218
     0.0242   0.0748   0.0808   0.0823   0.0881   0.0902   0.1027   0.1389
     0.1454   0.1486   0.1553   0.1599   0.1629   0.1632   0.1645   0.1701
     0.1761   0.1792   0.1820   0.1891   0.1928   0.1993   0.2017   0.2062
     0.2106   0.2114   0.2133   0.2142   0.2209   0.2221   0.2241   0.2254
     0.2263   0.2281   0.2300   0.2306   0.2398   0.2553   0.2579   0.2626
     0.2700   0.2795   0.2806   0.2848   0.2868   0.3035   0.3117   0.3140
     0.3154   0.3194   0.3330   0.3441   0.3482   0.3540   0.3573   0.3587
     0.3610   0.3835   0.4002   0.4170   0.4267   0.4307   0.4355   0.4379
     0.4493   0.4511   0.4639   0.4671   0.4753   0.4791   0.4855   0.4894
     0.4991   0.5043   0.5071   0.5100   0.5135   0.5170   0.5260   0.5504
     0.5562   0.5617   0.5662   0.5681   0.5706   0.5719   0.5722   0.5742
     0.5765   0.5775   0.5787   0.5861   0.5937   0.5946   0.6021   0.6061
     0.6110   0.6167   0.6209   0.6228   0.6268   0.6446   0.6480   0.6496
     0.6538   0.6590   0.6600   0.6672   0.6711   0.6776   0.6825   0.6843
     0.6860   0.6867   0.6902   0.6970   0.6972   0.7108   0.7165   0.7208
     0.7212   0.7283   0.7302   0.7335   0.7373   0.7424   0.7481   0.7505
     0.7646   0.7762   0.7788   0.7828   0.7846   0.7871   0.7907   0.7972
     0.8015   0.8030   0.8111   0.8132   0.8208   0.8286   0.8326   0.8350
     0.8359   0.8372   0.8419   0.8429   0.8507   0.8521   0.8605   0.8640
     0.8681   0.8769   0.8832   0.8858   0.8860   0.9121   0.9152   0.9211
     0.9266   0.9346   0.9485   0.9552   0.9565   0.9645   0.9681   0.9724
     0.9732   0.9740   0.9839   0.9936   1.0164   1.0329   1.0348   1.0364
     1.0403   1.0539   1.0576   1.0726   1.0787   1.0806   1.0838   1.0903
     1.0918   1.0993   1.1019   1.1044   1.1095   1.1144   1.1225   1.1313
     1.1335   1.1361   1.1397   1.1400   1.1409   1.1421   1.1433   1.1457
     1.1461   1.1482   1.1506   1.1540   1.1563   1.1594   1.1637   1.1674
     1.1706   1.1718   1.1786   1.1813   1.1846   1.1897   1.1921   1.1988
     1.2020   1.2025   1.2110   1.2118   1.2183   1.2212   1.2224   1.2259
     1.2343   1.2373   1.2407   1.2420   1.2431   1.2451   1.2551   1.2678
     1.2871   1.2966   1.2974   1.2996   1.3011   1.3071   1.3078   1.3111
     1.3143   1.3173   1.3182   1.3203   1.3229   1.3245   1.3256   1.3277
     1.3298   1.3315   1.3511   1.3731   1.3783   1.3795   1.3802   1.3816
     1.3830   1.3851   1.3865   1.3882   1.3906   1.3955   1.4016   1.4035
     1.4308   1.4313   1.4352   1.4412   1.4465   1.4490   1.4538   1.4548
     1.4563   1.4572   1.4591   1.4599   1.4617   1.4638   1.4645   1.4665
     1.4692   1.4714   1.4776   1.4784   1.4805   1.4868   1.4888   1.4913
     1.4914   1.4941   1.4956   1.4985   1.5034   1.5049   1.5081   1.5115
     1.5170   1.5179   1.5340   1.5392   1.5426   1.5446   1.5473   1.5474
     1.5499   1.5584   1.5610   1.5692   1.5786   1.5854   1.5922   1.5964
     1.5983   1.6017   1.6065   1.6134   1.6307   1.6343   1.6385   1.6539
     1.6697   1.6722   1.6750   1.6768   1.6791   1.6840   1.6922   1.6988
     1.7055   1.7153   1.7198   1.7206   1.7222   1.7262   1.8103   1.8213
     1.9295   1.9361   1.9409   1.9623   2.3330   2.3389   2.4305   2.5026
     2.6498   2.6514   2.6769   2.6847   2.8511   2.8596   2.8800   2.8887
     3.1026   3.1142   3.1923   3.2091   3.5571   3.5587   3.5599   3.5665
     3.6993   3.7077   3.7710   3.7914   3.9731   4.0327   4.0363   4.0422
     4.0465   4.2114   4.2291   4.2424   4.3141   4.3250   4.3300   4.3328
     4.3434   4.4786   4.5871   4.6039   4.6566   4.7543   4.7635   4.7730
     4.8183   4.8264   5.0055   5.0950   5.1740   5.1968   5.2142   5.2407
     5.2581   5.2617   5.2924   5.3001   5.3139   5.3290   5.3619   5.3826
     5.4509   5.4667   5.5222   5.5376   5.6418   5.6723   5.6864   5.7608
     5.8150   5.8291   5.8456   5.8495   5.8828   5.9208   6.0617   6.1111
     6.6418   6.7129   6.7843   6.8062   7.0180   7.0302   7.0965   7.1008
     7.1378   7.1566   7.1701   7.1798   7.1892   7.2072   7.2199   7.2596
     7.3152   7.3343   7.4414   7.4641   7.4795   7.4834   7.5426   7.5612
     7.6915   7.7694   7.9304   7.9868   8.0109   8.0910   8.1852   8.1918
     8.2308   8.2879   8.2946   8.2992   8.3382   8.4242   8.4342   8.4953
     8.5683   8.6748   8.9119   8.9272   8.9321   8.9381   8.9959   8.9989
     9.0115   9.0356   9.0517   9.0839   9.1161   9.1379   9.1497   9.1551
     9.2011   9.2095   9.3637   9.3805   9.3972   9.4069   9.4596   9.4662
     9.4955   9.5092   9.5397   9.6211   9.7722   9.7849   9.9593  10.0054
    10.0195

     the Fermi energy is     3.4179 ev

!    total energy              =  -12782.08037131 Ry
     Harris-Foulkes estimate   =  -12782.08037133 Ry
     estimated scf accuracy    <          8.2E-09 Ry

     The total energy is the sum of the following terms:

     one-electron contribution = -100682.64853547 Ry
     hartree contribution      =   51716.10672098 Ry
     xc contribution           =   -4463.86025605 Ry
     ewald contribution        =   40654.53668985 Ry
     Dispersion Correction     =      -2.81437964 Ry
     smearing contrib. (-TS)   =      -3.40061099 Ry

     convergence has been achieved in  43 iterations

     Writing output data file gc.save
 
     init_run     :    191.13s CPU    203.43s WALL (       1 calls)
     electrons    :  25931.39s CPU  27528.90s WALL (       1 calls)

     Called by init_run:
     wfcinit      :    188.33s CPU    199.96s WALL (       1 calls)
     potinit      :      0.81s CPU      0.92s WALL (       1 calls)

     Called by electrons:
     c_bands      :  23869.47s CPU  25299.97s WALL (      43 calls)
     sum_band     :   1674.42s CPU   1785.75s WALL (      43 calls)
     v_of_rho     :      5.19s CPU      6.43s WALL (      44 calls)
     newd         :     14.77s CPU     27.38s WALL (      44 calls)
     mix_rho      :    367.48s CPU    409.54s WALL (      43 calls)

     Called by c_bands:
     init_us_2    :     80.38s CPU     81.49s WALL (     522 calls)
     cegterg      :  23543.58s CPU  24961.22s WALL (     270 calls)

     Called by sum_band:
     sum_band:bec :      4.76s CPU      5.41s WALL (     258 calls)
     addusdens    :     22.30s CPU     33.71s WALL (      43 calls)

     Called by *egterg:
     h_psi        :   8165.60s CPU   8765.80s WALL (    2091 calls)
     s_psi        :   2076.37s CPU   2089.47s WALL (    2091 calls)
     g_psi        :     21.99s CPU     22.09s WALL (    1815 calls)
     cdiaghg      :   7217.59s CPU   7571.72s WALL (    2076 calls)

     Called by h_psi:
     add_vuspsi   :   2080.94s CPU   2095.20s WALL (    2091 calls)

     General routines
     calbec       :   2770.15s CPU   2791.56s WALL (    2349 calls)
     fft          :      4.46s CPU      5.42s WALL (     571 calls)
     ffts         :    154.71s CPU    184.35s WALL (   23764 calls)
     fftw         :   3874.02s CPU   4401.47s WALL ( 1336164 calls)
     davcio       :      0.15s CPU      8.16s WALL (       6 calls)
 
     Parallel routines
     fft_scatter  :   1921.55s CPU   2213.65s WALL ( 1360499 calls)
 
     PWSCF        :     7h15m CPU        7h42m WALL

 
   This run was terminated on:  14:57:49   5Oct2017            

=------------------------------------------------------------------------------=
   JOB DONE.
=------------------------------------------------------------------------------=
