
     Program PWSCF v.5.4.0 starts on 21Mar2017 at  7:21: 3 

     This program is part of the open-source Quantum ESPRESSO suite
     for quantum simulation of materials; please cite
         "P. Giannozzi et al., J. Phys.:Condens. Matter 21 395502 (2009);
          URL http://www.quantum-espresso.org", 
     in publications or presentations arising from this work. More details at
     http://www.quantum-espresso.org/quote

     Parallel version (MPI & OpenMP), running on      56 processor cores
     Number of MPI processes:                56
     Threads/MPI process:                     1
     R & G space division:  proc/nbgrp/npool/nimage =      56
     Waiting for input...
     Reading input from standard input

     Current dimensions of program PWSCF are:
     Max number of different atomic species (ntypx) = 10
     Max number of k-points (npk) =  40000
     Max angular momentum in pseudopotentials (lmaxx) =  3

     -------------------------------------
     Parameters for Dispersion Correction:
     -------------------------------------
       atom      VdW radius       C_6     

        Cu         2.952        374.666
        C          2.744         60.710
        H          1.892          4.857

     Subspace diagonalization in iterative solution of the eigenvalue problem:
     one sub-group per band group will be used
     scalapack distributed-memory algorithm (size of sub-group:  5*  5 procs)

 
     Parallelization info
     --------------------
     sticks:   dense  smooth     PW     G-vecs:    dense   smooth      PW
     Min         204     204     54                36612    36612    4962
     Max         205     205     55                36617    36617    4968
     Sum       11433   11433   3039              2050409  2050409  278033
 


     bravais-lattice index     =            0
     lattice parameter (alat)  =      13.9425  a.u.
     unit-cell volume          =   21209.0878 (a.u.)^3
     number of atoms/cell      =          149
     number of atomic types    =            3
     number of electrons       =      1293.00
     number of Kohn-Sham states=          776
     kinetic-energy cutoff     =      80.0000  Ry
     charge density cutoff     =     320.0000  Ry
     convergence threshold     =      1.0E-08
     mixing beta               =       0.7000
     number of iterations used =            8  local-TF  mixing
     Exchange-correlation      =  SLA  PW   PBE  PBE ( 1  4  3  4 0 0)
     nstep                     =           50


     celldm(1)=  13.942539  celldm(2)=   0.000000  celldm(3)=   0.000000
     celldm(4)=   0.000000  celldm(5)=   0.000000  celldm(6)=   0.000000

     crystal axes: (cart. coord. in units of alat)
               a(1) = (   1.000000   0.000000   0.000000 )  
               a(2) = (   0.000000   2.309401   0.000000 )  
               a(3) = (   0.000000   0.000000   3.388418 )  

     reciprocal axes: (cart. coord. in units 2 pi/alat)
               b(1) = (  1.000000  0.000000  0.000000 )  
               b(2) = (  0.000000  0.433013  0.000000 )  
               b(3) = (  0.000000  0.000000  0.295123 )  


     PseudoPot. # 1 for Cu read from file:
     /home/549/hxw549/Short/pseudopotentials/Cu.pbe-n-van_ak.UPF
     MD5 check sum: 601f7c30f7467666bec936e0661ce3e1
     Pseudo is Ultrasoft + core correction, Zval = 11.0
     Generated by new atomic code, or converted to UPF format
     Using radial grid of  867 points,  6 beta functions with: 
                l(1) =   0
                l(2) =   0
                l(3) =   1
                l(4) =   1
                l(5) =   2
                l(6) =   2
     Q(r) pseudized with  8 coefficients,  rinner =    1.400   1.400   1.400
                                                       1.400   1.400

     PseudoPot. # 2 for C  read from file:
     /home/549/hxw549/Short/pseudopotentials/C.pbe-mt_gipaw.UPF
     MD5 check sum: 5ac2f21f2c440b14befe521540822c15
     Pseudo is Norm-conserving, Zval =  4.0
     Generated by new atomic code, or converted to UPF format
     Using radial grid of 1073 points,  1 beta functions with: 
                l(1) =   0

     PseudoPot. # 3 for H  read from file:
     /home/549/hxw549/Short/pseudopotentials/H.pbe-van_ak.UPF
     MD5 check sum: 077eb6d537518a38cb46c6de387227b7
     Pseudo is Ultrasoft, Zval =  1.0
     Generated by new atomic code, or converted to UPF format
     Using radial grid of  615 points,  1 beta functions with: 
                l(1) =   0
     Q(r) pseudized with  8 coefficients,  rinner =    0.800

     atomic species   valence    mass     pseudopotential
        Cu            11.00    63.54600     Cu( 1.00)
        C              4.00    12.01070     C ( 1.00)
        H              1.00     1.00783     H ( 1.00)

     No symmetry found



   Cartesian axes

     site n.     atom                  positions (alat units)
         1           Cu  tau(   1) = (   0.0006563  -0.0008579   0.9976530  )
         2           Cu  tau(   2) = (   0.2507136   0.2298626   0.9971643  )
         3           Cu  tau(   3) = (   0.5006908  -0.0011522   0.9973314  )
         4           Cu  tau(   4) = (   0.7506662   0.2299662   0.9972152  )
         5           Cu  tau(   5) = (   0.0007278   0.4608919   0.9969650  )
         6           Cu  tau(   6) = (   0.2508127   0.6922145   0.9970597  )
         7           Cu  tau(   7) = (   0.5006932   0.4611119   0.9972700  )
         8           Cu  tau(   8) = (   0.7507137   0.6921167   0.9969382  )
         9           Cu  tau(   9) = (   0.0008165   0.9233355   0.9967553  )
        10           Cu  tau(  10) = (   0.2508274   1.1543588   0.9969085  )
        11           Cu  tau(  11) = (   0.5006431   0.9232560   0.9969549  )
        12           Cu  tau(  12) = (   0.7506988   1.1545814   0.9966859  )
        13           Cu  tau(  13) = (   0.0007590   1.3856273   0.9967482  )
        14           Cu  tau(  14) = (   0.2507440   1.6166038   0.9969372  )
        15           Cu  tau(  15) = (   0.5007179   1.3856183   0.9969675  )
        16           Cu  tau(  16) = (   0.7507173   1.6163083   0.9974039  )
        17           Cu  tau(  17) = (   0.0006099   1.8470092   0.9976687  )
        18           Cu  tau(  18) = (   0.2506225   2.0777348   0.9977244  )
        19           Cu  tau(  19) = (   0.5008029   1.8470984   0.9975756  )
        20           Cu  tau(  20) = (   0.7507461   2.0777571   0.9977026  )
        21           Cu  tau(  21) = (   0.0008747   0.2303622   1.2460107  )
        22           Cu  tau(  22) = (   0.2508006  -0.0004271   1.2464292  )
        23           Cu  tau(  23) = (   0.5007989   0.2298473   1.2453207  )
        24           Cu  tau(  24) = (   0.7509573  -0.0006627   1.2461338  )
        25           Cu  tau(  25) = (   0.0008100   0.6924019   1.2450234  )
        26           Cu  tau(  26) = (   0.2507838   0.4607580   1.2448900  )
        27           Cu  tau(  27) = (   0.5010554   0.6924396   1.2455684  )
        28           Cu  tau(  28) = (   0.7509095   0.4613880   1.2454141  )
        29           Cu  tau(  29) = (   0.0007312   1.1544318   1.2449266  )
        30           Cu  tau(  30) = (   0.2505681   0.9233165   1.2457637  )
        31           Cu  tau(  31) = (   0.5010189   1.1544980   1.2451089  )
        32           Cu  tau(  32) = (   0.7508143   0.9235387   1.2445768  )
        33           Cu  tau(  33) = (   0.0008366   1.6159605   1.2460573  )
        34           Cu  tau(  34) = (   0.2508261   1.3860091   1.2445721  )
        35           Cu  tau(  35) = (   0.5009027   1.6162178   1.2459587  )
        36           Cu  tau(  36) = (   0.7509057   1.3849649   1.2457244  )
        37           Cu  tau(  37) = (   0.0010153   2.0777901   1.2462468  )
        38           Cu  tau(  38) = (   0.2509064   1.8468088   1.2462978  )
        39           Cu  tau(  39) = (   0.5007711   2.0778091   1.2461952  )
        40           Cu  tau(  40) = (   0.7508980   1.8469483   1.2462534  )
        41           Cu  tau(  41) = (   0.0012509  -0.0005708   1.4957922  )
        42           Cu  tau(  42) = (   0.2507428   0.2310980   1.4958508  )
        43           Cu  tau(  43) = (   0.5009573  -0.0003248   1.4954633  )
        44           Cu  tau(  44) = (   0.7512749   0.2305246   1.4952634  )
        45           Cu  tau(  45) = (   0.0006047   0.4619848   1.4951231  )
        46           Cu  tau(  46) = (   0.2507628   0.6919526   1.4940466  )
        47           Cu  tau(  47) = (   0.5016433   0.4607527   1.4936112  )
        48           Cu  tau(  48) = (   0.7515948   0.6923446   1.4946592  )
        49           Cu  tau(  49) = (   0.0001773   0.9237536   1.4945063  )
        50           Cu  tau(  50) = (   0.2504727   1.1553370   1.4931747  )
        51           Cu  tau(  51) = (   0.5011739   0.9238895   1.4943526  )
        52           Cu  tau(  52) = (   0.7514674   1.1544499   1.4954772  )
        53           Cu  tau(  53) = (   0.0006554   1.3846027   1.4957317  )
        54           Cu  tau(  54) = (   0.2508997   1.6153564   1.4958517  )
        55           Cu  tau(  55) = (   0.5015953   1.3851252   1.4946758  )
        56           Cu  tau(  56) = (   0.7511491   1.6158655   1.4954957  )
        57           Cu  tau(  57) = (   0.0012043   1.8467985   1.4958564  )
        58           Cu  tau(  58) = (   0.2511988   2.0779294   1.4959692  )
        59           Cu  tau(  59) = (   0.5009737   1.8468377   1.4959602  )
        60           Cu  tau(  60) = (   0.7511056   2.0779713   1.4959547  )
        61           Cu  tau(  61) = (   0.0013705   0.2312811   1.7440695  )
        62           Cu  tau(  62) = (   0.2514336   0.0001119   1.7449122  )
        63           Cu  tau(  63) = (   0.5013442   0.2309912   1.7441090  )
        64           Cu  tau(  64) = (   0.7511610   0.0000251   1.7451392  )
        65           Cu  tau(  65) = (   0.0011572   0.6935628   1.7444260  )
        66           Cu  tau(  66) = (   0.2513211   0.4619585   1.7439133  )
        67           Cu  tau(  67) = (   0.5024466   0.6915406   1.7405181  )
        68           Cu  tau(  68) = (   0.7515231   0.4618146   1.7437496  )
        69           Cu  tau(  69) = (   0.0015222   1.1531360   1.7464852  )
        70           Cu  tau(  70) = (   0.2505305   0.9248188   1.7381253  )
        71           Cu  tau(  71) = (   0.5013460   1.1549281   1.7432344  )
        72           Cu  tau(  72) = (   0.7507591   0.9234552   1.7459669  )
        73           Cu  tau(  73) = (   0.0013918   1.6151856   1.7451683  )
        74           Cu  tau(  74) = (   0.2506336   1.3832851   1.7456033  )
        75           Cu  tau(  75) = (   0.5010951   1.6147488   1.7443603  )
        76           Cu  tau(  76) = (   0.7519067   1.3848721   1.7445334  )
        77           Cu  tau(  77) = (   0.0014366   2.0777796   1.7455470  )
        78           Cu  tau(  78) = (   0.2510601   1.8464641   1.7449139  )
        79           Cu  tau(  79) = (   0.5012267   2.0783308   1.7453379  )
        80           Cu  tau(  80) = (   0.7513899   1.8465093   1.7450261  )
        81           Cu  tau(  81) = (   0.0014860   0.0011100   1.9896064  )
        82           Cu  tau(  82) = (   0.2519078   0.2316701   1.9907599  )
        83           Cu  tau(  83) = (   0.5016784   0.0007727   1.9916095  )
        84           Cu  tau(  84) = (   0.7517457   0.2319284   1.9903216  )
        85           Cu  tau(  85) = (   0.0019002   0.4611731   1.9910706  )
        86           Cu  tau(  86) = (   0.2510164   0.6904085   1.9877531  )
        87           Cu  tau(  87) = (   0.5023517   0.4606921   1.9914219  )
        88           Cu  tau(  88) = (   0.7527681   0.6891918   1.9925108  )
        89           Cu  tau(  89) = (  -0.0019744   0.9227662   1.9950457  )
        90           Cu  tau(  90) = (   0.2513933   1.1535558   1.9934448  )
        91           Cu  tau(  91) = (   0.5073316   0.9233987   1.9887447  )
        92           Cu  tau(  92) = (   0.7522942   1.1564022   1.9929470  )
        93           Cu  tau(  93) = (   0.0017231   1.3844007   1.9933944  )
        94           Cu  tau(  94) = (   0.2509045   1.6146698   1.9906502  )
        95           Cu  tau(  95) = (   0.5012673   1.3844985   1.9920592  )
        96           Cu  tau(  96) = (   0.7515354   1.6150897   1.9907084  )
        97           Cu  tau(  97) = (   0.0015337   1.8460355   1.9917618  )
        98           Cu  tau(  98) = (   0.2514681   2.0781590   1.9904793  )
        99           Cu  tau(  99) = (   0.5010438   1.8455734   1.9894623  )
       100           Cu  tau( 100) = (   0.7514578   2.0777939   1.9908014  )
       101           C   tau( 101) = (  -0.0004906   0.0987194   2.3861382  )
       102           C   tau( 102) = (  -0.0005356   0.2909966   2.3906449  )
       103           C   tau( 103) = (   0.1661038   0.0024241   2.3846697  )
       104           C   tau( 104) = (   0.1659242   0.3874262   2.3944259  )
       105           C   tau( 105) = (   0.3325440   0.0988239   2.3838936  )
       106           C   tau( 106) = (   0.3324821   0.2912298   2.3889371  )
       107           C   tau( 107) = (   0.4994133   0.0024062   2.3813234  )
       108           C   tau( 108) = (   0.4991845   0.3876703   2.3910139  )
       109           C   tau( 109) = (   0.6661674   0.0988237   2.3836153  )
       110           C   tau( 110) = (   0.6659780   0.2911786   2.3873004  )
       111           C   tau( 111) = (   0.8327823   0.0025146   2.3843021  )
       112           C   tau( 112) = (   0.8328498   0.3871633   2.3909600  )
       113           C   tau( 113) = (  -0.0004725   0.6756574   2.4026503  )
       114           C   tau( 114) = (  -0.0002340   0.8680908   2.4041021  )
       115           C   tau( 115) = (   0.1661957   0.5796590   2.4031633  )
       116           C   tau( 116) = (   0.1664559   0.9641921   2.4109343  )
       117           C   tau( 117) = (   0.3327070   0.6757236   2.4107287  )
       118           C   tau( 118) = (   0.3327241   0.8679502   2.4174687  )
       119           C   tau( 119) = (   0.4990952   0.5799338   2.4001938  )
       120           C   tau( 120) = (   0.4992236   0.9644272   2.4123416  )
       121           H   tau( 121) = (   0.3292669   0.8623657   2.1029685  )
       122           C   tau( 122) = (   0.6661109   0.6759123   2.3999794  )
       123           C   tau( 123) = (   0.6659286   0.8683036   2.4052944  )
       124           C   tau( 124) = (   0.8329618   0.5795783   2.3961058  )
       125           C   tau( 125) = (   0.8326744   0.9643288   2.4024550  )
       126           C   tau( 126) = (  -0.0002760   1.2526863   2.3961888  )
       127           C   tau( 127) = (  -0.0004346   1.4451049   2.3888906  )
       128           C   tau( 128) = (   0.1665623   1.1564452   2.4031419  )
       129           C   tau( 129) = (   0.1662376   1.5417869   2.3882613  )
       130           C   tau( 130) = (   0.3329904   1.2532351   2.4031915  )
       131           C   tau( 131) = (   0.3328949   1.4455542   2.3950967  )
       132           C   tau( 132) = (   0.4993356   1.1566290   2.4064868  )
       133           C   tau( 133) = (   0.4993841   1.5418647   2.3927024  )
       134           C   tau( 134) = (   0.6658433   1.2528275   2.3984361  )
       135           C   tau( 135) = (   0.6658454   1.4452995   2.3925309  )
       136           C   tau( 136) = (   0.8328542   1.1566724   2.3983695  )
       137           C   tau( 137) = (   0.8325116   1.5414271   2.3864776  )
       138           C   tau( 138) = (  -0.0005715   1.8306393   2.3814320  )
       139           C   tau( 139) = (  -0.0004688   2.0231648   2.3828901  )
       140           C   tau( 140) = (   0.1663215   1.7341902   2.3837862  )
       141           C   tau( 141) = (   0.1662617   2.1193548   2.3825093  )
       142           C   tau( 142) = (   0.3329179   1.8305274   2.3845887  )
       143           C   tau( 143) = (   0.3330628   2.0229737   2.3819495  )
       144           C   tau( 144) = (   0.4995623   1.7342009   2.3880326  )
       145           C   tau( 145) = (   0.4995859   2.1193021   2.3824729  )
       146           C   tau( 146) = (   0.6661308   1.8305329   2.3859574  )
       147           C   tau( 147) = (   0.6662455   2.0230213   2.3832449  )
       148           C   tau( 148) = (   0.8326054   1.7340427   2.3844112  )
       149           C   tau( 149) = (   0.8329751   2.1194739   2.3832083  )

     number of k points=     6  gaussian smearing, width (Ry)=  0.1000
                       cart. coord. in units 2pi/alat
        k(    1) = (   0.0000000   0.0000000   0.0000000), wk =   0.2500000
        k(    2) = (   0.0000000  -0.2165064   0.0000000), wk =   0.2500000
        k(    3) = (   0.2500000   0.0000000   0.0000000), wk =   0.5000000
        k(    4) = (   0.2500000  -0.2165064   0.0000000), wk =   0.5000000
        k(    5) = (  -0.5000000   0.0000000   0.0000000), wk =   0.2500000
        k(    6) = (  -0.5000000  -0.2165064   0.0000000), wk =   0.2500000

     Dense  grid:  2050409 G-vectors     FFT dimensions: (  80, 192, 270)

     Largest allocated arrays     est. size (Mb)     dimensions
        Kohn-Sham Wavefunctions        54.52 Mb     (    4604,  776)
        NL pseudopotentials           129.89 Mb     (    4604, 1849)
        Each V/rho on FFT grid          1.17 Mb     (   76800)
        Each G-vector array             0.28 Mb     (   36616)
        G-vector shells                 0.14 Mb     (   17932)
     Largest temporary arrays     est. size (Mb)     dimensions
        Auxiliary wavefunctions       218.06 Mb     (    4604, 3104)
        Each subspace H/S matrix        5.87 Mb     (     620,  620)
        Each <psi_i|beta_j> matrix     21.89 Mb     (    1849,  776)
        Arrays for rho mixing           9.38 Mb     (   76800,    8)

     Initial potential from superposition of free atoms
     Check: negative starting charge=   -0.001847

     starting charge 1267.81750, renormalised to 1293.00000

     negative rho (up, down):  1.884E-03 0.000E+00
     Starting wfc are 1285 randomized atomic wfcs

     total cpu time spent up to now is      107.7 secs

     Self-consistent Calculation

     iteration #  1     ecut=    80.00 Ry     beta=0.70
     Davidson diagonalization with overlap
     c_bands:  5 eigenvalues not converged
     ethr =  1.00E-04,  avg # of iterations = 21.3

     negative rho (up, down):  2.948E+01 0.000E+00

     total cpu time spent up to now is     1886.4 secs

     total energy              =   -9157.53488073 Ry
     Harris-Foulkes estimate   =  -17150.11829857 Ry
     estimated scf accuracy    <  181455.58405970 Ry

     iteration #  2     ecut=    80.00 Ry     beta=0.70
     Davidson diagonalization with overlap
     ethr =  1.00E-02,  avg # of iterations = 13.2

     negative rho (up, down):  3.122E+01 0.000E+00

     total cpu time spent up to now is     2811.8 secs

     total energy              =  -12312.68514706 Ry
     Harris-Foulkes estimate   =  -13641.54137137 Ry
     estimated scf accuracy    <   17863.92293296 Ry

     iteration #  3     ecut=    80.00 Ry     beta=0.70
     Davidson diagonalization with overlap
     ethr =  1.00E-02,  avg # of iterations =  7.7

     negative rho (up, down):  3.314E+01 0.000E+00

     total cpu time spent up to now is     3339.8 secs

     total energy              =  -12501.12441347 Ry
     Harris-Foulkes estimate   =  -13353.70645962 Ry
     estimated scf accuracy    <    6175.32933619 Ry

     iteration #  4     ecut=    80.00 Ry     beta=0.70
     Davidson diagonalization with overlap
     ethr =  1.00E-02,  avg # of iterations =  5.8

     negative rho (up, down):  2.964E+01 0.000E+00

     total cpu time spent up to now is     3820.5 secs

     total energy              =  -12838.28596337 Ry
     Harris-Foulkes estimate   =  -13160.52636303 Ry
     estimated scf accuracy    <    6324.44096707 Ry

     iteration #  5     ecut=    80.00 Ry     beta=0.70
     Davidson diagonalization with overlap
     ethr =  1.00E-02,  avg # of iterations =  4.7

     negative rho (up, down):  2.053E+01 0.000E+00

     total cpu time spent up to now is     4190.6 secs

     total energy              =  -12864.14908947 Ry
     Harris-Foulkes estimate   =  -13047.49096252 Ry
     estimated scf accuracy    <    1068.60895033 Ry

     iteration #  6     ecut=    80.00 Ry     beta=0.70
     Davidson diagonalization with overlap
     ethr =  1.00E-02,  avg # of iterations =  3.0

     negative rho (up, down):  1.213E+01 0.000E+00

     total cpu time spent up to now is     4434.5 secs

     total energy              =  -12842.14347645 Ry
     Harris-Foulkes estimate   =  -12921.94425384 Ry
     estimated scf accuracy    <     638.82121122 Ry

     iteration #  7     ecut=    80.00 Ry     beta=0.70
     Davidson diagonalization with overlap
     ethr =  1.00E-02,  avg # of iterations =  2.0

     negative rho (up, down):  9.150E+00 0.000E+00

     total cpu time spent up to now is     4616.3 secs

     total energy              =  -12819.85550813 Ry
     Harris-Foulkes estimate   =  -12856.28030155 Ry
     estimated scf accuracy    <     901.72602133 Ry

     iteration #  8     ecut=    80.00 Ry     beta=0.70
     Davidson diagonalization with overlap
     ethr =  1.00E-02,  avg # of iterations =  1.7

     negative rho (up, down):  8.564E+00 0.000E+00

     total cpu time spent up to now is     4791.0 secs

     total energy              =  -12816.99168016 Ry
     Harris-Foulkes estimate   =  -12826.62745559 Ry
     estimated scf accuracy    <     393.38226250 Ry

     iteration #  9     ecut=    80.00 Ry     beta=0.70
     Davidson diagonalization with overlap
     ethr =  1.00E-02,  avg # of iterations =  1.0

     negative rho (up, down):  2.476E+00 0.000E+00

     total cpu time spent up to now is     4957.6 secs

     total energy              =  -12754.08845049 Ry
     Harris-Foulkes estimate   =  -12819.74750418 Ry
     estimated scf accuracy    <     325.74520679 Ry

     iteration # 10     ecut=    80.00 Ry     beta=0.70
     Davidson diagonalization with overlap
     ethr =  1.00E-02,  avg # of iterations =  2.3

     negative rho (up, down):  1.386E+00 0.000E+00

     total cpu time spent up to now is     5144.5 secs

     total energy              =  -12731.59283634 Ry
     Harris-Foulkes estimate   =  -12770.21114428 Ry
     estimated scf accuracy    <     743.82053616 Ry

     iteration # 11     ecut=    80.00 Ry     beta=0.70
     Davidson diagonalization with overlap
     ethr =  1.00E-02,  avg # of iterations =  2.0

     negative rho (up, down):  7.627E-01 0.000E+00

     total cpu time spent up to now is     5325.9 secs

     total energy              =  -12703.06999480 Ry
     Harris-Foulkes estimate   =  -12757.24291315 Ry
     estimated scf accuracy    <     438.96789140 Ry

     iteration # 12     ecut=    80.00 Ry     beta=0.70
     Davidson diagonalization with overlap
     ethr =  1.00E-02,  avg # of iterations =  3.3

     negative rho (up, down):  6.053E-01 0.000E+00

     total cpu time spent up to now is     5542.3 secs

     total energy              =  -12728.38436571 Ry
     Harris-Foulkes estimate   =  -12743.99022294 Ry
     estimated scf accuracy    <     390.24475614 Ry

     iteration # 13     ecut=    80.00 Ry     beta=0.70
     Davidson diagonalization with overlap
     ethr =  1.00E-02,  avg # of iterations =  1.2

     negative rho (up, down):  4.920E+00 0.000E+00

     total cpu time spent up to now is     5711.5 secs

     total energy              =  -12710.63113707 Ry
     Harris-Foulkes estimate   =  -12735.52292031 Ry
     estimated scf accuracy    <     104.34703873 Ry

     iteration # 14     ecut=    80.00 Ry     beta=0.70
     Davidson diagonalization with overlap
     ethr =  8.07E-03,  avg # of iterations =  1.0

     negative rho (up, down):  4.765E+00 0.000E+00

     total cpu time spent up to now is     5878.7 secs

     total energy              =  -12713.60967295 Ry
     Harris-Foulkes estimate   =  -12720.16911289 Ry
     estimated scf accuracy    <     106.51022774 Ry

     iteration # 15     ecut=    80.00 Ry     beta=0.70
     Davidson diagonalization with overlap
     ethr =  8.07E-03,  avg # of iterations =  1.0

     negative rho (up, down):  5.733E+00 0.000E+00

     total cpu time spent up to now is     6046.7 secs

     total energy              =  -12709.83217930 Ry
     Harris-Foulkes estimate   =  -12715.16370203 Ry
     estimated scf accuracy    <      61.49993720 Ry

     iteration # 16     ecut=    80.00 Ry     beta=0.70
     Davidson diagonalization with overlap
     ethr =  4.76E-03,  avg # of iterations =  1.2

     negative rho (up, down):  4.347E+00 0.000E+00

     total cpu time spent up to now is     6215.1 secs

     total energy              =  -12707.96304914 Ry
     Harris-Foulkes estimate   =  -12710.91781940 Ry
     estimated scf accuracy    <      36.51548373 Ry

     iteration # 17     ecut=    80.00 Ry     beta=0.70
     Davidson diagonalization with overlap
     ethr =  2.82E-03,  avg # of iterations =  2.5

     negative rho (up, down):  2.900E+00 0.000E+00

     total cpu time spent up to now is     6399.7 secs

     total energy              =  -12706.27094112 Ry
     Harris-Foulkes estimate   =  -12708.66873700 Ry
     estimated scf accuracy    <      20.43225168 Ry

     iteration # 18     ecut=    80.00 Ry     beta=0.70
     Davidson diagonalization with overlap
     ethr =  1.58E-03,  avg # of iterations =  6.8

     negative rho (up, down):  1.993E+00 0.000E+00

     total cpu time spent up to now is     6637.7 secs

     total energy              =  -12705.52466604 Ry
     Harris-Foulkes estimate   =  -12706.66450891 Ry
     estimated scf accuracy    <      10.69729985 Ry

     iteration # 19     ecut=    80.00 Ry     beta=0.70
     Davidson diagonalization with overlap
     ethr =  8.27E-04,  avg # of iterations =  3.7

     negative rho (up, down):  2.161E+00 0.000E+00

     total cpu time spent up to now is     6834.6 secs

     total energy              =  -12704.06935792 Ry
     Harris-Foulkes estimate   =  -12705.71945220 Ry
     estimated scf accuracy    <      11.21012098 Ry

     iteration # 20     ecut=    80.00 Ry     beta=0.70
     Davidson diagonalization with overlap
     ethr =  8.27E-04,  avg # of iterations =  6.8

     negative rho (up, down):  2.440E+00 0.000E+00

     total cpu time spent up to now is     7080.5 secs

     total energy              =  -12703.92921809 Ry
     Harris-Foulkes estimate   =  -12704.36349763 Ry
     estimated scf accuracy    <      21.55984250 Ry

     iteration # 21     ecut=    80.00 Ry     beta=0.70
     Davidson diagonalization with overlap
     ethr =  8.27E-04,  avg # of iterations =  2.8

     negative rho (up, down):  2.348E+00 0.000E+00

     total cpu time spent up to now is     7269.1 secs

     total energy              =  -12704.04530917 Ry
     Harris-Foulkes estimate   =  -12705.23703683 Ry
     estimated scf accuracy    <       8.13847778 Ry

     iteration # 22     ecut=    80.00 Ry     beta=0.70
     Davidson diagonalization with overlap
     ethr =  6.29E-04,  avg # of iterations =  1.5

     negative rho (up, down):  1.293E+00 0.000E+00

     total cpu time spent up to now is     7443.2 secs

     total energy              =  -12701.39732349 Ry
     Harris-Foulkes estimate   =  -12704.16192395 Ry
     estimated scf accuracy    <       5.75429890 Ry

     iteration # 23     ecut=    80.00 Ry     beta=0.70
     Davidson diagonalization with overlap
     ethr =  4.45E-04,  avg # of iterations =  2.2

     negative rho (up, down):  1.491E+00 0.000E+00

     total cpu time spent up to now is     7624.4 secs

     total energy              =  -12701.39145432 Ry
     Harris-Foulkes estimate   =  -12701.94369609 Ry
     estimated scf accuracy    <      15.69082508 Ry

     iteration # 24     ecut=    80.00 Ry     beta=0.70
     Davidson diagonalization with overlap
     ethr =  4.45E-04,  avg # of iterations =  1.2

     negative rho (up, down):  1.250E+00 0.000E+00

     total cpu time spent up to now is     7794.0 secs

     total energy              =  -12700.27103202 Ry
     Harris-Foulkes estimate   =  -12701.79665917 Ry
     estimated scf accuracy    <       5.15651874 Ry

     iteration # 25     ecut=    80.00 Ry     beta=0.70
     Davidson diagonalization with overlap
     ethr =  3.99E-04,  avg # of iterations =  6.2

     negative rho (up, down):  1.238E+00 0.000E+00

     total cpu time spent up to now is     8038.7 secs

     total energy              =  -12700.14713657 Ry
     Harris-Foulkes estimate   =  -12700.43756288 Ry
     estimated scf accuracy    <       1.01718804 Ry

     iteration # 26     ecut=    80.00 Ry     beta=0.70
     Davidson diagonalization with overlap
     ethr =  7.87E-05,  avg # of iterations =  6.0

     negative rho (up, down):  9.272E-01 0.000E+00

     total cpu time spent up to now is     8288.8 secs

     total energy              =  -12700.12409044 Ry
     Harris-Foulkes estimate   =  -12700.22685532 Ry
     estimated scf accuracy    <       0.50664770 Ry

     iteration # 27     ecut=    80.00 Ry     beta=0.70
     Davidson diagonalization with overlap
     ethr =  3.92E-05,  avg # of iterations =  5.3

     negative rho (up, down):  3.889E-01 0.000E+00

     total cpu time spent up to now is     8512.0 secs

     total energy              =  -12700.04522650 Ry
     Harris-Foulkes estimate   =  -12700.14542290 Ry
     estimated scf accuracy    <       0.23062762 Ry

     iteration # 28     ecut=    80.00 Ry     beta=0.70
     Davidson diagonalization with overlap
     ethr =  1.78E-05,  avg # of iterations = 12.7

     negative rho (up, down):  3.498E-01 0.000E+00

     total cpu time spent up to now is     8868.9 secs

     total energy              =  -12700.04866692 Ry
     Harris-Foulkes estimate   =  -12700.07712830 Ry
     estimated scf accuracy    <       0.38042359 Ry

     iteration # 29     ecut=    80.00 Ry     beta=0.70
     Davidson diagonalization with overlap
     ethr =  1.78E-05,  avg # of iterations =  4.2

     negative rho (up, down):  1.795E-01 0.000E+00

     total cpu time spent up to now is     9076.9 secs

     total energy              =  -12700.04635003 Ry
     Harris-Foulkes estimate   =  -12700.06410358 Ry
     estimated scf accuracy    <       0.10594303 Ry

     iteration # 30     ecut=    80.00 Ry     beta=0.70
     Davidson diagonalization with overlap
     ethr =  8.19E-06,  avg # of iterations =  9.0

     negative rho (up, down):  1.218E-01 0.000E+00

     total cpu time spent up to now is     9352.4 secs

     total energy              =  -12700.05042603 Ry
     Harris-Foulkes estimate   =  -12700.05328750 Ry
     estimated scf accuracy    <       0.03726835 Ry

     iteration # 31     ecut=    80.00 Ry     beta=0.70
     Davidson diagonalization with overlap
     c_bands:  2 eigenvalues not converged
     ethr =  2.88E-06,  avg # of iterations = 10.2

     negative rho (up, down):  6.673E-02 0.000E+00

     total cpu time spent up to now is     9648.6 secs

     total energy              =  -12700.05139681 Ry
     Harris-Foulkes estimate   =  -12700.05289533 Ry
     estimated scf accuracy    <       0.00768199 Ry

     iteration # 32     ecut=    80.00 Ry     beta=0.70
     Davidson diagonalization with overlap
     ethr =  5.94E-07,  avg # of iterations = 10.7

     negative rho (up, down):  4.813E-02 0.000E+00

     total cpu time spent up to now is     9946.6 secs

     total energy              =  -12700.05150651 Ry
     Harris-Foulkes estimate   =  -12700.05190116 Ry
     estimated scf accuracy    <       0.00404750 Ry

     iteration # 33     ecut=    80.00 Ry     beta=0.70
     Davidson diagonalization with overlap
     ethr =  3.13E-07,  avg # of iterations =  5.2

     negative rho (up, down):  1.931E-02 0.000E+00

     total cpu time spent up to now is    10172.1 secs

     total energy              =  -12700.05102314 Ry
     Harris-Foulkes estimate   =  -12700.05165984 Ry
     estimated scf accuracy    <       0.00160425 Ry

     iteration # 34     ecut=    80.00 Ry     beta=0.70
     Davidson diagonalization with overlap
     c_bands:  1 eigenvalues not converged
     c_bands:  5 eigenvalues not converged
     ethr =  1.24E-07,  avg # of iterations = 13.5

     negative rho (up, down):  4.797E-03 0.000E+00

     total cpu time spent up to now is    10507.5 secs

     total energy              =  -12700.05087840 Ry
     Harris-Foulkes estimate   =  -12700.05116530 Ry
     estimated scf accuracy    <       0.00038426 Ry

     iteration # 35     ecut=    80.00 Ry     beta=0.70
     Davidson diagonalization with overlap
     c_bands:  1 eigenvalues not converged
     ethr =  2.97E-08,  avg # of iterations =  9.0

     negative rho (up, down):  4.157E-03 0.000E+00

     total cpu time spent up to now is    10799.0 secs

     total energy              =  -12700.05090756 Ry
     Harris-Foulkes estimate   =  -12700.05091902 Ry
     estimated scf accuracy    <       0.00006449 Ry

     iteration # 36     ecut=    80.00 Ry     beta=0.70
     Davidson diagonalization with overlap
     ethr =  4.99E-09,  avg # of iterations =  3.0

     negative rho (up, down):  3.434E-03 0.000E+00

     total cpu time spent up to now is    10999.4 secs

     total energy              =  -12700.05090675 Ry
     Harris-Foulkes estimate   =  -12700.05091343 Ry
     estimated scf accuracy    <       0.00001547 Ry

     iteration # 37     ecut=    80.00 Ry     beta=0.70
     Davidson diagonalization with overlap
     ethr =  1.20E-09,  avg # of iterations =  4.3

     negative rho (up, down):  2.445E-03 0.000E+00

     total cpu time spent up to now is    11226.0 secs

     total energy              =  -12700.05090314 Ry
     Harris-Foulkes estimate   =  -12700.05090853 Ry
     estimated scf accuracy    <       0.00000495 Ry

     iteration # 38     ecut=    80.00 Ry     beta=0.70
     Davidson diagonalization with overlap
     ethr =  3.83E-10,  avg # of iterations =  2.2

     negative rho (up, down):  2.248E-03 0.000E+00

     total cpu time spent up to now is    11416.7 secs

     total energy              =  -12700.05090357 Ry
     Harris-Foulkes estimate   =  -12700.05090371 Ry
     estimated scf accuracy    <       0.00000150 Ry

     iteration # 39     ecut=    80.00 Ry     beta=0.70
     Davidson diagonalization with overlap
     ethr =  1.16E-10,  avg # of iterations =  2.0

     negative rho (up, down):  2.100E-03 0.000E+00

     total cpu time spent up to now is    11605.6 secs

     total energy              =  -12700.05090396 Ry
     Harris-Foulkes estimate   =  -12700.05090371 Ry
     estimated scf accuracy    <       0.00000048 Ry

     iteration # 40     ecut=    80.00 Ry     beta=0.70
     Davidson diagonalization with overlap
     ethr =  3.73E-11,  avg # of iterations =  3.0

     negative rho (up, down):  2.001E-03 0.000E+00

     total cpu time spent up to now is    11809.6 secs

     total energy              =  -12700.05090428 Ry
     Harris-Foulkes estimate   =  -12700.05090401 Ry
     estimated scf accuracy    <       0.00000027 Ry

     iteration # 41     ecut=    80.00 Ry     beta=0.70
     Davidson diagonalization with overlap
     ethr =  2.07E-11,  avg # of iterations =  3.0

     negative rho (up, down):  1.939E-03 0.000E+00

     total cpu time spent up to now is    12014.0 secs

     total energy              =  -12700.05090444 Ry
     Harris-Foulkes estimate   =  -12700.05090431 Ry
     estimated scf accuracy    <       0.00000015 Ry

     iteration # 42     ecut=    80.00 Ry     beta=0.70
     Davidson diagonalization with overlap
     ethr =  1.13E-11,  avg # of iterations =  3.0

     negative rho (up, down):  1.908E-03 0.000E+00

     total cpu time spent up to now is    12213.8 secs

     total energy              =  -12700.05090451 Ry
     Harris-Foulkes estimate   =  -12700.05090445 Ry
     estimated scf accuracy    <       0.00000002 Ry

     iteration # 43     ecut=    80.00 Ry     beta=0.70
     Davidson diagonalization with overlap
     ethr =  1.68E-12,  avg # of iterations =  3.0

     negative rho (up, down):  1.916E-03 0.000E+00

     total cpu time spent up to now is    12457.2 secs

     End of self-consistent calculation

          k = 0.0000 0.0000 0.0000 (256287 PWs)   bands (ev):

   -16.0575 -15.6859 -15.6780 -14.5774 -14.5766 -14.0949 -14.0922 -13.7329
   -13.7302 -13.7256 -13.7220 -12.7787 -12.7772 -12.6638 -12.6601 -12.6592
   -12.6567 -10.9692 -10.9680 -10.9668 -10.9643 -10.7602  -9.7663  -9.0831
    -9.0830  -9.0810  -9.0780  -8.2039  -8.2003  -8.2001  -8.1969  -7.2166
    -7.2152  -7.1376  -7.1366  -7.1334  -7.1324  -7.1207  -7.1201  -5.7197
    -5.5809  -5.5798  -5.5772  -5.5756  -5.4238  -5.4198  -5.4172  -5.4158
    -5.1961  -5.1769  -4.8199  -4.3907  -4.2865  -4.2755  -4.2674  -4.2597
    -3.9473  -3.9463  -3.8140  -3.8118  -3.7081  -3.6778  -3.2613  -3.1344
    -3.1321  -3.1299  -3.1286  -3.0975  -3.0720  -2.9761  -2.9712  -2.9693
    -2.8971  -2.8929  -2.7288  -2.7008  -2.6982  -2.6967  -2.6115  -2.6087
    -2.6062  -2.5177  -2.5144  -2.4405  -2.3920  -2.3480  -2.3146  -2.3131
    -2.3082  -2.3072  -2.2072  -2.0505  -2.0496  -2.0460  -2.0156  -1.9942
    -1.9082  -1.8826  -1.8605  -1.8452  -1.8443  -1.8422  -1.8404  -1.7296
    -1.7287  -1.7161  -1.7123  -1.7108  -1.7090  -1.7067  -1.6910  -1.5989
    -1.5946  -1.5765  -1.5032  -1.4634  -1.4264  -1.4249  -1.4243  -1.4134
    -1.3859  -1.3656  -1.3527  -1.3454  -1.3424  -1.2939  -1.2654  -1.2535
    -1.2512  -1.2487  -1.2269  -1.2232  -1.2229  -1.2208  -1.2055  -1.2030
    -1.1616  -1.1315  -1.1189  -1.1004  -1.0524  -1.0507  -1.0450  -1.0394
    -0.9859  -0.9675  -0.9618  -0.9487  -0.9476  -0.9392  -0.9270  -0.9005
    -0.8959  -0.8785  -0.8765  -0.8522  -0.8520  -0.7988  -0.7903  -0.7788
    -0.7750  -0.7748  -0.7530  -0.7358  -0.7316  -0.7215  -0.7170  -0.7158
    -0.7126  -0.7081  -0.7067  -0.7044  -0.7029  -0.6840  -0.6576  -0.6506
    -0.6468  -0.6365  -0.6171  -0.6164  -0.6112  -0.6056  -0.6026  -0.5747
    -0.5470  -0.5459  -0.5451  -0.5437  -0.5422  -0.5408  -0.5404  -0.5388
    -0.5366  -0.5358  -0.5350  -0.5321  -0.5299  -0.5289  -0.5284  -0.5193
    -0.4932  -0.4816  -0.4783  -0.4697  -0.4663  -0.3927  -0.3788  -0.3745
    -0.3711  -0.3677  -0.3470  -0.3308  -0.3280  -0.3197  -0.3079  -0.3061
    -0.2946  -0.2920  -0.2885  -0.2846  -0.2818  -0.2789  -0.2558  -0.2530
    -0.2505  -0.2486  -0.2472  -0.2384  -0.2362  -0.2289  -0.1889  -0.1804
    -0.1653  -0.1278  -0.1239  -0.1198  -0.1146  -0.1117  -0.1088  -0.0973
    -0.0957  -0.0915  -0.0909  -0.0895  -0.0884  -0.0855  -0.0845  -0.0725
    -0.0722  -0.0660  -0.0589  -0.0578  -0.0475  -0.0384  -0.0353   0.0124
     0.0157   0.0174   0.0228   0.0240   0.0480   0.0493   0.0501   0.0513
     0.0549   0.0613   0.0670   0.0700   0.0723   0.0886   0.0910   0.0922
     0.0975   0.0978   0.1002   0.1010   0.1024   0.1050   0.1117   0.1186
     0.1214   0.1241   0.1267   0.1403   0.1478   0.1838   0.1886   0.1928
     0.1981   0.2138   0.2249   0.2295   0.2449   0.2485   0.2490   0.2519
     0.2533   0.2545   0.2552   0.2662   0.2736   0.2993   0.3040   0.3054
     0.3143   0.3235   0.3282   0.3328   0.3358   0.3365   0.3402   0.3448
     0.3534   0.3584   0.3607   0.3614   0.3627   0.3690   0.3746   0.3757
     0.3768   0.3800   0.3927   0.3943   0.3973   0.4030   0.4070   0.4123
     0.4222   0.4263   0.4477   0.4548   0.4654   0.4790   0.4805   0.4956
     0.5021   0.5220   0.5437   0.5478   0.5507   0.5538   0.5550   0.5600
     0.5686   0.5753   0.5760   0.5832   0.5848   0.5899   0.5929   0.6200
     0.6406   0.6481   0.6542   0.6556   0.6576   0.6626   0.6712   0.6847
     0.6885   0.6939   0.6964   0.6991   0.7111   0.7225   0.7308   0.7355
     0.7359   0.7361   0.7452   0.7470   0.7496   0.7725   0.7826   0.7891
     0.7989   0.8073   0.8110   0.8128   0.8188   0.8222   0.8306   0.8315
     0.8418   0.8439   0.8474   0.8497   0.8519   0.8521   0.8546   0.8588
     0.8663   0.8679   0.8694   0.8716   0.8756   0.8766   0.9043   0.9118
     0.9149   0.9199   0.9203   0.9265   0.9533   0.9551   0.9597   0.9616
     0.9637   0.9640   0.9664   0.9701   0.9738   0.9790   0.9888   0.9892
     0.9928   0.9945   1.0027   1.0040   1.0074   1.0092   1.0148   1.0224
     1.0287   1.0320   1.0350   1.0381   1.0427   1.0555   1.0593   1.0609
     1.0620   1.0624   1.0634   1.0677   1.0713   1.0768   1.0902   1.1053
     1.1103   1.1167   1.1177   1.1216   1.1267   1.1316   1.1332   1.1348
     1.1389   1.1426   1.1638   1.1705   1.1715   1.1741   1.1917   1.1935
     1.1968   1.2036   1.2079   1.2090   1.2112   1.2186   1.2221   1.2339
     1.2405   1.2460   1.2499   1.2509   1.2540   1.2599   1.2728   1.2751
     1.2794   1.2893   1.2963   1.2998   1.3080   1.3134   1.3170   1.3207
     1.3221   1.3247   1.3286   1.3291   1.3335   1.3372   1.3405   1.3417
     1.3433   1.3442   1.3473   1.3529   1.3531   1.3633   1.3663   1.3726
     1.3769   1.3846   1.3890   1.3922   1.4074   1.4111   1.4190   1.4203
     1.4213   1.4238   1.4284   1.4298   1.4321   1.4324   1.4329   1.4335
     1.4366   1.4482   1.4487   1.4517   1.4837   1.4894   1.4928   1.5048
     1.5123   1.5157   1.5163   1.5194   1.5205   1.5239   1.5282   1.5358
     1.5417   1.5478   1.5503   1.5514   1.5526   1.5558   1.5566   1.5592
     1.5605   1.5703   1.5777   1.5817   1.5845   1.5865   1.5878   1.5902
     1.5906   1.5934   1.6045   1.6097   1.6117   1.6131   1.6187   1.6233
     1.6258   1.6264   1.6271   1.6285   1.6347   1.6364   1.6513   1.6584
     1.6677   1.6695   1.6696   1.6722   1.6732   1.6753   1.6795   1.6853
     1.6983   1.7018   1.7027   1.7047   1.7167   1.7218   1.7263   1.7295
     1.7349   1.7379   1.7393   1.7416   1.7448   1.7474   1.7482   1.7497
     1.7499   1.7520   1.7528   1.7539   1.7557   1.7652   1.7711   1.7779
     1.7799   1.7810   1.7822   1.7880   1.7926   1.8147   1.8167   1.8277
     1.8308   1.8356   1.8509   1.8678   1.8706   1.8722   1.8768   1.8826
     1.8883   1.8969   1.9082   1.9237   1.9309   1.9410   1.9430   1.9440
     1.9451   1.9575   1.9594   1.9601   2.1998   2.2674   2.2712   2.4093
     2.4326   2.4511   2.5002   2.5121   2.5129   2.5219   2.5229   2.5335
     2.5349   2.5356   2.6232   2.7005   2.7351   2.7678   2.7695   2.7705
     2.7819   2.7872   2.9327   3.0194   3.0283   3.0295   3.3178   3.3927
     3.4115   3.4168   3.4184   3.6537   3.8089   3.9122   4.1136   4.1264
     4.1518   4.1550   4.1565   4.1920   4.2124   4.2448   4.2782   4.2882
     4.2982   4.3127   4.3148   4.3165   4.3197   4.4830   4.5341   4.5382
     4.5442   4.6347   4.9023   5.0611   5.2656   5.2793   5.3007   5.3124
     5.4647   5.6192   5.6505   5.7051   5.8660   5.9653   6.0135   6.0202
     6.2202   6.2367   6.3865   6.5935   6.6711   6.7075   6.7264   6.7490
     6.7561   6.7598   6.8845   6.9148   6.9458   6.9560   7.0958   7.1016
     7.1065   7.1094   7.1670   7.1843   7.2143   7.2998   7.3580   7.3599
     7.3794   7.3886   7.3905   7.6303   7.6631   7.7446   7.7887   7.8623
     7.8636   7.9561   7.9651   7.9863   7.9940   8.0014   8.2781   8.4327
     8.4606   8.4850   8.4856   8.5042   8.5275   8.6210   8.6398   8.6471
     8.6648   8.6836   8.7005   8.7902   8.7983   8.8718   8.8958   8.9046
     8.9097   8.9206   8.9445   8.9546   8.9570   9.0870   9.1156   9.1339
     9.1455   9.2826   9.2854   9.3092   9.3636   9.3647   9.3747   9.3770
     9.3807   9.4019   9.4173   9.6043   9.6451   9.8132   9.8189   9.8638
     9.8838  10.0295  10.0322  10.0483  10.0521  10.1400  10.2560  10.3215

          k = 0.0000-0.2165 0.0000 (256176 PWs)   bands (ev):

   -15.9847 -15.9401 -15.2203 -15.2194 -14.0235 -14.0217 -13.9809 -13.9768
   -13.7607 -13.7585 -13.2851 -13.2816 -13.2768 -13.2740 -11.8903 -11.8855
   -11.8753 -11.8748 -11.6704 -11.6511  -9.9803  -9.9784  -9.9697  -9.9667
    -8.7379  -8.7240  -8.5776  -8.5765  -8.5590  -8.5568  -7.7395  -7.7378
    -7.7358  -7.7352  -6.5767  -6.5750  -6.5476  -6.5468  -6.4079  -6.4054
    -6.4038  -6.3977  -5.5984  -5.5950  -5.5942  -5.5738  -4.7663  -4.7617
    -4.7404  -4.7344  -4.7298  -4.6628  -4.5433  -4.5284  -4.1978  -4.1958
    -4.1915  -4.1891  -4.1701  -4.1509  -3.8304  -3.6784  -3.2543  -3.2497
    -3.1254  -2.9954  -2.9927  -2.9914  -2.9338  -2.9002  -2.8645  -2.7602
    -2.7307  -2.7214  -2.6541  -2.6527  -2.6293  -2.6266  -2.5565  -2.4549
    -2.4517  -2.4497  -2.4456  -2.3585  -2.3550  -2.2856  -2.2854  -2.2727
    -2.2714  -2.2693  -2.2671  -2.2370  -2.1732  -2.1716  -2.1224  -1.9993
    -1.9786  -1.9493  -1.9481  -1.9438  -1.9261  -1.9139  -1.8644  -1.8308
    -1.8294  -1.8265  -1.7444  -1.6801  -1.6758  -1.6747  -1.6729  -1.6511
    -1.6486  -1.5534  -1.5137  -1.4571  -1.4545  -1.4407  -1.4377  -1.4371
    -1.4351  -1.4333  -1.4295  -1.4284  -1.4104  -1.4075  -1.3424  -1.3323
    -1.2831  -1.2258  -1.2238  -1.2229  -1.1930  -1.1591  -1.1522  -1.1515
    -1.1196  -1.0594  -1.0560  -1.0540  -1.0245  -1.0055  -1.0017  -0.9680
    -0.9635  -0.9632  -0.9615  -0.9572  -0.9489  -0.9417  -0.9381  -0.9369
    -0.9287  -0.9181  -0.9139  -0.9104  -0.9091  -0.9011  -0.8552  -0.8354
    -0.8330  -0.8305  -0.8241  -0.8189  -0.7793  -0.7759  -0.7652  -0.7381
    -0.7374  -0.7358  -0.7336  -0.6898  -0.6831  -0.6715  -0.6696  -0.6682
    -0.6670  -0.6622  -0.6311  -0.6126  -0.6102  -0.6065  -0.6007  -0.5988
    -0.5967  -0.5887  -0.5834  -0.5831  -0.5520  -0.5181  -0.5143  -0.5111
    -0.5039  -0.5022  -0.5010  -0.4991  -0.4948  -0.4830  -0.4736  -0.4659
    -0.4441  -0.4409  -0.4391  -0.4377  -0.3884  -0.3465  -0.3431  -0.3401
    -0.3391  -0.3212  -0.3208  -0.2964  -0.2946  -0.2904  -0.2895  -0.2893
    -0.2875  -0.2679  -0.2598  -0.2353  -0.2313  -0.2272  -0.2263  -0.2244
    -0.2210  -0.2208  -0.2137  -0.1935  -0.1912  -0.1706  -0.1693  -0.1690
    -0.1533  -0.1370  -0.1356  -0.1342  -0.1307  -0.1245  -0.1224  -0.1191
    -0.1176  -0.1069  -0.0577  -0.0492  -0.0459  -0.0429  -0.0417  -0.0128
    -0.0122   0.0106   0.0123   0.0128   0.0156   0.0183   0.0198   0.0204
     0.0382   0.0420   0.0446   0.0483   0.0572   0.0576   0.0603   0.0627
     0.0644   0.0651   0.0683   0.0712   0.0747   0.0757   0.0777   0.0834
     0.1061   0.1070   0.1084   0.1094   0.1213   0.1653   0.1692   0.1706
     0.1746   0.1759   0.1785   0.1830   0.1875   0.1898   0.1920   0.2022
     0.2059   0.2103   0.2167   0.2207   0.2251   0.2278   0.2291   0.2315
     0.2339   0.2381   0.2389   0.2409   0.2416   0.2526   0.2701   0.2903
     0.2920   0.2946   0.2985   0.3089   0.3153   0.3171   0.3222   0.3240
     0.3265   0.3313   0.3369   0.3422   0.3426   0.3552   0.3590   0.3685
     0.3730   0.3774   0.3843   0.3873   0.3908   0.3909   0.4070   0.4082
     0.4181   0.4231   0.4273   0.4301   0.4412   0.4447   0.4462   0.4467
     0.4786   0.4866   0.4930   0.4998   0.5044   0.5107   0.5156   0.5173
     0.5183   0.5383   0.5467   0.5734   0.5752   0.5768   0.6067   0.6115
     0.6186   0.6534   0.6584   0.6804   0.6895   0.6963   0.6978   0.7091
     0.7166   0.7195   0.7245   0.7307   0.7333   0.7469   0.7486   0.7608
     0.7623   0.7637   0.7684   0.7690   0.7737   0.7766   0.7825   0.7861
     0.7872   0.7882   0.7931   0.7943   0.7958   0.7990   0.8276   0.8308
     0.8328   0.8387   0.8390   0.8413   0.8493   0.8501   0.8503   0.8607
     0.8626   0.8660   0.8667   0.8693   0.8710   0.8719   0.8754   0.8775
     0.8876   0.8939   0.8958   0.8973   0.8991   0.9013   0.9024   0.9046
     0.9119   0.9174   0.9356   0.9564   0.9586   0.9692   0.9708   0.9746
     0.9761   0.9809   0.9812   0.9871   0.9904   0.9915   0.9922   0.9937
     0.9965   0.9972   1.0168   1.0342   1.0374   1.0379   1.0400   1.0436
     1.0480   1.0536   1.0542   1.0580   1.0610   1.0707   1.0841   1.0864
     1.0884   1.0928   1.0943   1.0955   1.1410   1.1477   1.1717   1.1837
     1.1909   1.1938   1.2005   1.2043   1.2071   1.2107   1.2156   1.2207
     1.2219   1.2273   1.2302   1.2315   1.2330   1.2346   1.2402   1.2415
     1.2492   1.2527   1.2540   1.2555   1.2655   1.2701   1.2751   1.2774
     1.2798   1.2805   1.2824   1.2841   1.2846   1.2858   1.2906   1.2936
     1.2982   1.3023   1.3028   1.3029   1.3066   1.3073   1.3179   1.3269
     1.3302   1.3368   1.3383   1.3406   1.3422   1.3432   1.3490   1.3520
     1.3531   1.3543   1.3568   1.3605   1.3957   1.4004   1.4071   1.4236
     1.4285   1.4402   1.4423   1.4456   1.4545   1.4598   1.4610   1.4666
     1.4768   1.4835   1.4888   1.4895   1.4968   1.4997   1.5017   1.5050
     1.5071   1.5090   1.5124   1.5133   1.5147   1.5158   1.5166   1.5190
     1.5240   1.5272   1.5292   1.5361   1.5416   1.5421   1.5442   1.5452
     1.5461   1.5513   1.5738   1.5785   1.5813   1.5832   1.5841   1.5890
     1.5907   1.5934   1.6049   1.6073   1.6093   1.6101   1.6114   1.6199
     1.6230   1.6292   1.6297   1.6310   1.6355   1.6369   1.6462   1.6477
     1.6605   1.6630   1.6679   1.6686   1.6751   1.6843   1.6915   1.6921
     1.6960   1.6963   1.6993   1.7072   1.7084   1.7090   1.7176   1.7268
     1.7277   1.7400   1.7416   1.7431   1.7570   1.7598   1.7617   1.7625
     1.7631   1.7640   1.7666   1.7666   1.7901   1.7936   1.7943   1.8025
     1.8090   1.8133   1.8160   1.8166   1.8244   1.8325   1.8337   1.8345
     1.8423   1.8450   1.8574   1.8602   1.8635   1.8916   1.9001   1.9004
     1.9408   1.9933   2.0088   2.0240   2.0417   2.0456   2.0501   2.0531
     2.0832   2.0856   2.0939   2.1077   2.1204   2.1265   2.1268   2.1276
     2.1668   2.1695   2.4449   2.4537   2.4635   2.4656   2.5213   2.7071
     2.7295   2.7297   2.7666   2.8060   2.8151   2.8632   2.8664   2.8665
     2.8894   2.8917   2.9875   3.0147   3.0196   3.0467   3.0820   3.0846
     3.2336   3.2346   3.3180   3.4753   3.4756   3.4915   3.5823   3.6811
     3.9361   3.9764   4.1441   4.2998   4.3121   4.3323   4.3626   4.4179
     4.4303   4.4464   4.5174   4.6141   4.6171   4.6257   4.7257   4.7825
     4.8411   4.9593   5.0223   5.0407   5.3542   5.3853   5.4125   5.4192
     5.6197   5.6604   5.6615   5.6692   5.7300   5.7400   5.9721   5.9840
     6.1196   6.1303   6.1980   6.2061   6.2890   6.6289   6.6574   6.6615
     6.7185   6.7248   6.8120   6.8356   6.9241   6.9770   7.0293   7.0709
     7.1736   7.2637   7.3454   7.3500   7.3738   7.3846   7.4101   7.4149
     7.4231   7.4300   7.4800   7.4870   7.5701   7.6177   7.6514   7.6731
     7.7015   7.7303   8.0547   8.0703   8.0893   8.0926   8.0950   8.1019
     8.3586   8.4483   8.4886   8.4932   8.5307   8.6281   8.6601   8.6646
     8.7016   8.7031   8.8575   8.8701   8.9048   8.9189   8.9255   9.0066
     9.0130   9.0248   9.0337   9.0683   9.1271   9.1405   9.1462   9.1558
     9.2660   9.3272   9.3981   9.4218   9.5208   9.5234   9.5529   9.5728
     9.6507   9.6828   9.6862   9.6918   9.7078   9.7369   9.7445   9.7523
     9.8950   9.9026   9.9054   9.9333  10.0897  10.1768  10.1831  10.1849

          k = 0.2500 0.0000 0.0000 (256240 PWs)   bands (ev):

   -15.9333 -15.5622 -15.5543 -14.9460 -14.5795 -14.5718 -14.4557 -14.4549
   -13.4903 -13.4896 -13.0168 -12.6625 -12.6619 -12.6606 -12.6547 -11.7408
   -11.7392 -11.6311 -11.6303 -10.6546 -10.3564 -10.3390 -10.3072  -9.8127
    -9.6615  -9.3581  -9.3561  -8.9617  -8.7020  -8.7010  -8.1461  -7.1419
    -7.1406  -7.1365  -7.1349  -7.0240  -7.0215  -6.5587  -6.2812  -5.7162
    -5.5404  -5.5215  -5.5204  -5.5015  -5.4976  -5.0246  -5.0038  -4.7806
    -4.7776  -4.6611  -4.2777  -4.2594  -4.1545  -4.1234  -4.1164  -3.9675
    -3.9658  -3.9381  -3.9374  -3.7147  -3.6923  -3.6664  -3.6634  -3.5648
    -3.5306  -3.4951  -3.4104  -3.2149  -3.2142  -3.1451  -3.1354  -3.1324
    -3.1233  -3.1201  -3.0210  -3.0206  -2.9333  -2.9278  -2.8392  -2.7686
    -2.7493  -2.7352  -2.5649  -2.5619  -2.5045  -2.4902  -2.4269  -2.4055
    -2.4042  -2.3210  -2.1258  -2.0775  -2.0686  -2.0670  -2.0196  -1.9498
    -1.7902  -1.7862  -1.7744  -1.7688  -1.7083  -1.6882  -1.6173  -1.6081
    -1.6059  -1.5914  -1.5892  -1.5622  -1.4916  -1.4903  -1.4874  -1.4837
    -1.4771  -1.4602  -1.4291  -1.4126  -1.4107  -1.3899  -1.3824  -1.3529
    -1.3352  -1.3192  -1.2903  -1.2708  -1.2702  -1.2684  -1.2669  -1.2653
    -1.2594  -1.2567  -1.2507  -1.2191  -1.1946  -1.1923  -1.1832  -1.1800
    -1.0992  -1.0570  -1.0213  -1.0182  -0.9997  -0.9690  -0.9536  -0.9378
    -0.9304  -0.9289  -0.9249  -0.9199  -0.9154  -0.8982  -0.8959  -0.8871
    -0.8726  -0.8713  -0.8583  -0.8543  -0.8261  -0.8226  -0.8203  -0.8142
    -0.8129  -0.7982  -0.7970  -0.7869  -0.7731  -0.7562  -0.7360  -0.7343
    -0.7329  -0.7300  -0.7242  -0.7169  -0.7065  -0.7010  -0.6988  -0.6914
    -0.6862  -0.6694  -0.6690  -0.6678  -0.6675  -0.6631  -0.6616  -0.6548
    -0.6462  -0.6372  -0.6284  -0.6238  -0.6085  -0.6031  -0.5941  -0.5912
    -0.5900  -0.5873  -0.5699  -0.5616  -0.5406  -0.5377  -0.5056  -0.5041
    -0.4880  -0.4852  -0.4790  -0.4596  -0.4576  -0.4480  -0.4439  -0.4395
    -0.4370  -0.4306  -0.4279  -0.4161  -0.3722  -0.2895  -0.2883  -0.2855
    -0.2648  -0.2561  -0.2532  -0.2501  -0.2389  -0.2382  -0.2368  -0.2302
    -0.2173  -0.2147  -0.2134  -0.2106  -0.1985  -0.1827  -0.1762  -0.1743
    -0.1715  -0.1695  -0.1674  -0.1499  -0.1476  -0.1465  -0.1328  -0.0877
    -0.0869  -0.0850  -0.0809  -0.0784  -0.0708  -0.0673  -0.0609  -0.0588
    -0.0579  -0.0460  -0.0432  -0.0249  -0.0177  -0.0158  -0.0018   0.0178
     0.0184   0.0202   0.0212   0.0269   0.0312   0.0427   0.0479   0.0500
     0.0601   0.0624   0.0694   0.0772   0.0890   0.1049   0.1095   0.1131
     0.1151   0.1263   0.1291   0.1312   0.1326   0.1380   0.1427   0.1627
     0.1633   0.1670   0.1722   0.1770   0.1818   0.1956   0.2013   0.2049
     0.2212   0.2395   0.2461   0.2472   0.2494   0.2599   0.2632   0.2666
     0.2845   0.2936   0.3018   0.3035   0.3044   0.3058   0.3096   0.3139
     0.3167   0.3189   0.3202   0.3224   0.3232   0.3313   0.3426   0.3459
     0.3469   0.3525   0.3538   0.3654   0.3707   0.3743   0.3845   0.3912
     0.4044   0.4179   0.4232   0.4265   0.4292   0.4325   0.4344   0.4363
     0.4466   0.4537   0.4547   0.4568   0.4586   0.4698   0.4844   0.4996
     0.5272   0.5324   0.5529   0.5621   0.5687   0.5754   0.5805   0.5844
     0.5914   0.5929   0.5933   0.5959   0.5985   0.6025   0.6034   0.6060
     0.6104   0.6114   0.6177   0.6203   0.6221   0.6246   0.6305   0.6368
     0.6423   0.6482   0.6499   0.6541   0.6644   0.6786   0.6881   0.7056
     0.7089   0.7215   0.7277   0.7288   0.7336   0.7448   0.7520   0.7553
     0.7583   0.7588   0.7610   0.7812   0.7869   0.7910   0.7931   0.7979
     0.7984   0.8025   0.8115   0.8134   0.8210   0.8331   0.8370   0.8400
     0.8429   0.8520   0.8557   0.8572   0.8591   0.8635   0.8663   0.8701
     0.8770   0.8847   0.8935   0.8965   0.8995   0.9019   0.9099   0.9125
     0.9184   0.9230   0.9251   0.9312   0.9334   0.9465   0.9551   0.9570
     0.9685   0.9711   0.9758   0.9786   0.9813   0.9824   0.9931   1.0080
     1.0162   1.0284   1.0327   1.0471   1.0501   1.0550   1.0568   1.0577
     1.0613   1.0670   1.0761   1.0850   1.0880   1.0906   1.0922   1.0979
     1.1019   1.1040   1.1131   1.1235   1.1285   1.1319   1.1376   1.1395
     1.1507   1.1614   1.1687   1.1704   1.1738   1.1904   1.1947   1.1958
     1.2016   1.2040   1.2078   1.2083   1.2131   1.2172   1.2199   1.2224
     1.2419   1.2501   1.2545   1.2573   1.2605   1.2633   1.2692   1.2725
     1.2802   1.2881   1.2939   1.3004   1.3028   1.3061   1.3106   1.3130
     1.3169   1.3180   1.3258   1.3293   1.3317   1.3340   1.3359   1.3375
     1.3414   1.3435   1.3467   1.3477   1.3508   1.3562   1.3614   1.3678
     1.3739   1.3774   1.3822   1.3824   1.3841   1.3891   1.3916   1.3993
     1.4031   1.4074   1.4148   1.4192   1.4203   1.4232   1.4312   1.4365
     1.4468   1.4485   1.4498   1.4564   1.4598   1.4659   1.4687   1.4738
     1.4775   1.4880   1.4940   1.4981   1.5018   1.5027   1.5096   1.5172
     1.5350   1.5449   1.5522   1.5558   1.5577   1.5612   1.5646   1.5680
     1.5698   1.5770   1.5806   1.5842   1.5864   1.5913   1.5933   1.5974
     1.5998   1.6043   1.6083   1.6130   1.6143   1.6172   1.6210   1.6236
     1.6268   1.6275   1.6287   1.6347   1.6359   1.6394   1.6432   1.6479
     1.6570   1.6621   1.6658   1.6676   1.6689   1.6727   1.6735   1.6884
     1.6914   1.6947   1.6980   1.6998   1.7102   1.7148   1.7162   1.7310
     1.7342   1.7350   1.7369   1.7379   1.7391   1.7413   1.7442   1.7482
     1.7496   1.7547   1.7558   1.7596   1.7638   1.7721   1.7769   1.7781
     1.7794   1.7815   1.7831   1.7971   1.7978   1.8012   1.8050   1.8171
     1.8190   1.8205   1.8216   1.8269   1.8327   1.8380   1.8602   1.8687
     1.8847   1.8946   1.8959   1.9245   1.9365   1.9378   1.9427   1.9737
     1.9834   2.0182   2.0561   2.0676   2.0733   2.0842   2.1028   2.1518
     2.1647   2.2636   2.3221   2.3423   2.3690   2.3818   2.3889   2.4635
     2.4804   2.5175   2.5463   2.8124   2.8678   2.8695   2.8719   3.1763
     3.2870   3.2871   3.3870   3.5008   3.5031   3.5299   3.5308   3.5691
     3.6182   3.7477   3.7989   3.8655   3.8948   3.9311   3.9705   3.9990
     4.0154   4.0192   4.0572   4.1397   4.1652   4.2229   4.2600   4.3457
     4.3832   4.4475   4.5003   4.5932   4.6766   4.7577   4.7731   4.9132
     4.9609   5.1257   5.1414   5.2742   5.4704   5.5214   5.5276   5.5774
     5.6481   5.6544   5.6959   5.7621   5.7849   5.8192   5.8490   5.8654
     5.8988   5.9256   5.9982   6.0214   6.0842   6.0939   6.1847   6.1973
     6.3044   6.3179   6.3455   6.3613   6.8308   6.9525   6.9768   7.0153
     7.0540   7.0630   7.1136   7.1160   7.1408   7.2017   7.2780   7.3259
     7.3304   7.3375   7.3555   7.4134   7.4749   7.5265   7.5642   7.5806
     7.7202   7.7481   7.8335   7.8563   7.9311   7.9719   7.9983   8.0304
     8.0343   8.0450   8.1345   8.2427   8.2965   8.3544   8.3644   8.4404
     8.5019   8.5734   8.6095   8.6187   8.6218   8.6542   8.6601   8.6646
     8.6804   8.7341   8.8676   8.9187   8.9457   8.9559   9.2049   9.2173
     9.2954   9.4029   9.4201   9.4463   9.4490   9.4511   9.4711   9.4757
     9.4876   9.4997   9.5120   9.5135   9.5311   9.5345   9.5446   9.6657
     9.6855   9.7837   9.7882   9.9541  10.0202  10.0538  10.0545  10.1247

          k = 0.2500-0.2165 0.0000 (256316 PWs)   bands (ev):

   -15.8606 -15.8160 -15.0973 -15.0965 -14.8742 -14.8300 -14.1212 -14.1204
   -13.6410 -13.6388 -12.9474 -12.9042 -12.6926 -12.6902 -12.2234 -12.2228
   -11.5585 -11.5392 -10.9277 -10.9249 -10.6790 -10.6601 -10.3036 -10.2636
    -9.2351  -9.2337  -8.7261  -8.7000  -8.6436  -8.6295  -8.0827  -8.0677
    -7.9827  -7.9796  -6.2675  -6.2410  -6.2324  -6.2293  -6.1272  -6.0884
    -5.8993  -5.8746  -5.5567  -5.5544  -5.4186  -5.3956  -4.7552  -4.7514
    -4.5896  -4.5007  -4.4294  -4.4278  -4.3807  -4.3650  -4.0623  -4.0371
    -4.0159  -3.9975  -3.8071  -3.7804  -3.7469  -3.7452  -3.7067  -3.5320
    -3.4185  -3.3824  -3.3137  -3.2614  -3.1721  -3.1596  -3.1498  -3.1490
    -3.1167  -3.1126  -2.8461  -2.8379  -2.8146  -2.8090  -2.8066  -2.6722
    -2.6704  -2.6167  -2.6060  -2.5999  -2.5335  -2.4862  -2.4835  -2.4675
    -2.2497  -2.1939  -2.1910  -2.1381  -2.0937  -2.0039  -2.0013  -1.9195
    -1.9039  -1.8771  -1.8609  -1.8598  -1.7816  -1.6983  -1.6967  -1.6607
    -1.6355  -1.5996  -1.5758  -1.5589  -1.5328  -1.5112  -1.5053  -1.5036
    -1.5012  -1.4412  -1.4184  -1.4103  -1.4009  -1.3956  -1.3920  -1.3826
    -1.3740  -1.3654  -1.3649  -1.3646  -1.3591  -1.3562  -1.3521  -1.3472
    -1.2800  -1.2690  -1.2341  -1.1570  -1.1512  -1.0566  -1.0551  -1.0328
    -1.0166  -1.0150  -1.0111  -0.9666  -0.9657  -0.9629  -0.9522  -0.9509
    -0.9379  -0.9360  -0.9316  -0.9280  -0.9166  -0.9135  -0.9070  -0.8989
    -0.8979  -0.8933  -0.8849  -0.8809  -0.8756  -0.8719  -0.8477  -0.8172
    -0.8162  -0.8134  -0.8085  -0.8069  -0.8007  -0.8002  -0.7817  -0.7701
    -0.7651  -0.7570  -0.7291  -0.7259  -0.7217  -0.7127  -0.7121  -0.7098
    -0.6939  -0.6840  -0.6837  -0.6587  -0.6523  -0.6485  -0.6473  -0.6423
    -0.6409  -0.6376  -0.6120  -0.6086  -0.5984  -0.5922  -0.5582  -0.5543
    -0.5522  -0.5496  -0.5270  -0.4707  -0.4678  -0.4660  -0.4635  -0.4602
    -0.4558  -0.4512  -0.4377  -0.4142  -0.4107  -0.4086  -0.4021  -0.3998
    -0.3955  -0.3931  -0.3865  -0.3795  -0.3763  -0.3393  -0.3350  -0.3287
    -0.3065  -0.3021  -0.2775  -0.2552  -0.2532  -0.2516  -0.2490  -0.2329
    -0.2304  -0.2191  -0.2140  -0.2078  -0.2035  -0.1886  -0.1826  -0.1749
    -0.1742  -0.1431  -0.1408  -0.1393  -0.1331  -0.1286  -0.1065  -0.0974
    -0.0897  -0.0825  -0.0799  -0.0687  -0.0663  -0.0565  -0.0552  -0.0547
    -0.0508  -0.0498  -0.0489  -0.0430  -0.0394  -0.0380  -0.0333  -0.0279
    -0.0233  -0.0202  -0.0140  -0.0064  -0.0040   0.0237   0.0310   0.0378
     0.0449   0.0548   0.0575   0.0733   0.0786   0.0837   0.0875   0.0975
     0.1002   0.1025   0.1090   0.1340   0.1426   0.1605   0.1621   0.1939
     0.1984   0.2012   0.2050   0.2069   0.2096   0.2220   0.2266   0.2320
     0.2400   0.2439   0.2477   0.2518   0.2591   0.2614   0.2639   0.2672
     0.2718   0.2732   0.2839   0.2942   0.3010   0.3040   0.3068   0.3085
     0.3107   0.3126   0.3142   0.3160   0.3211   0.3218   0.3243   0.3384
     0.3418   0.3470   0.3523   0.3696   0.3769   0.3823   0.3851   0.3898
     0.3949   0.4110   0.4152   0.4348   0.4364   0.4423   0.4450   0.4507
     0.4529   0.4604   0.4619   0.4642   0.4696   0.4715   0.4778   0.4825
     0.4874   0.4916   0.5009   0.5138   0.5326   0.5732   0.5764   0.5829
     0.5905   0.5939   0.5965   0.5985   0.6006   0.6010   0.6029   0.6075
     0.6158   0.6277   0.6315   0.6335   0.6345   0.6400   0.6421   0.6436
     0.6462   0.6492   0.6537   0.6758   0.6782   0.6868   0.6930   0.7069
     0.7086   0.7133   0.7284   0.7371   0.7458   0.7606   0.7639   0.7690
     0.7724   0.7755   0.7793   0.7822   0.7859   0.7899   0.7912   0.7940
     0.7980   0.7992   0.8028   0.8194   0.8250   0.8321   0.8400   0.8441
     0.8586   0.8737   0.8784   0.8823   0.8844   0.9010   0.9073   0.9101
     0.9137   0.9177   0.9194   0.9241   0.9257   0.9287   0.9307   0.9368
     0.9390   0.9431   0.9476   0.9539   0.9558   0.9654   0.9674   0.9740
     0.9759   0.9793   0.9812   0.9829   0.9851   0.9923   0.9939   0.9979
     1.0014   1.0032   1.0131   1.0176   1.0181   1.0190   1.0223   1.0261
     1.0289   1.0331   1.0342   1.0348   1.0698   1.0712   1.0779   1.0804
     1.0860   1.0932   1.1145   1.1184   1.1268   1.1333   1.1357   1.1375
     1.1405   1.1421   1.1530   1.1603   1.1660   1.1672   1.1677   1.1684
     1.1706   1.1784   1.1871   1.1932   1.1952   1.1996   1.2030   1.2081
     1.2133   1.2198   1.2308   1.2378   1.2403   1.2510   1.2616   1.2623
     1.2663   1.2690   1.2767   1.2806   1.2852   1.2870   1.2932   1.2995
     1.3071   1.3119   1.3133   1.3189   1.3329   1.3375   1.3438   1.3493
     1.3561   1.3706   1.3757   1.3823   1.3868   1.3910   1.3972   1.3989
     1.4016   1.4021   1.4028   1.4036   1.4046   1.4079   1.4106   1.4173
     1.4179   1.4246   1.4315   1.4329   1.4433   1.4482   1.4514   1.4694
     1.4752   1.4803   1.4823   1.4849   1.4867   1.4893   1.4945   1.4961
     1.5003   1.5016   1.5046   1.5053   1.5071   1.5097   1.5145   1.5157
     1.5180   1.5208   1.5226   1.5248   1.5320   1.5324   1.5355   1.5381
     1.5450   1.5489   1.5585   1.5592   1.5827   1.5830   1.5880   1.5924
     1.5969   1.6019   1.6078   1.6086   1.6152   1.6204   1.6237   1.6250
     1.6271   1.6349   1.6373   1.6428   1.6445   1.6453   1.6574   1.6598
     1.6623   1.6631   1.6650   1.6730   1.6799   1.6842   1.6862   1.6938
     1.6947   1.6964   1.6970   1.7009   1.7049   1.7060   1.7124   1.7152
     1.7200   1.7237   1.7279   1.7314   1.7397   1.7408   1.7479   1.7499
     1.7515   1.7522   1.7525   1.7551   1.7559   1.7564   1.7595   1.7617
     1.7672   1.7679   1.7921   1.7923   1.8021   1.8053   1.8127   1.8150
     1.8260   1.8304   1.8377   1.8418   1.8563   1.8631   1.8653   1.8711
     1.8803   1.8935   1.9182   1.9304   1.9331   1.9481   1.9668   1.9691
     2.0082   2.0607   2.0632   2.0700   2.0790   2.0864   2.0930   2.0987
     2.1125   2.1190   2.1278   2.1475   2.4238   2.4356   2.4501   2.4663
     2.5537   2.5979   2.8229   2.8949   2.9067   3.0767   3.0914   3.0951
     3.0974   3.1030   3.1176   3.1243   3.2575   3.2902   3.3136   3.3816
     3.6217   3.8374   3.8447   3.8920   3.8968   3.9437   4.0862   4.1411
     4.1439   4.1492   4.2507   4.2915   4.3557   4.3726   4.4527   4.4693
     4.6131   4.6748   4.6821   4.7180   4.7434   4.8292   4.9163   4.9691
     4.9983   5.0379   5.0617   5.1102   5.1184   5.1788   5.2374   5.3052
     5.4023   5.4390   5.4999   5.5553   5.6544   5.7375   5.7474   5.7602
     5.7686   5.7906   6.0384   6.0646   6.1048   6.1595   6.2527   6.2637
     6.3502   6.3545   6.6230   6.8509   6.8845   6.8918   6.9723   7.0214
     7.0695   7.1191   7.1890   7.2819   7.3089   7.3336   7.3790   7.3815
     7.4530   7.4645   7.4835   7.5224   7.5751   7.6077   7.6283   7.6355
     7.6480   7.6573   7.6879   7.7190   7.7255   7.7375   7.9018   7.9699
     8.0449   8.0710   8.1919   8.2332   8.2644   8.2678   8.4680   8.4894
     8.5052   8.5400   8.6533   8.6604   8.7420   8.7790   8.7948   8.8722
     8.8934   8.9169   8.9772   8.9869   8.9927   8.9975   9.0694   9.0891
     9.0935   9.1553   9.2084   9.2344   9.3121   9.3166   9.3509   9.4116
     9.4354   9.4657   9.4817   9.5227   9.5308   9.5682   9.5963   9.6360
     9.6414   9.6543   9.6614   9.6628   9.7264   9.7372  10.0596  10.0617

          k =-0.5000 0.0000 0.0000 (256496 PWs)   bands (ev):

   -15.5625 -15.5607 -15.1929 -15.1915 -15.1859 -15.1828 -14.0934 -14.0921
   -14.0907 -14.0902 -12.3151 -12.3140 -12.3120 -12.3106 -11.7411 -11.7401
   -11.4111 -11.4096 -11.4031 -11.4023 -10.7592 -10.7575 -10.3402 -10.3365
    -9.7620  -9.7599  -9.3633  -9.3611  -8.5211  -8.5194  -8.5172  -8.5163
    -7.0202  -7.0187  -6.9590  -6.9575  -6.9569  -6.9541  -5.5090  -5.5087
    -5.0261  -5.0000  -4.7789  -4.7690  -4.5562  -4.4971  -4.4940  -4.4902
    -4.3615  -4.3568  -4.3512  -4.3458  -4.2781  -4.2758  -4.2731  -4.2699
    -4.2451  -4.1169  -3.9867  -3.9842  -3.9774  -3.9758  -3.8560  -3.6821
    -3.6673  -3.6605  -3.6506  -3.6258  -3.2370  -3.2349  -3.2329  -3.2285
    -3.1478  -3.1105  -3.1102  -3.1094  -2.9816  -2.9811  -2.9683  -2.9669
    -2.9593  -2.9581  -2.7644  -2.4279  -2.4262  -2.4191  -2.3806  -2.3744
    -2.3710  -2.3690  -2.3551  -2.3067  -2.1676  -2.0947  -2.0940  -2.0874
    -2.0668  -2.0010  -1.9985  -1.9970  -1.6888  -1.5721  -1.5700  -1.5693
    -1.5683  -1.5641  -1.5565  -1.4477  -1.4454  -1.4435  -1.4191  -1.3401
    -1.3397  -1.3372  -1.3343  -1.2946  -1.2907  -1.2899  -1.2872  -1.2545
    -1.2453  -1.1994  -1.1787  -1.1771  -1.1444  -1.1140  -1.1134  -1.1117
    -1.1043  -1.0942  -1.0931  -1.0655  -1.0622  -1.0598  -1.0578  -1.0473
    -1.0465  -1.0432  -1.0425  -1.0358  -1.0322  -1.0293  -1.0281  -1.0248
    -0.9898  -0.9815  -0.9804  -0.9785  -0.9604  -0.9570  -0.9560  -0.9549
    -0.9047  -0.8928  -0.8909  -0.8727  -0.8695  -0.8687  -0.8661  -0.8466
    -0.8453  -0.8414  -0.8380  -0.8356  -0.8338  -0.8311  -0.7956  -0.7950
    -0.7937  -0.7922  -0.7737  -0.7727  -0.7466  -0.7432  -0.7335  -0.6985
    -0.6927  -0.6702  -0.6685  -0.6670  -0.6659  -0.6431  -0.6425  -0.6387
    -0.6369  -0.6281  -0.6279  -0.6266  -0.6176  -0.6164  -0.6145  -0.6128
    -0.6112  -0.6093  -0.6084  -0.5906  -0.5525  -0.5318  -0.5305  -0.5250
    -0.5064  -0.4810  -0.4759  -0.4023  -0.4009  -0.3999  -0.3991  -0.3640
    -0.3635  -0.3595  -0.3581  -0.3555  -0.3549  -0.3442  -0.3398  -0.3364
    -0.3256  -0.3196  -0.3164  -0.3152  -0.3094  -0.3035  -0.2873  -0.2842
    -0.2841  -0.2816  -0.2535  -0.1877  -0.1862  -0.1840  -0.1791  -0.1633
    -0.1568  -0.1510  -0.1455  -0.1428  -0.1134  -0.1004  -0.0973  -0.0916
    -0.0906  -0.0901  -0.0869  -0.0843  -0.0729  -0.0570  -0.0556  -0.0549
    -0.0543  -0.0524  -0.0314  -0.0217  -0.0211  -0.0145   0.0132   0.0153
     0.0166   0.0174   0.0252   0.0273   0.0561   0.0612   0.0632   0.0640
     0.0671   0.0719   0.0778   0.0782   0.0842   0.1070   0.1133   0.1159
     0.1356   0.1719   0.1742   0.1796   0.1806   0.1832   0.1852   0.1859
     0.1915   0.2165   0.2229   0.2279   0.2298   0.2592   0.2620   0.2802
     0.2851   0.2879   0.2886   0.2897   0.2904   0.2929   0.2942   0.2946
     0.2957   0.2965   0.2986   0.3485   0.3500   0.3530   0.3535   0.3651
     0.3715   0.3775   0.3799   0.3841   0.3858   0.3862   0.3897   0.3907
     0.3923   0.3939   0.3957   0.3970   0.4016   0.4028   0.4171   0.4177
     0.4246   0.4275   0.4305   0.4308   0.4311   0.4314   0.4376   0.4379
     0.4409   0.4427   0.4493   0.4552   0.4566   0.4654   0.4659   0.4665
     0.4697   0.4735   0.4888   0.4946   0.5085   0.5858   0.5906   0.5945
     0.5970   0.6035   0.6036   0.6052   0.6242   0.6266   0.6339   0.6352
     0.6358   0.6373   0.6510   0.6531   0.6535   0.6559   0.6591   0.6610
     0.6624   0.6651   0.6660   0.6673   0.6685   0.6701   0.6732   0.6790
     0.6841   0.6955   0.6976   0.6995   0.7017   0.7028   0.7076   0.7087
     0.7100   0.7125   0.7270   0.7708   0.7827   0.7873   0.7957   0.8031
     0.8082   0.8116   0.8198   0.8238   0.8299   0.8319   0.8382   0.8410
     0.8427   0.8436   0.8470   0.8477   0.8489   0.8498   0.8504   0.8517
     0.8539   0.8541   0.8594   0.8607   0.8724   0.8774   0.8896   0.8961
     0.9012   0.9101   0.9216   0.9257   0.9288   0.9330   0.9344   0.9362
     0.9400   0.9444   0.9466   0.9474   0.9488   0.9503   0.9582   0.9598
     0.9632   0.9657   0.9730   0.9780   0.9809   0.9822   1.0070   1.0144
     1.0185   1.0226   1.0241   1.0250   1.0367   1.0383   1.0596   1.0621
     1.0663   1.0681   1.0733   1.0783   1.0806   1.0835   1.1109   1.1252
     1.1308   1.1457   1.1486   1.1492   1.1511   1.1532   1.1543   1.1567
     1.1580   1.1628   1.1667   1.1704   1.1760   1.1779   1.1905   1.1959
     1.1985   1.1993   1.2033   1.2047   1.2116   1.2134   1.2199   1.2223
     1.2240   1.2249   1.2336   1.2503   1.2546   1.2575   1.2949   1.3118
     1.3210   1.3243   1.3271   1.3276   1.3368   1.3438   1.3468   1.3545
     1.3595   1.3647   1.3736   1.3746   1.3809   1.3866   1.3928   1.3954
     1.3992   1.4001   1.4027   1.4127   1.4218   1.4256   1.4280   1.4295
     1.4323   1.4335   1.4367   1.4374   1.4386   1.4462   1.4473   1.4488
     1.4515   1.4521   1.4537   1.4556   1.4589   1.4795   1.4898   1.4908
     1.4963   1.5013   1.5087   1.5157   1.5184   1.5226   1.5246   1.5267
     1.5327   1.5431   1.5516   1.5526   1.5556   1.5561   1.5580   1.5612
     1.5621   1.5633   1.5651   1.5681   1.5780   1.5829   1.5872   1.5881
     1.5934   1.6120   1.6200   1.6209   1.6247   1.6281   1.6285   1.6288
     1.6299   1.6319   1.6335   1.6386   1.6405   1.6411   1.6429   1.6440
     1.6453   1.6458   1.6470   1.6489   1.6502   1.6509   1.6516   1.6565
     1.6605   1.6644   1.6712   1.6754   1.6819   1.6884   1.6902   1.6927
     1.6942   1.6995   1.7038   1.7057   1.7261   1.7263   1.7292   1.7305
     1.7391   1.7417   1.7481   1.7485   1.7543   1.7580   1.7605   1.7612
     1.7700   1.7747   1.7791   1.7806   1.7835   1.7883   1.7889   1.7911
     1.7921   1.7927   1.7953   1.7972   1.8052   1.8136   1.8273   1.8274
     1.8281   1.8287   1.8303   1.8426   1.8440   1.8450   1.8850   1.8911
     1.9188   1.9212   1.9224   1.9268   1.9298   1.9418   2.2110   2.3282
     2.3325   2.3346   2.4637   2.5369   2.5441   2.5441   2.5892   2.5942
     2.5990   2.6020   2.7786   2.9018   2.9042   2.9109   3.0930   3.1342
     3.1388   3.1412   3.4435   3.4902   3.4952   3.4975   3.6300   3.7745
     3.8319   4.0302   4.0424   4.0474   4.1548   4.2156   4.2223   4.2243
     4.3089   4.3757   4.3759   4.3788   4.4001   4.4391   4.7192   4.7584
     4.8056   4.8959   4.8965   5.0013   5.0053   5.0157   5.1205   5.1287
     5.1740   5.1766   5.2439   5.3308   5.3351   5.3405   5.3474   5.3495
     5.3575   5.3694   5.3877   5.3894   5.4864   5.5026   5.5040   5.5099
     5.7196   5.8318   5.8361   5.8449   5.8741   5.9164   6.1346   6.2181
     6.2238   6.2840   6.2920   6.2989   6.3021   6.3080   6.3162   6.3227
     6.6052   6.6749   6.6819   6.6998   6.8133   6.8223   6.8228   6.8315
     7.1984   7.3633   7.3885   7.3970   7.4009   7.4165   7.6809   7.8408
     7.8807   7.8886   7.8915   7.8946   7.9030   7.9224   8.0276   8.0310
     8.0725   8.1222   8.1280   8.1581   8.1712   8.1778   8.2546   8.3100
     8.3446   8.3530   8.3643   8.3784   8.3831   8.3927   8.5307   8.5321
     8.5333   8.5345   8.6586   8.6594   9.0235   9.1148   9.1175   9.1214
     9.1786   9.1825   9.1835   9.1836   9.2535   9.3345   9.3459   9.3506
     9.4480   9.4512   9.5246   9.5633   9.6590   9.7520   9.7884   9.7955
     9.8066   9.8093   9.8208   9.8385   9.9300   9.9319   9.9323   9.9340

          k =-0.5000-0.2165 0.0000 (256328 PWs)   bands (ev):

   -15.4896 -15.4889 -15.4465 -15.4429 -14.7312 -14.7298 -14.7282 -14.7280
   -13.2841 -13.2826 -13.2824 -13.2796 -11.6758 -11.6754 -11.6341 -11.6324
   -11.2255 -11.2246 -11.2073 -11.2037 -11.0469 -11.0453 -11.0209 -11.0200
    -9.3482  -9.3473  -9.3220  -9.3189  -8.3825  -8.3791  -8.3659  -8.3642
    -7.6184  -7.6178  -7.5914  -7.5896  -5.5370  -5.5340  -5.5330  -5.5312
    -4.9250  -4.9204  -4.9173  -4.8954  -4.8948  -4.8730  -4.8702  -4.8694
    -4.6905  -4.6870  -4.6587  -4.6406  -4.2441  -4.0258  -4.0216  -3.9747
    -3.9051  -3.8889  -3.8878  -3.8873  -3.8075  -3.8059  -3.7972  -3.7949
    -3.5612  -3.5600  -3.5476  -3.5422  -3.3365  -3.2816  -3.2791  -3.2606
    -3.2575  -3.2538  -3.2509  -3.2361  -3.2340  -3.1118  -3.1082  -3.1009
    -2.7468  -2.7304  -2.7297  -2.7271  -2.5247  -2.2713  -2.2710  -2.2693
    -2.2687  -2.2316  -2.2158  -2.2148  -1.9810  -1.9375  -1.9332  -1.9314
    -1.9281  -1.7817  -1.7813  -1.7776  -1.7569  -1.7132  -1.7117  -1.7083
    -1.6350  -1.6330  -1.6197  -1.6086  -1.6046  -1.4941  -1.4907  -1.4906
    -1.4871  -1.3838  -1.3824  -1.3752  -1.3157  -1.1852  -1.1835  -1.1817
    -1.1811  -1.1753  -1.1719  -1.1701  -1.1668  -1.1541  -1.1425  -1.1407
    -1.1243  -1.1230  -1.1210  -1.1207  -1.0794  -1.0767  -1.0745  -1.0740
    -1.0706  -1.0702  -1.0683  -1.0674  -1.0491  -1.0474  -1.0473  -1.0461
    -1.0167  -0.9944  -0.9944  -0.9933  -0.9788  -0.9271  -0.9238  -0.9202
    -0.8819  -0.8807  -0.8765  -0.8761  -0.8668  -0.8597  -0.8560  -0.8527
    -0.8331  -0.8116  -0.8108  -0.8082  -0.8036  -0.8027  -0.8018  -0.8016
    -0.7823  -0.7779  -0.7761  -0.7744  -0.7471  -0.7453  -0.7418  -0.7415
    -0.7313  -0.7297  -0.7283  -0.7259  -0.7250  -0.7240  -0.7224  -0.7211
    -0.6660  -0.6570  -0.6539  -0.6293  -0.6234  -0.5749  -0.5691  -0.5673
    -0.5489  -0.5425  -0.5407  -0.5403  -0.5317  -0.4644  -0.4610  -0.4577
    -0.4549  -0.4543  -0.4530  -0.4507  -0.4498  -0.4476  -0.4465  -0.4428
    -0.4276  -0.3897  -0.3889  -0.3870  -0.3860  -0.3747  -0.3734  -0.3726
    -0.3714  -0.3551  -0.3538  -0.3513  -0.3469  -0.2697  -0.2609  -0.2594
    -0.2563  -0.2520  -0.2515  -0.2465  -0.1982  -0.1899  -0.1886  -0.1794
    -0.1711  -0.1382  -0.1380  -0.1340  -0.1311  -0.1204  -0.1197  -0.1130
    -0.1112  -0.0911  -0.0877  -0.0872  -0.0822  -0.0772  -0.0770  -0.0746
    -0.0652  -0.0433  -0.0386  -0.0282   0.0276   0.0342   0.0407   0.0417
     0.0518   0.0537   0.0565   0.0580   0.0600   0.0719   0.0724   0.0735
     0.1015   0.1470   0.1490   0.1499   0.1533   0.1562   0.1581   0.1606
     0.1609   0.1622   0.1646   0.1656   0.1921   0.2006   0.2023   0.2038
     0.2054   0.2099   0.2114   0.2150   0.2153   0.2162   0.2187   0.2208
     0.2265   0.2756   0.2803   0.2840   0.2893   0.3065   0.3085   0.3152
     0.3177   0.3440   0.3544   0.3621   0.3633   0.3716   0.3739   0.3854
     0.3882   0.3907   0.3933   0.3939   0.3957   0.3976   0.3993   0.3999
     0.4016   0.4041   0.4092   0.4111   0.4129   0.4147   0.4151   0.4192
     0.4201   0.4209   0.4215   0.4220   0.4343   0.4356   0.4383   0.4393
     0.4594   0.4622   0.4641   0.4645   0.4686   0.4725   0.4749   0.4772
     0.4991   0.5195   0.5236   0.5259   0.5312   0.5534   0.5554   0.5593
     0.5639   0.6074   0.6150   0.6214   0.6290   0.6355   0.6440   0.6448
     0.6476   0.6509   0.6577   0.6596   0.6611   0.6652   0.6699   0.6728
     0.6751   0.6759   0.6774   0.6797   0.6800   0.6823   0.6853   0.6862
     0.6906   0.6925   0.6934   0.7034   0.7069   0.7186   0.7243   0.7363
     0.7417   0.7473   0.7579   0.7599   0.7660   0.7681   0.7707   0.7728
     0.7769   0.7781   0.7806   0.7818   0.8095   0.8118   0.8187   0.8208
     0.8218   0.8240   0.8269   0.8302   0.8434   0.8551   0.8650   0.8694
     0.8715   0.8758   0.8791   0.8811   0.8827   0.8833   0.8840   0.8874
     0.8902   0.8920   0.8949   0.8953   0.8980   0.9002   0.9045   0.9064
     0.9171   0.9183   0.9207   0.9218   0.9614   0.9707   0.9861   0.9895
     0.9945   0.9961   0.9983   0.9989   1.0011   1.0027   1.0038   1.0089
     1.0209   1.0231   1.0269   1.0288   1.0333   1.0379   1.0391   1.0404
     1.0428   1.0429   1.0456   1.0469   1.0894   1.0945   1.0962   1.0977
     1.1138   1.1221   1.1268   1.1270   1.1282   1.1348   1.1402   1.1459
     1.1486   1.1522   1.1608   1.1622   1.1646   1.1797   1.1851   1.1878
     1.2217   1.2372   1.2398   1.2426   1.2430   1.2633   1.2672   1.2702
     1.2821   1.3009   1.3136   1.3213   1.3276   1.3295   1.3325   1.3359
     1.3386   1.3416   1.3477   1.3507   1.3532   1.3555   1.3557   1.3581
     1.3588   1.3606   1.3611   1.3624   1.3634   1.3685   1.3749   1.3758
     1.3792   1.3849   1.3881   1.3886   1.3902   1.3921   1.3937   1.3964
     1.3980   1.4048   1.4110   1.4126   1.4269   1.4339   1.4347   1.4358
     1.4387   1.4396   1.4414   1.4427   1.4487   1.4517   1.4547   1.4554
     1.4745   1.4848   1.5000   1.5042   1.5063   1.5069   1.5091   1.5103
     1.5131   1.5288   1.5306   1.5323   1.5363   1.5397   1.5524   1.5544
     1.5564   1.5593   1.5673   1.5693   1.5740   1.5765   1.5833   1.5858
     1.5910   1.5933   1.5938   1.5943   1.6004   1.6016   1.6032   1.6037
     1.6462   1.6552   1.6568   1.6590   1.6633   1.6672   1.6688   1.6696
     1.6698   1.6703   1.6746   1.6768   1.6773   1.6814   1.6849   1.6868
     1.6883   1.6907   1.6932   1.6954   1.6968   1.6981   1.6995   1.7015
     1.7040   1.7050   1.7063   1.7087   1.7149   1.7176   1.7199   1.7207
     1.7218   1.7241   1.7261   1.7287   1.7542   1.7600   1.7607   1.7617
     1.7621   1.7651   1.7720   1.7747   1.7774   1.7890   1.7900   1.7948
     1.8115   1.8131   1.8140   1.8151   1.8507   1.8543   1.8619   1.8664
     1.8738   1.8855   1.8872   1.8885   1.8886   1.9070   1.9123   1.9146
     1.9162   1.9165   1.9178   1.9214   1.9250   1.9280   1.9293   1.9307
     2.1087   2.1404   2.1428   2.1443   2.4641   2.6177   2.6445   2.6461
     2.8167   2.8675   2.8684   2.8715   2.9733   3.0872   3.0942   3.0961
     3.2609   3.3701   3.3770   3.3817   3.7189   3.7609   3.7618   3.7632
     3.8381   3.9408   3.9515   3.9521   4.1420   4.2355   4.2375   4.2416
     4.2708   4.5295   4.5341   4.5346   4.5370   4.5656   4.6067   4.6101
     4.7340   4.8352   4.8495   4.8518   4.8882   4.8939   4.9124   4.9321
     5.1706   5.1916   5.2116   5.2186   5.2554   5.3548   5.3688   5.4139
     5.4334   5.4625   5.4798   5.4807   5.5111   5.5895   5.5992   5.6090
     5.6118   5.6178   5.6230   5.6329   5.9510   6.0172   6.0230   6.0404
     6.0468   6.0502   6.0556   6.0604   6.0865   6.1267   6.1653   6.1686
     6.9410   7.0860   7.0922   7.0972   7.1227   7.3694   7.4142   7.4247
     7.4297   7.4354   7.4482   7.4527   7.4701   7.5001   7.5070   7.5155
     7.6444   7.6505   7.6551   7.6561   7.7737   7.8356   7.8815   7.8937
[...]
     atom   36 type  1   force =    -0.00003900   -0.00018488    0.00009600
     atom   37 type  1   force =     0.00019584   -0.00014395    0.00021855
     atom   38 type  1   force =     0.00018550    0.00005596    0.00000545
     atom   39 type  1   force =    -0.00018198   -0.00020291    0.00030113
     atom   40 type  1   force =     0.00005872   -0.00018004    0.00015617
     atom   41 type  1   force =     0.00020550    0.00004311   -0.00003642
     atom   42 type  1   force =    -0.00008845   -0.00016126   -0.00016911
     atom   43 type  1   force =     0.00011579   -0.00012419    0.00009205
     atom   44 type  1   force =    -0.00010767   -0.00000219    0.00009521
     atom   45 type  1   force =    -0.00019723    0.00011444    0.00012259
     atom   46 type  1   force =    -0.00008882   -0.00009854   -0.00004491
     atom   47 type  1   force =     0.00029910   -0.00003625   -0.00015257
     atom   48 type  1   force =    -0.00004583   -0.00048182    0.00008204
     atom   49 type  1   force =     0.00022191    0.00000789    0.00007343
     atom   50 type  1   force =    -0.00010472   -0.00036602   -0.00044366
     atom   51 type  1   force =    -0.00001427   -0.00011507    0.00012988
     atom   52 type  1   force =    -0.00005494   -0.00012992   -0.00004426
     atom   53 type  1   force =    -0.00012512   -0.00024314   -0.00009372
     atom   54 type  1   force =    -0.00005151    0.00041734   -0.00041570
     atom   55 type  1   force =     0.00037293   -0.00003222   -0.00013648
     atom   56 type  1   force =    -0.00017745   -0.00002852   -0.00012908
     atom   57 type  1   force =    -0.00002937   -0.00003435   -0.00001616
     atom   58 type  1   force =     0.00023557    0.00004865    0.00014200
     atom   59 type  1   force =     0.00008052   -0.00013191    0.00005150
     atom   60 type  1   force =     0.00007069   -0.00021887   -0.00005908
     atom   61 type  1   force =    -0.00020448   -0.00010348    0.00001033
     atom   62 type  1   force =     0.00000300    0.00017066    0.00002588
     atom   63 type  1   force =     0.00002999    0.00015218    0.00004061
     atom   64 type  1   force =     0.00002413    0.00005173    0.00008134
     atom   65 type  1   force =    -0.00018282    0.00023483    0.00017079
     atom   66 type  1   force =    -0.00005429   -0.00041474   -0.00048093
     atom   67 type  1   force =    -0.00006845    0.00020488   -0.00008227
     atom   68 type  1   force =     0.00033695   -0.00003802    0.00033733
     atom   69 type  1   force =    -0.00021858    0.00026587    0.00015626
     atom   70 type  1   force =    -0.00000225    0.00027249   -0.00004885
     atom   71 type  1   force =     0.00003491    0.00015020   -0.00025834
     atom   72 type  1   force =     0.00028796   -0.00021912   -0.00018815
     atom   73 type  1   force =    -0.00007604    0.00024179   -0.00006018
     atom   74 type  1   force =    -0.00009955    0.00054150   -0.00091934
     atom   75 type  1   force =     0.00018454   -0.00012666   -0.00011285
     atom   76 type  1   force =     0.00020422   -0.00015726   -0.00024305
     atom   77 type  1   force =     0.00024048   -0.00009181    0.00000606
     atom   78 type  1   force =     0.00004984   -0.00003059    0.00012268
     atom   79 type  1   force =    -0.00008727   -0.00005778   -0.00001213
     atom   80 type  1   force =    -0.00015336   -0.00031018   -0.00003232
     atom   81 type  1   force =     0.00002956   -0.00007545    0.00010082
     atom   82 type  1   force =    -0.00000822   -0.00017992    0.00003446
     atom   83 type  1   force =    -0.00006208   -0.00016027    0.00013788
     atom   84 type  1   force =    -0.00017540    0.00008765    0.00020630
     atom   85 type  1   force =    -0.00010892    0.00014846    0.00017200
     atom   86 type  1   force =     0.00082181    0.00073948    0.00069303
     atom   87 type  1   force =     0.00031589    0.00013754    0.00035887
     atom   88 type  1   force =    -0.00059292    0.00028946    0.00050839
     atom   89 type  1   force =     0.00121724    0.00063393    0.00010277
     atom   90 type  1   force =    -0.00024030    0.00085647   -0.00058767
     atom   91 type  1   force =    -0.00161856    0.00049284    0.00042850
     atom   92 type  1   force =    -0.00005919   -0.00002078    0.00037931
     atom   93 type  1   force =    -0.00061706    0.00048854   -0.00016622
     atom   94 type  1   force =     0.00023844   -0.00021558    0.00005828
     atom   95 type  1   force =     0.00062084    0.00012602    0.00006417
     atom   96 type  1   force =    -0.00022042   -0.00004949    0.00006185
     atom   97 type  1   force =     0.00022852   -0.00003093    0.00003474
     atom   98 type  1   force =     0.00016493    0.00012071   -0.00014365
     atom   99 type  1   force =    -0.00010728   -0.00012247    0.00002258
     atom  100 type  1   force =    -0.00013930   -0.00033691   -0.00018801
     atom  101 type  2   force =     0.00056505   -0.00015747    0.00109994
     atom  102 type  2   force =    -0.00084371    0.00073706   -0.00080256
     atom  103 type  2   force =    -0.00090428    0.00060553   -0.00029267
     atom  104 type  2   force =     0.00013239   -0.00036305   -0.00067158
     atom  105 type  2   force =    -0.00028853   -0.00058811    0.00048960
     atom  106 type  2   force =    -0.00014745    0.00030984    0.00064770
     atom  107 type  2   force =     0.00115448    0.00027844   -0.00051543
     atom  108 type  2   force =     0.00002050    0.00002389   -0.00116920
     atom  109 type  2   force =    -0.00014479    0.00001912    0.00080316
     atom  110 type  2   force =     0.00004420    0.00025710   -0.00036498
     atom  111 type  2   force =    -0.00034348   -0.00029498    0.00007677
     atom  112 type  2   force =     0.00026477    0.00015942    0.00100102
     atom  113 type  2   force =    -0.00033638   -0.00014122   -0.00066465
     atom  114 type  2   force =     0.00102717    0.00039284    0.00005503
     atom  115 type  2   force =     0.00054608   -0.00045538    0.00026484
     atom  116 type  2   force =    -0.00072738    0.00004472   -0.00028589
     atom  117 type  2   force =     0.00004981    0.00051004   -0.00087383
     atom  118 type  2   force =     0.00053495    0.00026188   -0.00127982
     atom  119 type  2   force =    -0.00097241   -0.00061211    0.00057457
     atom  120 type  2   force =     0.00024516   -0.00006203    0.00069044
     atom  121 type  3   force =    -0.00193011   -0.00155762   -0.00030451
     atom  122 type  2   force =     0.00064175    0.00019470   -0.00077958
     atom  123 type  2   force =    -0.00009095    0.00039758   -0.00044813
     atom  124 type  2   force =    -0.00028487    0.00044927   -0.00014286
     atom  125 type  2   force =    -0.00004262   -0.00119232   -0.00077953
     atom  126 type  2   force =    -0.00075942    0.00013689   -0.00041043
     atom  127 type  2   force =    -0.00025497    0.00012678   -0.00056582
     atom  128 type  2   force =    -0.00002883    0.00041974    0.00038123
     atom  129 type  2   force =    -0.00025528    0.00108645    0.00027439
     atom  130 type  2   force =     0.00024429    0.00009890   -0.00103052
     atom  131 type  2   force =    -0.00002938   -0.00099231    0.00081947
     atom  132 type  2   force =    -0.00026452    0.00050797    0.00000273
     atom  133 type  2   force =    -0.00008035    0.00044925   -0.00023791
     atom  134 type  2   force =     0.00063026   -0.00036255   -0.00022718
     atom  135 type  2   force =     0.00026188    0.00045588   -0.00012511
     atom  136 type  2   force =     0.00014455    0.00106665    0.00063593
     atom  137 type  2   force =    -0.00042797    0.00015728    0.00176760
     atom  138 type  2   force =     0.00018728    0.00057981    0.00015983
     atom  139 type  2   force =    -0.00081904   -0.00051851    0.00099883
     atom  140 type  2   force =    -0.00015957   -0.00108550   -0.00047135
     atom  141 type  2   force =     0.00053493    0.00062349   -0.00080738
     atom  142 type  2   force =    -0.00022594    0.00109444    0.00036769
     atom  143 type  2   force =     0.00036253   -0.00017751   -0.00006650
     atom  144 type  2   force =     0.00036060   -0.00068503   -0.00006581
     atom  145 type  2   force =    -0.00020636    0.00064498    0.00014867
     atom  146 type  2   force =    -0.00020662    0.00039279   -0.00038123
     atom  147 type  2   force =     0.00048235   -0.00058334    0.00063725
     atom  148 type  2   force =    -0.00024439    0.00025306   -0.00104924
     atom  149 type  2   force =     0.00066838    0.00036075   -0.00145543

     Total force =     0.008604     Total SCF correction =     0.000422

     number of scf cycles    =  20
     number of bfgs steps    =  19

     energy   old            =  -12700.0610276129 Ry
     energy   new            =  -12700.0611266746 Ry

     CASE: energy  _new < energy  _old

     new trust radius        =       0.0154016876 bohr
     new conv_thr            =       0.0000000099 Ry


ATOMIC_POSITIONS (angstrom)
Cu       0.008766226  -0.017688976   7.357692479
Cu       1.853570600   1.683312085   7.350469078
Cu       3.696830872  -0.019565526   7.356736120
Cu       5.541215863   1.685945323   7.355854569
Cu       0.008829346   3.392883131   7.354195247
Cu       1.852813844   5.103423528   7.357485250
Cu       3.697848843   3.394127713   7.354238032
Cu       5.542718905   5.101994347   7.353951365
Cu       0.008450557   6.810626590   7.355218235
Cu       1.853100085   8.515618147   7.356189836
Cu       3.697907090   6.810027030   7.355664831
Cu       5.541919516   8.517624860   7.353486132
Cu       0.009438463  10.221741611   7.355657978
Cu       1.853291663  11.924663764   7.356623480
Cu       3.696604402  10.221224044   7.355999482
Cu       5.541009904  11.919748195   7.360369303
Cu       0.007059906  13.618650827   7.361675258
Cu       1.851854399  15.318257260   7.362604515
Cu       3.698139499  13.619844189   7.361531220
Cu       5.542580441  15.318822151   7.358926791
Cu       0.008761580   1.687624424   9.188411867
Cu       1.852842205  -0.011913371   9.195695346
Cu       3.699037686   1.687895323   9.187089012
Cu       5.542701614  -0.018069404   9.190901104
Cu       0.009258827   5.099613318   9.181730753
Cu       1.854345481   3.388072384   9.177408112
Cu       3.699628415   5.099432920   9.182547273
Cu       5.543358988   3.394007133   9.184897637
Cu       0.009302157   8.515631908   9.186357454
Cu       1.853949850   6.809491130   9.188186574
Cu       3.699325856   8.514865517   9.186931672
Cu       5.543268642   6.809227385   9.180915745
Cu       0.008896949  11.915652558   9.198605828
Cu       1.854049535  10.220080431   9.186286523
Cu       3.699058217  11.916234277   9.198910242
Cu       5.543236624  10.214752602   9.194051313
Cu       0.009853953  15.319749118   9.197264290
Cu       1.853095933  13.612784107   9.203744912
Cu       3.696757635  15.320078320   9.196589395
Cu       5.542671605  13.619121650   9.199414221
Cu       0.011827607  -0.012550390  11.037324553
Cu       1.855958146   1.699557840  11.037708334
Cu       3.697897741  -0.011934765  11.035138932
Cu       5.544890806   1.689468671  11.027748527
Cu       0.008714202   3.396860251  11.025266678
Cu       1.856656627   5.084754540  11.009161943
Cu       3.702986048   3.394368911  11.024744433
Cu       5.546066639   5.104556732  11.026364986
Cu       0.001544601   6.803197155  11.019379552
Cu       1.855918735   8.521667541  11.020716275
Cu       3.707144889   6.804043635  11.020759029
Cu       5.547096725   8.503608077  11.035489742
Cu       0.008523777  10.206733428  11.041196152
Cu       1.855708906  11.899552996  11.052256268
Cu       3.703279743  10.207194659  11.038095420
Cu       5.545331248  11.911863570  11.042662635
Cu       0.012585529  13.613225225  11.043897534
Cu       1.854150905  15.320830538  11.038800564
Cu       3.698296032  13.615218629  11.044015057
Cu       5.543961627  15.321370910  11.041292697
Cu       0.017529795   1.703202226  12.867324062
Cu       1.858731012  -0.011173620  12.875650127
Cu       3.698070639   1.698982036  12.871242540
Cu       5.545043265  -0.004379332  12.874778117
Cu       0.010824157   5.104556633  12.870147192
Cu       1.860110021   3.418652540  12.883187324
Cu       3.709048664   5.101860571  12.864701919
Cu       5.545026498   3.398178307  12.860365763
Cu       0.012825690   8.486503807  12.882303254
Cu       1.853620189   6.795672940  12.783290904
Cu       3.708642818   8.492160864  12.873810312
Cu       5.541545488   6.797483150  12.900362980
Cu       0.016905442  11.899397843  12.885384601
Cu       1.857704262  10.177176830  12.901298475
Cu       3.698945833  11.899977709  12.879617418
Cu       5.549325550  10.198366102  12.877903149
Cu       0.010417676  15.321561031  12.881044231
Cu       1.855433983  13.615438071  12.879554825
Cu       3.703710808  15.324200612  12.881295328
Cu       5.548640700  13.610450565  12.883062017
Cu       0.012557130   0.004897574  14.678583572
Cu       1.863186506   1.699144437  14.686903532
Cu       3.705406011  -0.000935673  14.694692209
Cu       5.545091236   1.713321342  14.683813090
Cu       0.029417022   3.401709438  14.694813567
Cu       1.858576460   5.119530542  14.706741856
Cu       3.691659702   3.404939868  14.699057925
Cu       5.551837013   5.069844154  14.706238465
Cu      -0.020627936   6.787548883  14.736301359
Cu       1.863466490   8.465033073  14.717591776
Cu       3.741609176   6.790929572  14.733369112
Cu       5.551221190   8.515649823  14.713023665
Cu       0.035448046  10.183840009  14.710855492
Cu       1.854140464  11.909918603  14.691563439
Cu       3.690612949  10.194578571  14.699766888
Cu       5.556248192  11.885542942  14.691717316
Cu       0.006711976  13.610609760  14.698198503
Cu       1.857786712  15.320975752  14.689572758
Cu       3.711088191  13.604175554  14.680655303
Cu       5.548389648  15.328743482  14.688641180
C       -0.003387962   0.738994263  17.605443227
C       -0.003213726   2.159189984  17.647794888
C        1.226078961   0.028952951  17.588378436
C        1.224897841   2.869780517  17.670687257
C        2.454022749   0.740005484  17.586262728
C        2.454792482   2.160871661  17.627084755
C        3.685066542   0.028556572  17.562661068
C        3.685815872   2.870903003  17.643017465
C        4.916187688   0.739412187  17.583256708
C        4.916588823   2.160111913  17.618673926
C        6.144973142   0.029446671  17.586803354
C        6.146397901   2.868782029  17.658368336
C       -0.003934183   4.998058625  17.747786197
C       -0.004115111   6.417483769  17.766630217
C        1.225013708   4.288746272  17.728433283
C        1.226275809   7.126564091  17.794755322
C        2.455388727   4.998991427  17.757539910
C        2.454500702   6.417271605  17.809521046
C        3.685618006   4.289655939  17.709006538
C        3.684320409   7.127310711  17.775165835
H        2.080827586   6.806774201  15.297253051
C        4.916196645   4.998723707  17.727116785
C        4.915048179   6.417948077  17.755568141
C        6.146033598   4.288193824  17.709103369
C        6.143785384   7.127111554  17.746580283
C       -0.002586991   9.254193639  17.687324425
C       -0.002672514  10.673002989  17.624199254
C        1.226760264   8.545376515  17.738646145
C        1.227962003  11.384535720  17.615337376
C        2.456972392   9.256280667  17.718935330
C        2.457305580  10.675384257  17.659888417
C        3.685257214   8.546587955  17.743778861
C        3.686132341  11.385385673  17.643228360
C        4.914084917   9.255343577  17.696910770
C        4.914099884  10.674633414  17.650816781
C        6.144302941   8.546026700  17.708225937
C        6.144062787  11.383054425  17.606811484
C       -0.003786181  13.515751678  17.559546352
C       -0.004010507  14.936780685  17.567732560
C        1.227721279  12.804902076  17.583589954
C        1.225535186  15.646942592  17.568333329
C        2.456453450  13.514943844  17.589348681
C        2.456422270  14.935279489  17.569192877
C        3.685910562  12.805139572  17.607202934
C        3.685052396  15.646305616  17.569888260
C        4.915298541  13.514969154  17.588714149
C        4.914443761  14.935821505  17.570520811
C        6.143504187  12.803790400  17.580561825
C        6.145027090  15.647704037  17.570215007



     Writing output data file gc.save
     Check: negative starting charge=   -0.001858
     NEW-OLD atomic charge density approx. for the potential
     Check: negative starting charge=   -0.001858

     negative rho (up, down):  1.920E-03 0.000E+00

     total cpu time spent up to now is    58598.0 secs

     Self-consistent Calculation

     iteration #  1     ecut=    80.00 Ry     beta=0.70
     Davidson diagonalization with overlap
     ethr =  1.00E-06,  avg # of iterations =  3.0

     Threshold (ethr) on eigenvalues was too large:
     Diagonalizing with lowered threshold

     Davidson diagonalization with overlap
     ethr =  1.73E-08,  avg # of iterations =  3.0

     negative rho (up, down):  1.898E-03 0.000E+00

     total cpu time spent up to now is    59221.2 secs

     total energy              =  -12700.06120070 Ry
     Harris-Foulkes estimate   =  -12700.06122893 Ry
     estimated scf accuracy    <       0.00021690 Ry

     iteration #  2     ecut=    80.00 Ry     beta=0.70
     Davidson diagonalization with overlap
     ethr =  1.68E-08,  avg # of iterations =  2.0

     negative rho (up, down):  1.883E-03 0.000E+00

     total cpu time spent up to now is    59404.4 secs

     total energy              =  -12700.06120006 Ry
     Harris-Foulkes estimate   =  -12700.06121176 Ry
     estimated scf accuracy    <       0.00004517 Ry

     iteration #  3     ecut=    80.00 Ry     beta=0.70
     Davidson diagonalization with overlap
     ethr =  3.49E-09,  avg # of iterations =  2.3

     negative rho (up, down):  1.866E-03 0.000E+00

     total cpu time spent up to now is    59618.5 secs

     total energy              =  -12700.06120202 Ry
     Harris-Foulkes estimate   =  -12700.06120833 Ry
     estimated scf accuracy    <       0.00006523 Ry

     iteration #  4     ecut=    80.00 Ry     beta=0.70
     Davidson diagonalization with overlap
     ethr =  3.49E-09,  avg # of iterations =  2.0

     negative rho (up, down):  1.865E-03 0.000E+00

     total cpu time spent up to now is    59805.2 secs

     total energy              =  -12700.06120462 Ry
     Harris-Foulkes estimate   =  -12700.06120488 Ry
     estimated scf accuracy    <       0.00000189 Ry

     iteration #  5     ecut=    80.00 Ry     beta=0.70
     Davidson diagonalization with overlap
     ethr =  1.46E-10,  avg # of iterations =  3.0

     negative rho (up, down):  1.868E-03 0.000E+00

     total cpu time spent up to now is    60048.5 secs

     total energy              =  -12700.06120475 Ry
     Harris-Foulkes estimate   =  -12700.06120497 Ry
     estimated scf accuracy    <       0.00000120 Ry

     iteration #  6     ecut=    80.00 Ry     beta=0.70
     Davidson diagonalization with overlap
     ethr =  9.29E-11,  avg # of iterations =  1.0

     negative rho (up, down):  1.878E-03 0.000E+00

     total cpu time spent up to now is    60223.7 secs

     total energy              =  -12700.06120477 Ry
     Harris-Foulkes estimate   =  -12700.06120484 Ry
     estimated scf accuracy    <       0.00000023 Ry

     iteration #  7     ecut=    80.00 Ry     beta=0.70
     Davidson diagonalization with overlap
     ethr =  1.78E-11,  avg # of iterations =  2.0

     negative rho (up, down):  1.887E-03 0.000E+00

     total cpu time spent up to now is    60415.1 secs

     total energy              =  -12700.06120475 Ry
     Harris-Foulkes estimate   =  -12700.06120479 Ry
     estimated scf accuracy    <       0.00000008 Ry

     iteration #  8     ecut=    80.00 Ry     beta=0.70
     Davidson diagonalization with overlap
