
     Program PWSCF v.5.4.0 starts on 17Jan2017 at 22:14: 7 

     This program is part of the open-source Quantum ESPRESSO suite
     for quantum simulation of materials; please cite
         "P. Giannozzi et al., J. Phys.:Condens. Matter 21 395502 (2009);
          URL http://www.quantum-espresso.org", 
     in publications or presentations arising from this work. More details at
     http://www.quantum-espresso.org/quote

     Parallel version (MPI & OpenMP), running on      56 processor cores
     Number of MPI processes:                56
     Threads/MPI process:                     1
     R & G space division:  proc/nbgrp/npool/nimage =      56
     Waiting for input...
     Reading input from standard input

     Current dimensions of program PWSCF are:
     Max number of different atomic species (ntypx) = 10
     Max number of k-points (npk) =  40000
     Max angular momentum in pseudopotentials (lmaxx) =  3

     -------------------------------------
     Parameters for Dispersion Correction:
     -------------------------------------
       atom      VdW radius       C_6     

        Cu         2.952        374.666
        C          2.744         60.710
        H          1.892          4.857

     Subspace diagonalization in iterative solution of the eigenvalue problem:
     one sub-group per band group will be used
     scalapack distributed-memory algorithm (size of sub-group:  5*  5 procs)

 
     Parallelization info
     --------------------
     sticks:   dense  smooth     PW     G-vecs:    dense   smooth      PW
     Min         204     204     54                36612    36612    4962
     Max         205     205     55                36617    36617    4968
     Sum       11433   11433   3039              2050409  2050409  278033
 


     bravais-lattice index     =            0
     lattice parameter (alat)  =      13.9425  a.u.
     unit-cell volume          =   21209.0878 (a.u.)^3
     number of atoms/cell      =          149
     number of atomic types    =            3
     number of electrons       =      1293.00
     number of Kohn-Sham states=          776
     kinetic-energy cutoff     =      80.0000  Ry
     charge density cutoff     =     320.0000  Ry
     convergence threshold     =      1.0E-08
     mixing beta               =       0.7000
     number of iterations used =            8  local-TF  mixing
     Exchange-correlation      =  SLA  PW   PBE  PBE ( 1  4  3  4 0 0)
     nstep                     =           50


     celldm(1)=  13.942539  celldm(2)=   0.000000  celldm(3)=   0.000000
     celldm(4)=   0.000000  celldm(5)=   0.000000  celldm(6)=   0.000000

     crystal axes: (cart. coord. in units of alat)
               a(1) = (   1.000000   0.000000   0.000000 )  
               a(2) = (   0.000000   2.309401   0.000000 )  
               a(3) = (   0.000000   0.000000   3.388418 )  

     reciprocal axes: (cart. coord. in units 2 pi/alat)
               b(1) = (  1.000000  0.000000  0.000000 )  
               b(2) = (  0.000000  0.433013  0.000000 )  
               b(3) = (  0.000000  0.000000  0.295123 )  


     PseudoPot. # 1 for Cu read from file:
     /home/549/hxw549/Short/pseudopotentials/Cu.pbe-n-van_ak.UPF
     MD5 check sum: 601f7c30f7467666bec936e0661ce3e1
     Pseudo is Ultrasoft + core correction, Zval = 11.0
     Generated by new atomic code, or converted to UPF format
     Using radial grid of  867 points,  6 beta functions with: 
                l(1) =   0
                l(2) =   0
                l(3) =   1
                l(4) =   1
                l(5) =   2
                l(6) =   2
     Q(r) pseudized with  8 coefficients,  rinner =    1.400   1.400   1.400
                                                       1.400   1.400

     PseudoPot. # 2 for C  read from file:
     /home/549/hxw549/Short/pseudopotentials/C.pbe-mt_gipaw.UPF
     MD5 check sum: 5ac2f21f2c440b14befe521540822c15
     Pseudo is Norm-conserving, Zval =  4.0
     Generated by new atomic code, or converted to UPF format
     Using radial grid of 1073 points,  1 beta functions with: 
                l(1) =   0

     PseudoPot. # 3 for H  read from file:
     /home/549/hxw549/Short/pseudopotentials/H.pbe-van_ak.UPF
     MD5 check sum: 077eb6d537518a38cb46c6de387227b7
     Pseudo is Ultrasoft, Zval =  1.0
     Generated by new atomic code, or converted to UPF format
     Using radial grid of  615 points,  1 beta functions with: 
                l(1) =   0
     Q(r) pseudized with  8 coefficients,  rinner =    0.800

     atomic species   valence    mass     pseudopotential
        Cu            11.00    63.54600     Cu( 1.00)
        C              4.00    12.01070     C ( 1.00)
        H              1.00     1.00783     H ( 1.00)

     No symmetry found



   Cartesian axes

     site n.     atom                  positions (alat units)
         1           Cu  tau(   1) = (  -0.0000081   0.0001634   0.9978611  )
         2           Cu  tau(   2) = (   0.2499603   0.2308283   0.9974647  )
         3           Cu  tau(   3) = (   0.4999608  -0.0000844   0.9975769  )
         4           Cu  tau(   4) = (   0.7500001   0.2308382   0.9975417  )
         5           Cu  tau(   5) = (  -0.0000014   0.4616908   0.9973503  )
         6           Cu  tau(   6) = (   0.2501027   0.6927721   0.9973783  )
         7           Cu  tau(   7) = (   0.4999946   0.4618506   0.9975724  )
         8           Cu  tau(   8) = (   0.7499844   0.6927910   0.9974721  )
         9           Cu  tau(   9) = (  -0.0000234   0.9237236   0.9972586  )
        10           Cu  tau(  10) = (   0.2501357   1.1546412   0.9974124  )
        11           Cu  tau(  11) = (   0.4999866   0.9237023   0.9975526  )
        12           Cu  tau(  12) = (   0.7499395   1.1546225   0.9975023  )
        13           Cu  tau(  13) = (  -0.0000076   1.3857023   0.9973616  )
        14           Cu  tau(  14) = (   0.2499537   1.6165878   0.9975801  )
        15           Cu  tau(  15) = (   0.4999978   1.3855696   0.9977238  )
        16           Cu  tau(  16) = (   0.7500038   1.6166281   0.9976115  )
        17           Cu  tau(  17) = (   0.0000099   1.8473350   0.9979274  )
        18           Cu  tau(  18) = (   0.2499132   2.0785162   0.9979250  )
        19           Cu  tau(  19) = (   0.4999414   1.8475949   0.9976049  )
        20           Cu  tau(  20) = (   0.7500361   2.0784540   0.9976750  )
        21           Cu  tau(  21) = (   0.0000930   0.2309087   1.2462392  )
        22           Cu  tau(  22) = (   0.2498566   0.0003319   1.2464328  )
        23           Cu  tau(  23) = (   0.4998974   0.2299242   1.2449315  )
        24           Cu  tau(  24) = (   0.7500971  -0.0000910   1.2459364  )
        25           Cu  tau(  25) = (   0.0002960   0.6922586   1.2447203  )
        26           Cu  tau(  26) = (   0.2497813   0.4611677   1.2449395  )
        27           Cu  tau(  27) = (   0.5001330   0.6926932   1.2455483  )
        28           Cu  tau(  28) = (   0.7503386   0.4610531   1.2448013  )
        29           Cu  tau(  29) = (   0.0002616   1.1551417   1.2446448  )
        30           Cu  tau(  30) = (   0.2502934   0.9236408   1.2451495  )
        31           Cu  tau(  31) = (   0.5001301   1.1545731   1.2456550  )
        32           Cu  tau(  32) = (   0.7500138   0.9236700   1.2454914  )
        33           Cu  tau(  33) = (   0.0000902   1.6164026   1.2463056  )
        34           Cu  tau(  34) = (   0.2497426   1.3861909   1.2449494  )
        35           Cu  tau(  35) = (   0.4999002   1.6177118   1.2448689  )
        36           Cu  tau(  36) = (   0.7503896   1.3863292   1.2448074  )
        37           Cu  tau(  37) = (   0.0000478   2.0784842   1.2460031  )
        38           Cu  tau(  38) = (   0.2498399   1.8472705   1.2463712  )
        39           Cu  tau(  39) = (   0.4998978   2.0784532   1.2457893  )
        40           Cu  tau(  40) = (   0.7501098   1.8475913   1.2459788  )
        41           Cu  tau(  41) = (   0.0001856  -0.0003195   1.4955457  )
        42           Cu  tau(  42) = (   0.2495352   0.2314793   1.4966494  )
        43           Cu  tau(  43) = (   0.4998331  -0.0003710   1.4950432  )
        44           Cu  tau(  44) = (   0.7505940   0.2299782   1.4948838  )
        45           Cu  tau(  45) = (   0.0005256   0.4612344   1.4952314  )
        46           Cu  tau(  46) = (   0.2503108   0.6899119   1.4924605  )
        47           Cu  tau(  47) = (   0.5000260   0.4580973   1.4912988  )
        48           Cu  tau(  48) = (   0.7516067   0.6899774   1.4918151  )
        49           Cu  tau(  49) = (   0.0018591   0.9238388   1.4913338  )
        50           Cu  tau(  50) = (   0.2500089   1.1575445   1.4922149  )
        51           Cu  tau(  51) = (   0.5016592   0.9235919   1.4944828  )
        52           Cu  tau(  52) = (   0.7517748   1.1574098   1.4918533  )
        53           Cu  tau(  53) = (   0.0006584   1.3858178   1.4957876  )
        54           Cu  tau(  54) = (   0.2494128   1.6157970   1.4967299  )
        55           Cu  tau(  55) = (   0.5000120   1.3896209   1.4907901  )
        56           Cu  tau(  56) = (   0.7507705   1.6172705   1.4950216  )
        57           Cu  tau(  57) = (   0.0001170   1.8476690   1.4954541  )
        58           Cu  tau(  58) = (   0.2499559   2.0784858   1.4955799  )
        59           Cu  tau(  59) = (   0.4998978   1.8478462   1.4952188  )
        60           Cu  tau(  60) = (   0.7500210   2.0784781   1.4955159  )
        61           Cu  tau(  61) = (   0.0007946   0.2300320   1.7438686  )
        62           Cu  tau(  62) = (   0.2501940  -0.0004364   1.7450082  )
        63           Cu  tau(  63) = (   0.4999517   0.2297727   1.7433026  )
        64           Cu  tau(  64) = (   0.7500662  -0.0003413   1.7448356  )
        65           Cu  tau(  65) = (   0.0042122   0.6914945   1.7435736  )
        66           Cu  tau(  66) = (   0.2507788   0.4613690   1.7463007  )
        67           Cu  tau(  67) = (   0.5027604   0.6881950   1.7365463  )
        68           Cu  tau(  68) = (   0.7518720   0.4592074   1.7422222  )
        69           Cu  tau(  69) = (   0.0055308   1.1556792   1.7463164  )
        70           Cu  tau(  70) = (   0.2512957   0.9237410   1.7299832  )
        71           Cu  tau(  71) = (   0.5021808   1.1596468   1.7355543  )
        72           Cu  tau(  72) = (   0.7603529   0.9240923   1.7347932  )
        73           Cu  tau(  73) = (   0.0009270   1.6171148   1.7446571  )
        74           Cu  tau(  74) = (   0.2499777   1.3832367   1.7498057  )
        75           Cu  tau(  75) = (   0.5000412   1.6166888   1.7430851  )
        76           Cu  tau(  76) = (   0.7529031   1.3874316   1.7428651  )
        77           Cu  tau(  77) = (   0.0000804   2.0782178   1.7452477  )
        78           Cu  tau(  78) = (   0.2499937   1.8478049   1.7446450  )
        79           Cu  tau(  79) = (   0.5000811   2.0785855   1.7452683  )
        80           Cu  tau(  80) = (   0.7503369   1.8475970   1.7447595  )
        81           Cu  tau(  81) = (   0.0004509   0.0001296   1.9905407  )
        82           Cu  tau(  82) = (   0.2511864   0.2293995   1.9909008  )
        83           Cu  tau(  83) = (   0.5005876   0.0001976   1.9920923  )
        84           Cu  tau(  84) = (   0.7519731   0.2307674   1.9899190  )
        85           Cu  tau(  85) = (   0.0045069   0.4583020   1.9902508  )
        86           Cu  tau(  86) = (   0.2491139   0.6808004   1.9910164  )
        87           Cu  tau(  87) = (   0.5024785   0.4573844   1.9900265  )
        88           Cu  tau(  88) = (   0.7570901   0.6816718   1.9879195  )
        89           Cu  tau(  89) = (  -0.0102675   0.9218760   1.9927100  )
        90           Cu  tau(  90) = (   0.2537906   1.1553815   1.9971949  )
        91           Cu  tau(  91) = (   0.5393300   0.9254001   1.9709594  )
        92           Cu  tau(  92) = (   0.7598418   1.1658442   1.9899533  )
        93           Cu  tau(  93) = (   0.0083264   1.3872563   1.9936961  )
        94           Cu  tau(  94) = (   0.2511942   1.6183421   1.9905376  )
        95           Cu  tau(  95) = (   0.5011905   1.3872377   1.9889098  )
        96           Cu  tau(  96) = (   0.7522387   1.6157143   1.9900791  )
        97           Cu  tau(  97) = (   0.0001639   1.8475130   1.9920757  )
        98           Cu  tau(  98) = (   0.2503744   2.0780833   1.9914896  )
        99           Cu  tau(  99) = (   0.5009107   1.8465106   1.9901791  )
       100           Cu  tau( 100) = (   0.7501924   2.0783533   1.9913752  )
       101           C   tau( 101) = (  -0.0002924   0.0969937   2.3854660  )
       102           C   tau( 102) = (   0.0000098   0.2896521   2.3841964  )
       103           C   tau( 103) = (   0.1663791   0.0007536   2.3866907  )
       104           C   tau( 104) = (   0.1664553   0.3859546   2.3870162  )
       105           C   tau( 105) = (   0.3328529   0.0969479   2.3836697  )
       106           C   tau( 106) = (   0.3331954   0.2896293   2.3860532  )
       107           C   tau( 107) = (   0.4996894   0.0005723   2.3839658  )
       108           C   tau( 108) = (   0.4999072   0.3859882   2.3860857  )
       109           C   tau( 109) = (   0.6665649   0.0970071   2.3831236  )
       110           C   tau( 110) = (   0.6667176   0.2897298   2.3808174  )
       111           C   tau( 111) = (   0.8330193   0.0007170   2.3862628  )
       112           C   tau( 112) = (   0.8334304   0.3860396   2.3809915  )
       113           C   tau( 113) = (   0.0002326   0.6745071   2.3936841  )
       114           C   tau( 114) = (   0.0004101   0.8669874   2.3963803  )
       115           C   tau( 115) = (   0.1670591   0.5786799   2.3921562  )
       116           C   tau( 116) = (   0.1664716   0.9627690   2.4130982  )
       117           C   tau( 117) = (   0.3334246   0.6743834   2.4084049  )
       118           C   tau( 118) = (   0.3332758   0.8663451   2.4203144  )
       119           C   tau( 119) = (   0.4997656   0.5786400   2.3938556  )
       120           C   tau( 120) = (   0.4997301   0.9624188   2.4145037  )
       121           H   tau( 121) = (   0.3009901   0.9189763   2.2855568  )
       122           C   tau( 122) = (   0.6668103   0.6747554   2.3940492  )
       123           C   tau( 123) = (   0.6663170   0.8668645   2.4038203  )
       124           C   tau( 124) = (   0.8336803   0.5786724   2.3879795  )
       125           C   tau( 125) = (   0.8329808   0.9628350   2.3949976  )
       126           C   tau( 126) = (   0.0002716   1.2507357   2.3877300  )
       127           C   tau( 127) = (   0.0002848   1.4429545   2.3776873  )
       128           C   tau( 128) = (   0.1668984   1.1543747   2.3987677  )
       129           C   tau( 129) = (   0.1669505   1.5395933   2.3815343  )
       130           C   tau( 130) = (   0.3336537   1.2510353   2.4002906  )
       131           C   tau( 131) = (   0.3337240   1.4432847   2.3918861  )
       132           C   tau( 132) = (   0.4999100   1.1544416   2.4067025  )
       133           C   tau( 133) = (   0.5001505   1.5397080   2.3899454  )
       134           C   tau( 134) = (   0.6661853   1.2506276   2.3925093  )
       135           C   tau( 135) = (   0.6663679   1.4428858   2.3869154  )
       136           C   tau( 136) = (   0.8333508   1.1549057   2.3929345  )
       137           C   tau( 137) = (   0.8329703   1.5392929   2.3793910  )
       138           C   tau( 138) = (  -0.0001549   1.8284168   2.3825987  )
       139           C   tau( 139) = (  -0.0003498   2.0212270   2.3880416  )
       140           C   tau( 140) = (   0.1668275   1.7321956   2.3830011  )
       141           C   tau( 141) = (   0.1664164   2.1174087   2.3883288  )
       142           C   tau( 142) = (   0.3333189   1.8283245   2.3877965  )
       143           C   tau( 143) = (   0.3331995   2.0210739   2.3887166  )
       144           C   tau( 144) = (   0.5000524   1.7321500   2.3873007  )
       145           C   tau( 145) = (   0.4997004   2.1172826   2.3887600  )
       146           C   tau( 146) = (   0.6665697   1.8283077   2.3871378  )
       147           C   tau( 147) = (   0.6663708   2.0211625   2.3887760  )
       148           C   tau( 148) = (   0.8329818   1.7320388   2.3821176  )
       149           C   tau( 149) = (   0.8331890   2.1175337   2.3881764  )

     number of k points=     6  gaussian smearing, width (Ry)=  0.1000
                       cart. coord. in units 2pi/alat
        k(    1) = (   0.0000000   0.0000000   0.0000000), wk =   0.2500000
        k(    2) = (   0.0000000  -0.2165064   0.0000000), wk =   0.2500000
        k(    3) = (   0.2500000   0.0000000   0.0000000), wk =   0.5000000
        k(    4) = (   0.2500000  -0.2165064   0.0000000), wk =   0.5000000
        k(    5) = (  -0.5000000   0.0000000   0.0000000), wk =   0.2500000
        k(    6) = (  -0.5000000  -0.2165064   0.0000000), wk =   0.2500000

     Dense  grid:  2050409 G-vectors     FFT dimensions: (  80, 192, 270)

     Largest allocated arrays     est. size (Mb)     dimensions
        Kohn-Sham Wavefunctions        54.52 Mb     (    4604,  776)
        NL pseudopotentials           129.89 Mb     (    4604, 1849)
        Each V/rho on FFT grid          1.17 Mb     (   76800)
        Each G-vector array             0.28 Mb     (   36616)
        G-vector shells                 0.14 Mb     (   17932)
     Largest temporary arrays     est. size (Mb)     dimensions
        Auxiliary wavefunctions       218.06 Mb     (    4604, 3104)
        Each subspace H/S matrix        5.87 Mb     (     620,  620)
        Each <psi_i|beta_j> matrix     21.89 Mb     (    1849,  776)
        Arrays for rho mixing           9.38 Mb     (   76800,    8)

     Initial potential from superposition of free atoms
     Check: negative starting charge=   -0.001841

     starting charge 1267.81750, renormalised to 1293.00000

     negative rho (up, down):  1.877E-03 0.000E+00
     Starting wfc are 1285 randomized atomic wfcs

     total cpu time spent up to now is      107.2 secs

     Self-consistent Calculation

     iteration #  1     ecut=    80.00 Ry     beta=0.70
     Davidson diagonalization with overlap
     c_bands:  5 eigenvalues not converged
     c_bands:  4 eigenvalues not converged
     ethr =  1.00E-04,  avg # of iterations = 21.0

     negative rho (up, down):  2.934E+01 0.000E+00

     total cpu time spent up to now is     1854.1 secs

     total energy              =   -9184.73294011 Ry
     Harris-Foulkes estimate   =  -17143.50650759 Ry
     estimated scf accuracy    <  180974.79098005 Ry

     iteration #  2     ecut=    80.00 Ry     beta=0.70
     Davidson diagonalization with overlap
     ethr =  1.00E-02,  avg # of iterations = 12.7

     negative rho (up, down):  3.122E+01 0.000E+00

     total cpu time spent up to now is     2768.2 secs

     total energy              =  -12317.96537802 Ry
     Harris-Foulkes estimate   =  -13634.48385478 Ry
     estimated scf accuracy    <   17818.35359069 Ry

     iteration #  3     ecut=    80.00 Ry     beta=0.70
     Davidson diagonalization with overlap
     ethr =  1.00E-02,  avg # of iterations =  6.8

     negative rho (up, down):  3.310E+01 0.000E+00

     total cpu time spent up to now is     3315.8 secs

     total energy              =  -12500.03485446 Ry
     Harris-Foulkes estimate   =  -13350.48705910 Ry
     estimated scf accuracy    <    6110.94555327 Ry

     iteration #  4     ecut=    80.00 Ry     beta=0.70
     Davidson diagonalization with overlap
     ethr =  1.00E-02,  avg # of iterations =  5.7

     negative rho (up, down):  2.955E+01 0.000E+00

     total cpu time spent up to now is     3792.2 secs

     total energy              =  -12836.45922646 Ry
     Harris-Foulkes estimate   =  -13155.43572578 Ry
     estimated scf accuracy    <    6208.94903279 Ry

     iteration #  5     ecut=    80.00 Ry     beta=0.70
     Davidson diagonalization with overlap
     ethr =  1.00E-02,  avg # of iterations =  4.8

     negative rho (up, down):  2.050E+01 0.000E+00

     total cpu time spent up to now is     4156.7 secs

     total energy              =  -12864.25177496 Ry
     Harris-Foulkes estimate   =  -13045.98835002 Ry
     estimated scf accuracy    <    1058.11051455 Ry

     iteration #  6     ecut=    80.00 Ry     beta=0.70
     Davidson diagonalization with overlap
     ethr =  1.00E-02,  avg # of iterations =  2.8

     negative rho (up, down):  1.212E+01 0.000E+00

     total cpu time spent up to now is     4394.9 secs

     total energy              =  -12841.19213697 Ry
     Harris-Foulkes estimate   =  -12920.76634646 Ry
     estimated scf accuracy    <     624.51996076 Ry

     iteration #  7     ecut=    80.00 Ry     beta=0.70
     Davidson diagonalization with overlap
     ethr =  1.00E-02,  avg # of iterations =  2.0

     negative rho (up, down):  9.118E+00 0.000E+00

     total cpu time spent up to now is     4575.8 secs

     total energy              =  -12818.74049824 Ry
     Harris-Foulkes estimate   =  -12855.95206940 Ry
     estimated scf accuracy    <     926.11196966 Ry

     iteration #  8     ecut=    80.00 Ry     beta=0.70
     Davidson diagonalization with overlap
     ethr =  1.00E-02,  avg # of iterations =  1.5

     negative rho (up, down):  8.508E+00 0.000E+00

     total cpu time spent up to now is     4746.9 secs

     total energy              =  -12816.29641199 Ry
     Harris-Foulkes estimate   =  -12825.90662244 Ry
     estimated scf accuracy    <     386.63923874 Ry

     iteration #  9     ecut=    80.00 Ry     beta=0.70
     Davidson diagonalization with overlap
     ethr =  1.00E-02,  avg # of iterations =  1.0

     negative rho (up, down):  2.870E+00 0.000E+00

     total cpu time spent up to now is     4913.5 secs

     total energy              =  -12758.08138855 Ry
     Harris-Foulkes estimate   =  -12818.72692774 Ry
     estimated scf accuracy    <     322.67305968 Ry

     iteration # 10     ecut=    80.00 Ry     beta=0.70
     Davidson diagonalization with overlap
     ethr =  1.00E-02,  avg # of iterations =  2.5

     negative rho (up, down):  1.525E+00 0.000E+00

     total cpu time spent up to now is     5097.6 secs

     total energy              =  -12735.76320196 Ry
     Harris-Foulkes estimate   =  -12775.15201596 Ry
     estimated scf accuracy    <     773.63419827 Ry

     iteration # 11     ecut=    80.00 Ry     beta=0.70
     Davidson diagonalization with overlap
     ethr =  1.00E-02,  avg # of iterations =  1.7

     negative rho (up, down):  7.747E-01 0.000E+00

     total cpu time spent up to now is     5273.7 secs

     total energy              =  -12706.44143368 Ry
     Harris-Foulkes estimate   =  -12758.99784046 Ry
     estimated scf accuracy    <     409.86432005 Ry

     iteration # 12     ecut=    80.00 Ry     beta=0.70
     Davidson diagonalization with overlap
     ethr =  1.00E-02,  avg # of iterations =  3.7

     negative rho (up, down):  5.784E-01 0.000E+00

     total cpu time spent up to now is     5492.9 secs

     total energy              =  -12726.13145777 Ry
     Harris-Foulkes estimate   =  -12741.38159567 Ry
     estimated scf accuracy    <     251.46680784 Ry

     iteration # 13     ecut=    80.00 Ry     beta=0.70
     Davidson diagonalization with overlap
     ethr =  1.00E-02,  avg # of iterations =  1.8

     negative rho (up, down):  3.487E+00 0.000E+00

     total cpu time spent up to now is     5669.8 secs

     total energy              =  -12711.34478470 Ry
     Harris-Foulkes estimate   =  -12735.01696518 Ry
     estimated scf accuracy    <     100.65972954 Ry

     iteration # 14     ecut=    80.00 Ry     beta=0.70
     Davidson diagonalization with overlap
     ethr =  7.78E-03,  avg # of iterations =  2.0

     negative rho (up, down):  6.329E+00 0.000E+00

     total cpu time spent up to now is     5848.7 secs

     total energy              =  -12713.19259049 Ry
     Harris-Foulkes estimate   =  -12721.77561663 Ry
     estimated scf accuracy    <     116.49521681 Ry

     iteration # 15     ecut=    80.00 Ry     beta=0.70
     Davidson diagonalization with overlap
     ethr =  7.78E-03,  avg # of iterations =  1.0

     negative rho (up, down):  4.691E+00 0.000E+00

     total cpu time spent up to now is     6015.6 secs

     total energy              =  -12710.10188679 Ry
     Harris-Foulkes estimate   =  -12715.15582461 Ry
     estimated scf accuracy    <      77.71354681 Ry

     iteration # 16     ecut=    80.00 Ry     beta=0.70
     Davidson diagonalization with overlap
     ethr =  6.01E-03,  avg # of iterations =  1.0

     negative rho (up, down):  4.464E+00 0.000E+00

     total cpu time spent up to now is     6182.0 secs

     total energy              =  -12707.68137561 Ry
     Harris-Foulkes estimate   =  -12711.31399788 Ry
     estimated scf accuracy    <      34.47299824 Ry

     iteration # 17     ecut=    80.00 Ry     beta=0.70
     Davidson diagonalization with overlap
     ethr =  2.67E-03,  avg # of iterations =  2.0

     negative rho (up, down):  3.360E+00 0.000E+00

     total cpu time spent up to now is     6359.6 secs

     total energy              =  -12706.82197328 Ry
     Harris-Foulkes estimate   =  -12708.81248206 Ry
     estimated scf accuracy    <      24.86804357 Ry

     iteration # 18     ecut=    80.00 Ry     beta=0.70
     Davidson diagonalization with overlap
     ethr =  1.92E-03,  avg # of iterations =  3.7

     negative rho (up, down):  1.998E+00 0.000E+00

     total cpu time spent up to now is     6556.9 secs

     total energy              =  -12704.20470703 Ry
     Harris-Foulkes estimate   =  -12707.10434239 Ry
     estimated scf accuracy    <      13.53080263 Ry

     iteration # 19     ecut=    80.00 Ry     beta=0.70
     Davidson diagonalization with overlap
     ethr =  1.05E-03,  avg # of iterations =  8.5

     negative rho (up, down):  2.348E+00 0.000E+00

     total cpu time spent up to now is     6826.8 secs

     total energy              =  -12703.89477853 Ry
     Harris-Foulkes estimate   =  -12705.10903253 Ry
     estimated scf accuracy    <      26.69900837 Ry

     iteration # 20     ecut=    80.00 Ry     beta=0.70
     Davidson diagonalization with overlap
     ethr =  1.05E-03,  avg # of iterations =  2.3

     negative rho (up, down):  2.052E+00 0.000E+00

     total cpu time spent up to now is     7008.3 secs

     total energy              =  -12704.13909334 Ry
     Harris-Foulkes estimate   =  -12704.39424900 Ry
     estimated scf accuracy    <      24.35702603 Ry

     iteration # 21     ecut=    80.00 Ry     beta=0.70
     Davidson diagonalization with overlap
     ethr =  1.05E-03,  avg # of iterations =  1.7

     negative rho (up, down):  2.041E+00 0.000E+00

     total cpu time spent up to now is     7182.9 secs

     total energy              =  -12704.35709706 Ry
     Harris-Foulkes estimate   =  -12704.99648308 Ry
     estimated scf accuracy    <       8.06022880 Ry

     iteration # 22     ecut=    80.00 Ry     beta=0.70
     Davidson diagonalization with overlap
     ethr =  6.23E-04,  avg # of iterations =  1.0

     negative rho (up, down):  1.676E+00 0.000E+00

     total cpu time spent up to now is     7349.6 secs

     total energy              =  -12703.58277726 Ry
     Harris-Foulkes estimate   =  -12704.61516624 Ry
     estimated scf accuracy    <       6.64191535 Ry

     iteration # 23     ecut=    80.00 Ry     beta=0.70
     Davidson diagonalization with overlap
     ethr =  5.14E-04,  avg # of iterations =  1.8

     negative rho (up, down):  7.470E-01 0.000E+00

     total cpu time spent up to now is     7526.0 secs

     total energy              =  -12701.44851075 Ry
     Harris-Foulkes estimate   =  -12703.71076967 Ry
     estimated scf accuracy    <       5.83797541 Ry

     iteration # 24     ecut=    80.00 Ry     beta=0.70
     Davidson diagonalization with overlap
     ethr =  4.52E-04,  avg # of iterations =  2.3

     negative rho (up, down):  7.378E-01 0.000E+00

     total cpu time spent up to now is     7708.4 secs

     total energy              =  -12701.60227197 Ry
     Harris-Foulkes estimate   =  -12701.91630199 Ry
     estimated scf accuracy    <      27.78832826 Ry

     iteration # 25     ecut=    80.00 Ry     beta=0.70
     Davidson diagonalization with overlap
     ethr =  4.52E-04,  avg # of iterations =  3.3

     negative rho (up, down):  1.248E-03 0.000E+00

     total cpu time spent up to now is     7901.9 secs

     total energy              =  -12700.72609629 Ry
     Harris-Foulkes estimate   =  -12701.81903208 Ry
     estimated scf accuracy    <       7.00423301 Ry

     iteration # 26     ecut=    80.00 Ry     beta=0.70
     Davidson diagonalization with overlap
     ethr =  4.52E-04,  avg # of iterations =  8.8

     negative rho (up, down):  3.757E-02 0.000E+00

     total cpu time spent up to now is     8158.8 secs

     total energy              =  -12700.40210757 Ry
     Harris-Foulkes estimate   =  -12700.85594578 Ry
     estimated scf accuracy    <       5.08998099 Ry

     iteration # 27     ecut=    80.00 Ry     beta=0.70
     Davidson diagonalization with overlap
     ethr =  3.94E-04,  avg # of iterations =  1.5

     negative rho (up, down):  1.845E-01 0.000E+00

     total cpu time spent up to now is     8331.8 secs

     total energy              =  -12700.24452180 Ry
     Harris-Foulkes estimate   =  -12700.58560442 Ry
     estimated scf accuracy    <       5.61369937 Ry

     iteration # 28     ecut=    80.00 Ry     beta=0.70
     Davidson diagonalization with overlap
     ethr =  3.94E-04,  avg # of iterations =  1.3

     negative rho (up, down):  2.714E-01 0.000E+00

     total cpu time spent up to now is     8502.1 secs

     total energy              =  -12700.21295586 Ry
     Harris-Foulkes estimate   =  -12700.37972862 Ry
     estimated scf accuracy    <       2.14146113 Ry

     iteration # 29     ecut=    80.00 Ry     beta=0.70
     Davidson diagonalization with overlap
     ethr =  1.66E-04,  avg # of iterations =  7.3

     negative rho (up, down):  4.653E-02 0.000E+00

     total cpu time spent up to now is     8746.8 secs

     total energy              =  -12699.95048379 Ry
     Harris-Foulkes estimate   =  -12700.25045422 Ry
     estimated scf accuracy    <       1.37565992 Ry

     iteration # 30     ecut=    80.00 Ry     beta=0.70
     Davidson diagonalization with overlap
     ethr =  1.06E-04,  avg # of iterations =  7.2

     negative rho (up, down):  3.051E-01 0.000E+00

     total cpu time spent up to now is     8996.6 secs

     total energy              =  -12699.89878984 Ry
     Harris-Foulkes estimate   =  -12700.03628809 Ry
     estimated scf accuracy    <       0.73288955 Ry

     iteration # 31     ecut=    80.00 Ry     beta=0.70
     Davidson diagonalization with overlap
     ethr =  5.67E-05,  avg # of iterations =  7.3

     negative rho (up, down):  5.150E-01 0.000E+00

     total cpu time spent up to now is     9245.8 secs

     total energy              =  -12699.89499780 Ry
     Harris-Foulkes estimate   =  -12699.97364166 Ry
     estimated scf accuracy    <       0.62438107 Ry

     iteration # 32     ecut=    80.00 Ry     beta=0.70
     Davidson diagonalization with overlap
     ethr =  4.83E-05,  avg # of iterations =  9.3

     negative rho (up, down):  4.355E-01 0.000E+00

     total cpu time spent up to now is     9524.3 secs

     total energy              =  -12699.88559634 Ry
     Harris-Foulkes estimate   =  -12699.92053591 Ry
     estimated scf accuracy    <       0.40137501 Ry

     iteration # 33     ecut=    80.00 Ry     beta=0.70
     Davidson diagonalization with overlap
     ethr =  3.10E-05,  avg # of iterations =  7.5

     negative rho (up, down):  4.259E-02 0.000E+00

     total cpu time spent up to now is     9773.6 secs

     total energy              =  -12699.85341693 Ry
     Harris-Foulkes estimate   =  -12699.89702121 Ry
     estimated scf accuracy    <       0.22964404 Ry

     iteration # 34     ecut=    80.00 Ry     beta=0.70
     Davidson diagonalization with overlap
     ethr =  1.78E-05,  avg # of iterations =  9.8

     negative rho (up, down):  1.321E-02 0.000E+00

     total cpu time spent up to now is    10067.6 secs

     total energy              =  -12699.85741864 Ry
     Harris-Foulkes estimate   =  -12699.86382096 Ry
     estimated scf accuracy    <       0.02549467 Ry

     iteration # 35     ecut=    80.00 Ry     beta=0.70
     Davidson diagonalization with overlap
     ethr =  1.97E-06,  avg # of iterations = 12.0

     negative rho (up, down):  7.041E-03 0.000E+00

     total cpu time spent up to now is    10434.8 secs

     total energy              =  -12699.85996092 Ry
     Harris-Foulkes estimate   =  -12699.86353589 Ry
     estimated scf accuracy    <       0.02385691 Ry

     iteration # 36     ecut=    80.00 Ry     beta=0.70
     Davidson diagonalization with overlap
     ethr =  1.85E-06,  avg # of iterations =  7.2

     negative rho (up, down):  1.033E-02 0.000E+00

     total cpu time spent up to now is    10692.7 secs

     total energy              =  -12699.86209898 Ry
     Harris-Foulkes estimate   =  -12699.86160475 Ry
     estimated scf accuracy    <       0.00104546 Ry

     iteration # 37     ecut=    80.00 Ry     beta=0.70
     Davidson diagonalization with overlap
     ethr =  8.09E-08,  avg # of iterations =  8.5

     negative rho (up, down):  1.141E-02 0.000E+00

     total cpu time spent up to now is    11036.3 secs

     total energy              =  -12699.86235562 Ry
     Harris-Foulkes estimate   =  -12699.86230236 Ry
     estimated scf accuracy    <       0.00091544 Ry

     iteration # 38     ecut=    80.00 Ry     beta=0.70
     Davidson diagonalization with overlap
     ethr =  7.08E-08,  avg # of iterations =  4.0

     negative rho (up, down):  4.194E-03 0.000E+00

     total cpu time spent up to now is    11243.1 secs

     total energy              =  -12699.86239111 Ry
     Harris-Foulkes estimate   =  -12699.86240438 Ry
     estimated scf accuracy    <       0.00016746 Ry

     iteration # 39     ecut=    80.00 Ry     beta=0.70
     Davidson diagonalization with overlap
     c_bands:  1 eigenvalues not converged
     ethr =  1.30E-08,  avg # of iterations = 10.0

     negative rho (up, down):  9.928E-04 0.000E+00

     total cpu time spent up to now is    11529.8 secs

     total energy              =  -12699.86242343 Ry
     Harris-Foulkes estimate   =  -12699.86240634 Ry
     estimated scf accuracy    <       0.00008570 Ry

     iteration # 40     ecut=    80.00 Ry     beta=0.70
     Davidson diagonalization with overlap
     ethr =  6.63E-09,  avg # of iterations =  9.3

     negative rho (up, down):  1.477E-03 0.000E+00

     total cpu time spent up to now is    11815.8 secs

     total energy              =  -12699.86245006 Ry
     Harris-Foulkes estimate   =  -12699.86243254 Ry
     estimated scf accuracy    <       0.00001150 Ry

     iteration # 41     ecut=    80.00 Ry     beta=0.70
     Davidson diagonalization with overlap
     ethr =  8.90E-10,  avg # of iterations =  5.3

     negative rho (up, down):  1.548E-03 0.000E+00

     total cpu time spent up to now is    12048.6 secs

     total energy              =  -12699.86245468 Ry
     Harris-Foulkes estimate   =  -12699.86245154 Ry
     estimated scf accuracy    <       0.00000513 Ry

     iteration # 42     ecut=    80.00 Ry     beta=0.70
     Davidson diagonalization with overlap
     ethr =  3.97E-10,  avg # of iterations =  3.0

     negative rho (up, down):  1.689E-03 0.000E+00

     total cpu time spent up to now is    12251.7 secs

     total energy              =  -12699.86245705 Ry
     Harris-Foulkes estimate   =  -12699.86245531 Ry
     estimated scf accuracy    <       0.00000078 Ry

     iteration # 43     ecut=    80.00 Ry     beta=0.70
     Davidson diagonalization with overlap
     ethr =  6.00E-11,  avg # of iterations =  3.2

     negative rho (up, down):  1.747E-03 0.000E+00

     total cpu time spent up to now is    12488.1 secs

     total energy              =  -12699.86245738 Ry
     Harris-Foulkes estimate   =  -12699.86245720 Ry
     estimated scf accuracy    <       0.00000028 Ry

     iteration # 44     ecut=    80.00 Ry     beta=0.70
     Davidson diagonalization with overlap
     ethr =  2.16E-11,  avg # of iterations =  5.3

     negative rho (up, down):  1.806E-03 0.000E+00

     total cpu time spent up to now is    12717.6 secs

     total energy              =  -12699.86245739 Ry
     Harris-Foulkes estimate   =  -12699.86245742 Ry
     estimated scf accuracy    <       0.00000009 Ry

     iteration # 45     ecut=    80.00 Ry     beta=0.70
     Davidson diagonalization with overlap
     ethr =  7.08E-12,  avg # of iterations =  2.0

     negative rho (up, down):  1.835E-03 0.000E+00

     total cpu time spent up to now is    12905.5 secs

     total energy              =  -12699.86245740 Ry
     Harris-Foulkes estimate   =  -12699.86245740 Ry
     estimated scf accuracy    <       0.00000003 Ry

     iteration # 46     ecut=    80.00 Ry     beta=0.70
     Davidson diagonalization with overlap
     ethr =  2.60E-12,  avg # of iterations =  2.8

     negative rho (up, down):  1.851E-03 0.000E+00

     total cpu time spent up to now is    13103.1 secs

     total energy              =  -12699.86245742 Ry
     Harris-Foulkes estimate   =  -12699.86245741 Ry
     estimated scf accuracy    <       0.00000001 Ry

     iteration # 47     ecut=    80.00 Ry     beta=0.70
     Davidson diagonalization with overlap
     ethr =  1.14E-12,  avg # of iterations =  2.8

     negative rho (up, down):  1.853E-03 0.000E+00

     total cpu time spent up to now is    13302.1 secs

     End of self-consistent calculation

          k = 0.0000 0.0000 0.0000 (256287 PWs)   bands (ev):

   -16.6066 -15.8972 -15.7234 -14.9809 -14.6477 -14.3683 -14.2140 -13.9232
   -13.8336 -13.7698 -13.7666 -13.0772 -12.8750 -12.7618 -12.7592 -12.7196
   -12.7159 -11.2977 -11.0749 -11.0519 -11.0276 -10.8459  -9.8614  -9.4078
    -9.2152  -9.1656  -9.1502  -8.4820  -8.3602  -8.2546  -8.2479  -7.4989
    -7.3546  -7.2949  -7.2709  -7.2055  -7.1982  -7.1701  -7.1676  -6.0138
    -5.7346  -5.6859  -5.6523  -5.6483  -5.5459  -5.5259  -5.4968  -5.4670
    -5.1827  -5.1618  -5.1048  -4.6545  -4.3875  -4.3609  -4.2900  -4.2556
    -4.0858  -4.0332  -3.9373  -3.8175  -3.6570  -3.6538  -3.4244  -3.2902
    -3.2206  -3.1905  -3.1722  -3.1185  -3.0764  -3.0701  -3.0503  -3.0424
    -2.9205  -2.8414  -2.7534  -2.7207  -2.6849  -2.6824  -2.6667  -2.6491
    -2.6482  -2.5208  -2.4511  -2.4211  -2.4193  -2.4118  -2.3826  -2.3680
    -2.3619  -2.3516  -2.2105  -2.0740  -2.0529  -2.0444  -2.0015  -1.9872
    -1.8739  -1.8550  -1.8496  -1.8243  -1.8238  -1.8121  -1.8101  -1.7859
    -1.7525  -1.7490  -1.7268  -1.6845  -1.6810  -1.6774  -1.6759  -1.6528
    -1.6175  -1.5012  -1.4367  -1.4029  -1.4013  -1.3982  -1.3945  -1.3557
    -1.3542  -1.3357  -1.3194  -1.3164  -1.2772  -1.2719  -1.2478  -1.2287
    -1.2208  -1.2186  -1.2040  -1.1971  -1.1958  -1.1826  -1.1809  -1.1715
    -1.1262  -1.1061  -1.0835  -1.0732  -1.0660  -1.0416  -1.0250  -1.0177
    -1.0143  -1.0058  -0.9623  -0.9582  -0.9206  -0.9133  -0.9088  -0.8794
    -0.8652  -0.8509  -0.8481  -0.8342  -0.8255  -0.8229  -0.7780  -0.7763
    -0.7691  -0.7608  -0.7186  -0.7033  -0.6956  -0.6936  -0.6888  -0.6840
    -0.6819  -0.6765  -0.6762  -0.6727  -0.6631  -0.6552  -0.6480  -0.6345
    -0.6037  -0.5981  -0.5941  -0.5850  -0.5794  -0.5643  -0.5625  -0.5530
    -0.5254  -0.5242  -0.5204  -0.5199  -0.5167  -0.5161  -0.5128  -0.5123
    -0.5102  -0.5092  -0.5064  -0.5041  -0.5018  -0.5012  -0.4990  -0.4943
    -0.4867  -0.4793  -0.4755  -0.4682  -0.4345  -0.4240  -0.3506  -0.3451
    -0.3435  -0.3381  -0.3268  -0.3221  -0.3084  -0.3029  -0.2926  -0.2798
    -0.2685  -0.2619  -0.2593  -0.2569  -0.2541  -0.2349  -0.2252  -0.2212
    -0.2188  -0.2157  -0.2085  -0.2018  -0.1998  -0.1813  -0.1476  -0.1373
    -0.1007  -0.0970  -0.0913  -0.0833  -0.0786  -0.0720  -0.0708  -0.0662
    -0.0621  -0.0581  -0.0564  -0.0517  -0.0486  -0.0471  -0.0420  -0.0414
    -0.0371  -0.0350  -0.0297  -0.0177  -0.0059   0.0165   0.0365   0.0475
     0.0536   0.0637   0.0649   0.0735   0.0766   0.0813   0.0830   0.0894
     0.0931   0.0983   0.0989   0.1045   0.1179   0.1196   0.1268   0.1281
     0.1294   0.1304   0.1341   0.1397   0.1478   0.1536   0.1566   0.1586
     0.1633   0.1651   0.1706   0.1846   0.2115   0.2207   0.2299   0.2350
     0.2440   0.2660   0.2684   0.2741   0.2768   0.2798   0.2828   0.2834
     0.2874   0.2900   0.2948   0.3060   0.3267   0.3277   0.3329   0.3385
     0.3401   0.3424   0.3537   0.3647   0.3665   0.3679   0.3717   0.3778
     0.3795   0.3873   0.3893   0.3898   0.3918   0.3996   0.4034   0.4075
     0.4120   0.4137   0.4146   0.4236   0.4316   0.4342   0.4415   0.4460
     0.4526   0.4797   0.4846   0.4898   0.5002   0.5087   0.5138   0.5387
     0.5488   0.5523   0.5591   0.5746   0.5809   0.5916   0.5924   0.5993
     0.6020   0.6162   0.6192   0.6272   0.6310   0.6372   0.6481   0.6528
     0.6746   0.6856   0.6895   0.6904   0.7001   0.7021   0.7047   0.7199
     0.7272   0.7325   0.7404   0.7411   0.7444   0.7608   0.7699   0.7733
     0.7809   0.7850   0.7895   0.7935   0.7999   0.8191   0.8253   0.8316
     0.8341   0.8458   0.8481   0.8500   0.8569   0.8582   0.8629   0.8756
     0.8828   0.8853   0.8874   0.8897   0.8949   0.8979   0.9009   0.9038
     0.9054   0.9101   0.9123   0.9136   0.9151   0.9302   0.9376   0.9504
     0.9538   0.9582   0.9611   0.9762   0.9851   0.9925   0.9935   0.9971
     1.0003   1.0031   1.0049   1.0119   1.0228   1.0237   1.0274   1.0300
     1.0353   1.0378   1.0397   1.0409   1.0443   1.0466   1.0507   1.0532
     1.0628   1.0684   1.0701   1.0768   1.0832   1.0888   1.0942   1.0953
     1.0982   1.0986   1.1007   1.1040   1.1057   1.1113   1.1152   1.1222
     1.1315   1.1387   1.1587   1.1594   1.1632   1.1670   1.1692   1.1759
     1.1820   1.1853   1.2049   1.2110   1.2152   1.2231   1.2297   1.2330
     1.2428   1.2467   1.2479   1.2503   1.2525   1.2631   1.2636   1.2731
     1.2781   1.2848   1.2912   1.2936   1.2962   1.2978   1.3017   1.3096
     1.3275   1.3292   1.3366   1.3379   1.3456   1.3481   1.3486   1.3543
     1.3569   1.3587   1.3601   1.3665   1.3671   1.3757   1.3791   1.3845
     1.3881   1.3896   1.3897   1.4052   1.4111   1.4146   1.4167   1.4226
     1.4256   1.4283   1.4376   1.4481   1.4535   1.4559   1.4615   1.4623
     1.4627   1.4654   1.4680   1.4691   1.4697   1.4704   1.4733   1.4751
     1.4838   1.4870   1.4895   1.5045   1.5096   1.5307   1.5315   1.5415
     1.5513   1.5534   1.5552   1.5576   1.5588   1.5630   1.5672   1.5720
     1.5737   1.5835   1.5851   1.5862   1.5894   1.5954   1.6001   1.6034
     1.6057   1.6088   1.6170   1.6186   1.6240   1.6298   1.6312   1.6330
     1.6393   1.6421   1.6485   1.6509   1.6531   1.6561   1.6621   1.6632
     1.6653   1.6659   1.6664   1.6764   1.6768   1.6821   1.6936   1.6967
     1.6990   1.7011   1.7048   1.7070   1.7120   1.7124   1.7152   1.7205
     1.7370   1.7436   1.7442   1.7453   1.7556   1.7683   1.7701   1.7717
     1.7763   1.7769   1.7798   1.7835   1.7843   1.7861   1.7890   1.7892
     1.7902   1.7931   1.7960   1.7963   1.7997   1.8133   1.8146   1.8174
     1.8226   1.8256   1.8284   1.8298   1.8335   1.8440   1.8547   1.8626
     1.8669   1.8729   1.9062   1.9101   1.9114   1.9152   1.9297   1.9300
     1.9320   1.9425   1.9578   1.9618   1.9751   1.9840   1.9873   1.9905
     1.9922   1.9950   1.9972   2.0062   2.2538   2.3076   2.4487   2.4500
     2.4822   2.4892   2.5467   2.5527   2.5549   2.5589   2.5635   2.5716
     2.5750   2.5777   2.7448   2.7502   2.8023   2.8069   2.8081   2.8199
     2.8302   2.8368   2.9929   3.0571   3.0690   3.0739   3.1002   3.2711
     3.3388   3.3590   3.4460   3.8485   3.8539   4.1509   4.1603   4.1775
     4.1884   4.1908   4.2077   4.2250   4.2503   4.2925   4.3276   4.3359
     4.3428   4.3510   4.3524   4.3573   4.3632   4.5676   4.5698   4.5761
     4.5906   4.6763   4.7866   4.9028   5.0927   5.1413   5.2265   5.2590
     5.6514   5.6711   5.6949   5.7372   6.0000   6.0212   6.0366   6.0702
     6.2520   6.2737   6.4883   6.6483   6.6543   6.7110   6.7544   6.7719
     6.7787   6.7950   6.8125   6.8803   6.9138   6.9451   7.0353   7.0851
     7.0963   7.1198   7.1304   7.1458   7.2931   7.3081   7.3415   7.4049
     7.4113   7.4195   7.4385   7.6835   7.7445   7.7705   7.8188   7.8290
     7.8310   7.9675   8.0070   8.0239   8.0305   8.0366   8.2815   8.4871
     8.4924   8.4939   8.5031   8.5117   8.5663   8.5778   8.6446   8.6631
     8.6792   8.7063   8.7246   8.7450   8.7813   8.7988   8.8593   8.8726
     8.9074   8.9721   8.9860   9.0008   9.0096   9.1714   9.1772   9.1837
     9.2067   9.2523   9.2748   9.3056   9.3165   9.3735   9.4159   9.4195
     9.4299   9.4558   9.4716   9.6087   9.6694   9.7037   9.7184   9.9136
     9.9516   9.9563   9.9818  10.0573  10.0603  10.1720  10.1870  10.2672

          k = 0.0000-0.2165 0.0000 (256176 PWs)   bands (ev):

   -16.6043 -15.9724 -15.5096 -15.2747 -14.5926 -14.1819 -14.0130 -14.0090
   -13.8858 -13.8381 -13.4761 -13.3840 -13.3348 -13.3270 -12.2156 -11.9948
   -11.9732 -11.9363 -11.7653 -11.7231 -10.2631 -10.0879 -10.0614 -10.0380
    -8.9713  -8.8679  -8.7705  -8.7404  -8.6132  -8.6058  -7.9723  -7.8762
    -7.7948  -7.7928  -6.8962  -6.7483  -6.6375  -6.5946  -6.5378  -6.5098
    -6.4719  -6.4664  -5.7676  -5.6896  -5.5617  -5.5508  -5.3540  -4.9135
    -4.8285  -4.7985  -4.7905  -4.6447  -4.5228  -4.5082  -4.4178  -4.3233
    -4.3069  -4.2541  -4.2406  -4.1502  -3.8935  -3.6998  -3.4023  -3.2550
    -3.1365  -2.9868  -2.9741  -2.9688  -2.9680  -2.9180  -2.8924  -2.8119
    -2.8078  -2.7380  -2.7141  -2.6942  -2.6928  -2.6805  -2.6649  -2.5416
    -2.5309  -2.5069  -2.4892  -2.4158  -2.4119  -2.3209  -2.2960  -2.2668
    -2.2658  -2.2541  -2.2475  -2.2446  -2.2430  -2.2189  -2.1395  -2.0148
    -1.9846  -1.9709  -1.9291  -1.9270  -1.9163  -1.8972  -1.8151  -1.8031
    -1.8007  -1.7966  -1.7407  -1.6996  -1.6463  -1.6444  -1.6269  -1.6266
    -1.5440  -1.5291  -1.5177  -1.4691  -1.4420  -1.4359  -1.4303  -1.4248
    -1.4189  -1.4089  -1.3988  -1.3973  -1.3834  -1.3782  -1.3156  -1.3058
    -1.2782  -1.2508  -1.2336  -1.2276  -1.1315  -1.1272  -1.1254  -1.1109
    -1.0878  -1.0315  -1.0241  -1.0227  -1.0195  -0.9937  -0.9782  -0.9724
    -0.9453  -0.9390  -0.9372  -0.9329  -0.9325  -0.9280  -0.9110  -0.9094
    -0.8959  -0.8840  -0.8831  -0.8754  -0.8653  -0.8548  -0.8348  -0.8187
    -0.8067  -0.8021  -0.7822  -0.7770  -0.7486  -0.7471  -0.7140  -0.7128
    -0.7089  -0.7006  -0.6689  -0.6621  -0.6437  -0.6423  -0.6400  -0.6343
    -0.6309  -0.6248  -0.5869  -0.5845  -0.5795  -0.5782  -0.5660  -0.5650
    -0.5569  -0.5541  -0.5504  -0.5400  -0.5017  -0.4905  -0.4835  -0.4818
    -0.4779  -0.4704  -0.4673  -0.4598  -0.4509  -0.4467  -0.4311  -0.4287
    -0.4129  -0.4071  -0.3974  -0.3956  -0.3224  -0.3195  -0.3103  -0.3089
    -0.2971  -0.2944  -0.2893  -0.2695  -0.2664  -0.2648  -0.2638  -0.2621
    -0.2599  -0.2317  -0.2280  -0.2082  -0.2012  -0.1966  -0.1951  -0.1833
    -0.1793  -0.1765  -0.1734  -0.1599  -0.1513  -0.1427  -0.1407  -0.1402
    -0.1214  -0.1106  -0.1100  -0.1081  -0.1063  -0.0941  -0.0916  -0.0903
    -0.0893  -0.0807  -0.0493  -0.0291  -0.0237  -0.0152  -0.0097  -0.0063
     0.0170   0.0196   0.0233   0.0359   0.0408   0.0440   0.0475   0.0507
     0.0591   0.0632   0.0665   0.0768   0.0801   0.0830   0.0861   0.0897
     0.0915   0.0930   0.0942   0.0992   0.1024   0.1096   0.1141   0.1178
     0.1214   0.1243   0.1350   0.1399   0.1454   0.1458   0.1664   0.1712
     0.1955   0.1975   0.2033   0.2068   0.2078   0.2130   0.2158   0.2205
     0.2288   0.2294   0.2418   0.2467   0.2496   0.2589   0.2601   0.2665
     0.2671   0.2682   0.2710   0.2745   0.2782   0.2822   0.3074   0.3169
     0.3255   0.3362   0.3372   0.3457   0.3464   0.3490   0.3528   0.3545
     0.3591   0.3642   0.3758   0.3792   0.3820   0.3863   0.3906   0.3928
     0.4093   0.4112   0.4156   0.4219   0.4236   0.4288   0.4350   0.4455
     0.4528   0.4537   0.4600   0.4798   0.4815   0.4821   0.4851   0.4951
     0.5170   0.5200   0.5324   0.5384   0.5480   0.5501   0.5545   0.5677
     0.5718   0.5842   0.6046   0.6063   0.6140   0.6204   0.6372   0.6499
     0.6538   0.6799   0.7051   0.7166   0.7301   0.7361   0.7429   0.7475
     0.7515   0.7633   0.7645   0.7698   0.7728   0.7887   0.7960   0.8006
     0.8024   0.8080   0.8090   0.8142   0.8158   0.8166   0.8239   0.8245
     0.8294   0.8342   0.8414   0.8458   0.8523   0.8587   0.8671   0.8674
     0.8742   0.8792   0.8825   0.8866   0.8867   0.8887   0.8916   0.8945
     0.8958   0.9039   0.9084   0.9116   0.9147   0.9187   0.9206   0.9262
     0.9328   0.9340   0.9356   0.9365   0.9397   0.9434   0.9474   0.9481
     0.9599   0.9688   0.9879   0.9896   1.0047   1.0103   1.0139   1.0167
     1.0191   1.0235   1.0274   1.0304   1.0308   1.0329   1.0341   1.0361
     1.0402   1.0433   1.0709   1.0715   1.0727   1.0806   1.0851   1.0908
     1.0914   1.0939   1.0992   1.1017   1.1062   1.1077   1.1221   1.1271
     1.1305   1.1328   1.1361   1.1374   1.1849   1.1868   1.2267   1.2307
     1.2333   1.2389   1.2406   1.2455   1.2480   1.2516   1.2560   1.2589
     1.2635   1.2647   1.2699   1.2715   1.2813   1.2849   1.2858   1.2900
     1.2962   1.2980   1.3037   1.3088   1.3104   1.3154   1.3161   1.3168
     1.3179   1.3212   1.3223   1.3244   1.3261   1.3303   1.3316   1.3359
     1.3385   1.3399   1.3414   1.3426   1.3444   1.3459   1.3629   1.3703
     1.3762   1.3784   1.3792   1.3816   1.3840   1.3858   1.3894   1.3920
     1.3951   1.3954   1.3972   1.4053   1.4352   1.4439   1.4454   1.4651
     1.4741   1.4839   1.4857   1.4912   1.4971   1.5016   1.5060   1.5132
     1.5207   1.5215   1.5338   1.5365   1.5386   1.5421   1.5430   1.5461
     1.5471   1.5495   1.5509   1.5532   1.5550   1.5583   1.5607   1.5635
     1.5667   1.5753   1.5788   1.5803   1.5811   1.5813   1.5841   1.5859
     1.5900   1.5973   1.6146   1.6188   1.6207   1.6232   1.6299   1.6310
     1.6335   1.6353   1.6414   1.6462   1.6507   1.6523   1.6595   1.6617
     1.6648   1.6663   1.6679   1.6754   1.6782   1.6858   1.6880   1.6892
     1.7028   1.7053   1.7071   1.7158   1.7201   1.7222   1.7316   1.7325
     1.7341   1.7366   1.7430   1.7452   1.7499   1.7591   1.7664   1.7704
     1.7780   1.7809   1.7821   1.7834   1.7958   1.7964   1.7992   1.8015
     1.8023   1.8085   1.8097   1.8105   1.8301   1.8383   1.8385   1.8424
     1.8461   1.8489   1.8560   1.8568   1.8689   1.8731   1.8739   1.8760
     1.8799   1.8849   1.8910   1.8964   1.9334   1.9362   1.9391   1.9432
     2.0266   2.0306   2.0396   2.0522   2.0572   2.0773   2.0847   2.0904
     2.1347   2.1357   2.1422   2.1536   2.1581   2.1631   2.1660   2.1669
     2.2045   2.2061   2.2317   2.3641   2.4110   2.4353   2.7585   2.7624
     2.7627   2.7676   2.8361   2.8451   2.8944   2.9066   2.9078   2.9171
     2.9260   2.9301   3.0510   3.0637   3.0892   3.0963   3.1243   3.1259
     3.2689   3.2729   3.5095   3.5096   3.5178   3.5438   3.6588   3.7163
     3.9421   4.0191   4.0252   4.2040   4.2799   4.2931   4.4049   4.4205
     4.4301   4.4581   4.6415   4.6483   4.6636   4.6749   4.8060   4.8331
     4.9169   4.9933   5.0705   5.0788   5.3258   5.3766   5.4345   5.4451
     5.6600   5.6830   5.6939   5.6972   5.7112   5.7558   5.8199   5.9581
     5.9980   6.0377   6.1031   6.1335   6.6128   6.6598   6.7023   6.7339
     6.7534   6.7570   6.8711   6.8831   7.0015   7.0486   7.1038   7.1211
     7.2795   7.3073   7.3161   7.3706   7.3895   7.4210   7.4336   7.4517
     7.4591   7.4678   7.4732   7.4818   7.5374   7.6506   7.6587   7.6797
     7.7054   7.7496   7.8649   7.9778   8.0449   8.0916   8.0948   8.1029
     8.4055   8.4535   8.4761   8.4993   8.5907   8.6803   8.6903   8.7024
     8.7272   8.7368   8.7527   8.7956   8.8875   8.9100   9.0219   9.0465
     9.0538   9.0673   9.0925   9.1090   9.1341   9.1495   9.1536   9.1750
     9.2593   9.3276   9.3535   9.3903   9.4648   9.4740   9.5155   9.5287
     9.6927   9.7044   9.7114   9.7326   9.7518   9.7901   9.7960   9.8001
     9.8736   9.8950   9.9542  10.0029  10.0690  10.1051  10.1682  10.1722

          k = 0.2500 0.0000 0.0000 (256240 PWs)   bands (ev):

   -16.5342 -15.7866 -15.5998 -15.2126 -14.7999 -14.6213 -14.5693 -14.5207
   -13.7176 -13.5588 -13.2768 -12.8904 -12.7498 -12.7278 -12.6904 -11.9569
   -11.8208 -11.7636 -11.6966 -10.8471 -10.6043 -10.4194 -10.3383  -9.9633
    -9.7574  -9.5322  -9.4638  -9.0554  -8.8661  -8.7722  -8.3009  -7.4454
    -7.2705  -7.2311  -7.1960  -7.1552  -7.0787  -6.6567  -6.4606  -5.9543
    -5.7713  -5.5948  -5.5691  -5.5629  -5.5085  -5.1939  -4.9887  -4.9626
    -4.8888  -4.8309  -4.5025  -4.3707  -4.1420  -4.1355  -4.1218  -4.0905
    -4.0639  -4.0492  -3.9984  -3.8396  -3.6780  -3.6699  -3.6639  -3.6549
    -3.5115  -3.5068  -3.4776  -3.3716  -3.3429  -3.2606  -3.2189  -3.1943
    -3.1719  -3.1599  -3.0796  -3.0734  -2.9509  -2.9019  -2.8648  -2.8254
    -2.7854  -2.6931  -2.6076  -2.5666  -2.4758  -2.4655  -2.4496  -2.4121
    -2.2994  -2.2731  -2.2067  -2.1330  -2.0666  -2.0061  -1.9947  -1.8566
    -1.8229  -1.7683  -1.7625  -1.7558  -1.7394  -1.6842  -1.6647  -1.6486
    -1.6367  -1.5677  -1.5459  -1.4975  -1.4647  -1.4641  -1.4614  -1.4588
    -1.4570  -1.4347  -1.4064  -1.3930  -1.3851  -1.3783  -1.3694  -1.3567
    -1.3346  -1.3170  -1.2924  -1.2678  -1.2581  -1.2467  -1.2420  -1.2389
    -1.2307  -1.2270  -1.1933  -1.1890  -1.1722  -1.1632  -1.1605  -1.1548
    -1.1376  -1.0246  -1.0010  -0.9871  -0.9723  -0.9384  -0.9302  -0.9203
    -0.9076  -0.8996  -0.8947  -0.8931  -0.8834  -0.8716  -0.8671  -0.8490
    -0.8472  -0.8422  -0.8370  -0.8241  -0.8063  -0.7974  -0.7943  -0.7877
    -0.7861  -0.7721  -0.7713  -0.7613  -0.7480  -0.7383  -0.7343  -0.7235
    -0.7131  -0.7092  -0.7062  -0.7019  -0.6821  -0.6747  -0.6720  -0.6691
    -0.6586  -0.6564  -0.6518  -0.6439  -0.6422  -0.6401  -0.6389  -0.6372
    -0.6322  -0.6250  -0.6185  -0.6139  -0.6063  -0.5920  -0.5896  -0.5829
    -0.5774  -0.5638  -0.5547  -0.5305  -0.5109  -0.4975  -0.4764  -0.4753
    -0.4613  -0.4568  -0.4410  -0.4284  -0.4272  -0.4168  -0.4083  -0.4052
    -0.4019  -0.3891  -0.3860  -0.3732  -0.2676  -0.2587  -0.2573  -0.2456
    -0.2317  -0.2281  -0.2193  -0.2124  -0.2105  -0.2034  -0.1975  -0.1913
    -0.1860  -0.1831  -0.1798  -0.1745  -0.1655  -0.1510  -0.1471  -0.1435
    -0.1404  -0.1375  -0.1231  -0.1221  -0.1170  -0.1156  -0.1039  -0.0615
    -0.0606  -0.0549  -0.0545  -0.0474  -0.0452  -0.0386  -0.0369  -0.0295
    -0.0117   0.0010   0.0053   0.0164   0.0212   0.0284   0.0349   0.0452
     0.0495   0.0518   0.0565   0.0635   0.0671   0.0690   0.0741   0.0800
     0.0827   0.0863   0.1008   0.1073   0.1146   0.1278   0.1351   0.1446
     0.1458   0.1516   0.1558   0.1593   0.1638   0.1715   0.1731   0.1846
     0.1912   0.1970   0.1991   0.2137   0.2235   0.2291   0.2335   0.2408
     0.2447   0.2728   0.2780   0.2860   0.2944   0.2964   0.2994   0.3148
     0.3182   0.3216   0.3318   0.3343   0.3353   0.3404   0.3435   0.3480
     0.3506   0.3526   0.3554   0.3584   0.3626   0.3686   0.3780   0.3801
     0.3866   0.3899   0.3954   0.4015   0.4072   0.4108   0.4156   0.4218
     0.4256   0.4399   0.4537   0.4576   0.4600   0.4630   0.4677   0.4781
     0.4844   0.4877   0.4909   0.4960   0.5005   0.5035   0.5158   0.5292
     0.5409   0.5625   0.5877   0.5999   0.6084   0.6126   0.6183   0.6216
     0.6256   0.6273   0.6286   0.6305   0.6332   0.6352   0.6381   0.6416
     0.6438   0.6521   0.6533   0.6575   0.6631   0.6660   0.6754   0.6775
     0.6815   0.6842   0.6883   0.7040   0.7078   0.7208   0.7288   0.7390
     0.7469   0.7596   0.7619   0.7665   0.7712   0.7869   0.7934   0.7942
     0.7985   0.8043   0.8182   0.8230   0.8269   0.8282   0.8326   0.8359
     0.8454   0.8461   0.8471   0.8498   0.8566   0.8643   0.8751   0.8792
     0.8836   0.8894   0.8924   0.9001   0.9019   0.9121   0.9227   0.9245
     0.9281   0.9340   0.9359   0.9402   0.9447   0.9475   0.9492   0.9557
     0.9645   0.9667   0.9701   0.9752   0.9784   0.9866   0.9959   1.0065
     1.0086   1.0125   1.0148   1.0175   1.0190   1.0238   1.0341   1.0409
     1.0483   1.0577   1.0751   1.0769   1.0884   1.0917   1.0960   1.0995
     1.1018   1.1113   1.1219   1.1233   1.1256   1.1295   1.1343   1.1363
     1.1423   1.1447   1.1486   1.1528   1.1667   1.1755   1.1779   1.1939
     1.1949   1.2001   1.2051   1.2132   1.2154   1.2283   1.2299   1.2393
     1.2417   1.2451   1.2489   1.2518   1.2531   1.2567   1.2604   1.2638
     1.2675   1.2831   1.2903   1.2929   1.3001   1.3046   1.3084   1.3202
     1.3270   1.3345   1.3371   1.3394   1.3434   1.3494   1.3526   1.3575
     1.3612   1.3649   1.3676   1.3684   1.3696   1.3752   1.3785   1.3810
     1.3838   1.3858   1.3900   1.3944   1.3980   1.4014   1.4057   1.4109
     1.4141   1.4175   1.4196   1.4208   1.4261   1.4279   1.4368   1.4390
     1.4474   1.4561   1.4575   1.4625   1.4693   1.4714   1.4753   1.4810
     1.4859   1.4874   1.4921   1.4975   1.5000   1.5051   1.5117   1.5151
     1.5170   1.5275   1.5349   1.5374   1.5407   1.5454   1.5476   1.5685
     1.5727   1.5877   1.5889   1.5938   1.5952   1.6001   1.6046   1.6094
     1.6102   1.6132   1.6158   1.6198   1.6253   1.6272   1.6290   1.6318
     1.6434   1.6457   1.6472   1.6556   1.6590   1.6614   1.6646   1.6665
     1.6678   1.6697   1.6719   1.6741   1.6783   1.6829   1.6844   1.6876
     1.6977   1.7028   1.7045   1.7068   1.7095   1.7127   1.7156   1.7163
     1.7229   1.7303   1.7331   1.7344   1.7548   1.7566   1.7655   1.7677
     1.7709   1.7731   1.7739   1.7770   1.7777   1.7854   1.7863   1.7896
     1.7926   1.7933   1.7957   1.7977   1.8087   1.8107   1.8159   1.8174
     1.8182   1.8201   1.8248   1.8345   1.8396   1.8430   1.8456   1.8513
     1.8583   1.8592   1.8618   1.8660   1.8677   1.8735   1.9024   1.9042
     1.9145   1.9233   1.9378   1.9759   1.9800   1.9843   1.9912   1.9947
     2.0101   2.0813   2.1016   2.1102   2.1141   2.1208   2.1407   2.1482
     2.1888   2.2880   2.3772   2.3976   2.4113   2.4278   2.4293   2.4346
     2.5439   2.5795   2.5863   2.9010   2.9062   2.9132   2.9352   3.3167
     3.3248   3.3438   3.5362   3.5469   3.5640   3.5646   3.5979   3.6097
     3.7423   3.8065   3.9075   3.9086   3.9607   3.9692   4.0207   4.0348
     4.0477   4.0625   4.0732   4.1412   4.2077   4.2170   4.2859   4.2978
     4.3570   4.4619   4.4942   4.5096   4.6295   4.6550   4.7039   4.8847
     5.0329   5.1521   5.1671   5.3669   5.4513   5.5502   5.5536   5.5764
     5.5915   5.6878   5.7880   5.7953   5.8470   5.8636   5.8938   5.8987
     5.9416   5.9728   6.0309   6.0532   6.0832   6.1161   6.1298   6.1382
     6.3418   6.3549   6.3674   6.4008   6.7535   6.9048   7.0029   7.0186
     7.0246   7.0561   7.0892   7.1214   7.1426   7.2537   7.3530   7.3623
     7.3754   7.3844   7.4129   7.4661   7.5171   7.5342   7.5944   7.6289
     7.7355   7.7891   7.8087   7.8923   7.9107   7.9750   7.9959   8.0229
     8.0365   8.0987   8.1434   8.3320   8.3439   8.3674   8.3981   8.4350
     8.5226   8.5489   8.5773   8.6484   8.6653   8.6682   8.6688   8.6957
     8.7125   8.7875   8.8139   8.9382   8.9817   8.9991   9.1972   9.2213
     9.3590   9.3910   9.4020   9.4389   9.4595   9.4670   9.4754   9.5016
     9.5079   9.5171   9.5377   9.5415   9.5746   9.5884   9.5951   9.7318
     9.7427   9.8133   9.8207   9.9621  10.0597  10.0623  10.0638  10.0776

          k = 0.2500-0.2165 0.0000 (256316 PWs)   bands (ev):

   -16.5326 -15.8483 -15.4604 -15.1524 -15.0472 -14.8616 -14.3421 -14.1761
   -13.8515 -13.7157 -13.2376 -12.9355 -12.8577 -12.7654 -12.3956 -12.2776
   -11.7582 -11.6217 -11.0991 -11.0181 -10.8569 -10.7394 -10.4969 -10.2944
    -9.4561  -9.3188  -8.9602  -8.8046  -8.7432  -8.6877  -8.2352  -8.2011
    -8.0786  -8.0510  -6.7065  -6.4376  -6.3129  -6.2918  -6.2243  -6.1253
    -6.0404  -5.9583  -5.6904  -5.6439  -5.3909  -5.3734  -5.2306  -4.8494
    -4.8065  -4.5505  -4.5102  -4.4829  -4.3601  -4.3448  -4.2568  -4.0173
    -4.0084  -3.9977  -3.9613  -3.9115  -3.8283  -3.8072  -3.7650  -3.6305
    -3.5534  -3.4180  -3.4087  -3.3043  -3.2443  -3.2113  -3.1604  -3.1294
    -3.1187  -3.1103  -2.9394  -2.8974  -2.8914  -2.8209  -2.7983  -2.7246
    -2.6311  -2.6028  -2.5941  -2.5728  -2.5701  -2.5582  -2.5173  -2.4690
    -2.3084  -2.2775  -2.2571  -2.1603  -2.0062  -1.9850  -1.9783  -1.9170
    -1.8505  -1.8451  -1.8324  -1.8213  -1.7516  -1.6761  -1.6705  -1.6684
    -1.6369  -1.6304  -1.6215  -1.5823  -1.4973  -1.4879  -1.4852  -1.4784
    -1.4775  -1.4250  -1.4164  -1.4084  -1.3818  -1.3797  -1.3731  -1.3678
    -1.3617  -1.3567  -1.3403  -1.3387  -1.3364  -1.3341  -1.3260  -1.3134
    -1.2499  -1.2413  -1.1927  -1.1313  -1.1215  -1.0352  -1.0266  -1.0161
    -1.0065  -0.9880  -0.9806  -0.9472  -0.9408  -0.9357  -0.9279  -0.9251
    -0.9123  -0.9077  -0.8962  -0.8930  -0.8876  -0.8837  -0.8782  -0.8717
    -0.8683  -0.8644  -0.8601  -0.8571  -0.8425  -0.8340  -0.8166  -0.7943
    -0.7922  -0.7901  -0.7875  -0.7820  -0.7796  -0.7716  -0.7682  -0.7488
    -0.7396  -0.7325  -0.7012  -0.6990  -0.6938  -0.6899  -0.6819  -0.6798
    -0.6580  -0.6571  -0.6352  -0.6247  -0.6223  -0.6143  -0.6122  -0.6070
    -0.6054  -0.5906  -0.5859  -0.5781  -0.5716  -0.5566  -0.5429  -0.5302
    -0.5275  -0.5207  -0.5189  -0.5166  -0.4974  -0.4791  -0.4429  -0.4348
    -0.4306  -0.4286  -0.4197  -0.4185  -0.3844  -0.3800  -0.3758  -0.3694
    -0.3657  -0.3638  -0.3586  -0.3485  -0.3331  -0.3250  -0.3045  -0.3012
    -0.2735  -0.2646  -0.2346  -0.2292  -0.2260  -0.2209  -0.2175  -0.2154
    -0.1885  -0.1837  -0.1750  -0.1677  -0.1638  -0.1508  -0.1469  -0.1435
    -0.1326  -0.1180  -0.1163  -0.1132  -0.1098  -0.1006  -0.0961  -0.0925
    -0.0664  -0.0626  -0.0594  -0.0543  -0.0480  -0.0416  -0.0329  -0.0311
    -0.0231  -0.0218  -0.0200  -0.0175  -0.0105  -0.0053   0.0015   0.0049
     0.0139   0.0169   0.0301   0.0399   0.0459   0.0561   0.0732   0.0767
     0.0861   0.0894   0.1016   0.1043   0.1127   0.1138   0.1238   0.1300
     0.1358   0.1395   0.1637   0.1734   0.1899   0.1933   0.2042   0.2245
     0.2321   0.2375   0.2396   0.2471   0.2490   0.2521   0.2573   0.2677
     0.2765   0.2813   0.2821   0.2867   0.2916   0.2963   0.2999   0.3013
     0.3087   0.3129   0.3233   0.3277   0.3334   0.3359   0.3393   0.3408
     0.3435   0.3489   0.3513   0.3535   0.3586   0.3607   0.3663   0.3755
     0.3775   0.3838   0.3991   0.4072   0.4149   0.4177   0.4215   0.4249
     0.4314   0.4380   0.4482   0.4518   0.4651   0.4705   0.4744   0.4794
     0.4863   0.4877   0.4994   0.5018   0.5092   0.5113   0.5176   0.5212
     0.5252   0.5269   0.5542   0.5598   0.5842   0.6001   0.6216   0.6235
     0.6260   0.6278   0.6344   0.6358   0.6380   0.6418   0.6438   0.6506
     0.6548   0.6599   0.6670   0.6706   0.6725   0.6762   0.6787   0.6813
     0.6853   0.6947   0.7113   0.7177   0.7310   0.7352   0.7389   0.7479
     0.7513   0.7553   0.7678   0.7836   0.7853   0.7934   0.7987   0.7998
     0.8080   0.8111   0.8145   0.8173   0.8238   0.8253   0.8295   0.8315
     0.8364   0.8378   0.8520   0.8587   0.8642   0.8714   0.8774   0.8856
     0.8891   0.8955   0.9077   0.9176   0.9199   0.9207   0.9399   0.9470
     0.9508   0.9533   0.9604   0.9620   0.9693   0.9711   0.9751   0.9762
     0.9794   0.9814   0.9911   0.9941   1.0001   1.0072   1.0078   1.0118
     1.0160   1.0174   1.0199   1.0226   1.0269   1.0319   1.0347   1.0396
     1.0415   1.0444   1.0494   1.0537   1.0557   1.0613   1.0682   1.0688
     1.0731   1.0749   1.0758   1.0844   1.1068   1.1087   1.1167   1.1176
     1.1422   1.1508   1.1554   1.1571   1.1740   1.1763   1.1786   1.1809
     1.1842   1.1871   1.1967   1.2018   1.2031   1.2044   1.2066   1.2083
     1.2108   1.2194   1.2242   1.2278   1.2353   1.2400   1.2460   1.2501
     1.2541   1.2585   1.2672   1.2773   1.2840   1.2869   1.2922   1.3008
     1.3040   1.3126   1.3149   1.3215   1.3233   1.3267   1.3291   1.3391
     1.3487   1.3532   1.3600   1.3642   1.3691   1.3785   1.3851   1.3904
     1.4026   1.4111   1.4176   1.4219   1.4313   1.4329   1.4368   1.4378
     1.4402   1.4405   1.4417   1.4446   1.4467   1.4480   1.4555   1.4600
     1.4659   1.4696   1.4709   1.4748   1.4892   1.4902   1.5086   1.5143
     1.5155   1.5199   1.5219   1.5249   1.5277   1.5313   1.5344   1.5368
     1.5393   1.5422   1.5442   1.5453   1.5489   1.5508   1.5543   1.5557
     1.5584   1.5608   1.5637   1.5669   1.5726   1.5737   1.5776   1.5827
     1.5873   1.5907   1.6003   1.6042   1.6201   1.6216   1.6279   1.6311
     1.6371   1.6415   1.6437   1.6463   1.6574   1.6613   1.6616   1.6658
     1.6692   1.6716   1.6814   1.6820   1.6866   1.6919   1.6953   1.6979
     1.7002   1.7020   1.7072   1.7097   1.7137   1.7217   1.7275   1.7309
     1.7333   1.7363   1.7388   1.7418   1.7453   1.7471   1.7543   1.7553
     1.7593   1.7602   1.7630   1.7672   1.7750   1.7760   1.7826   1.7840
     1.7883   1.7889   1.7897   1.7913   1.7938   1.7964   1.8000   1.8016
     1.8066   1.8116   1.8302   1.8327   1.8394   1.8416   1.8469   1.8509
     1.8647   1.8702   1.8762   1.8832   1.8866   1.9031   1.9055   1.9103
     1.9136   1.9258   1.9338   1.9438   1.9583   1.9927   2.0077   2.0093
     2.0648   2.0937   2.1046   2.1119   2.1135   2.1303   2.1316   2.1350
     2.1379   2.1516   2.1694   2.1810   2.4735   2.4763   2.5051   2.5088
     2.6312   2.6437   2.9289   2.9305   3.1197   3.1241   3.1265   3.1309
     3.1460   3.1480   3.1596   3.1634   3.3241   3.3370   3.3989   3.4148
     3.8747   3.8754   3.9089   3.9271   3.9385   3.9790   4.1247   4.1769
     4.1809   4.1905   4.2122   4.3212   4.3348   4.4073   4.4285   4.4986
     4.5066   4.6277   4.7121   4.7157   4.8025   4.8651   4.8758   4.8945
     4.9831   5.0163   5.0335   5.0441   5.1735   5.2240   5.3005   5.3243
     5.3906   5.4437   5.5304   5.5898   5.7283   5.7585   5.7760   5.7855
     5.8154   5.8294   6.0719   6.0938   6.1177   6.1774   6.2079   6.2614
     6.2857   6.3117   6.8660   6.8828   6.9144   6.9496   7.0406   7.0622
     7.1063   7.1655   7.1885   7.2785   7.3069   7.3358   7.3839   7.4064
     7.4252   7.4370   7.4951   7.5514   7.5729   7.5802   7.6321   7.6419
     7.6673   7.6796   7.6903   7.7056   7.7568   7.7638   7.9720   7.9835
     8.1052   8.1244   8.2400   8.2681   8.2722   8.2781   8.5143   8.5241
     8.5557   8.5677   8.5899   8.6171   8.6282   8.6955   8.8781   8.9076
     8.9360   8.9526   8.9672   8.9819   9.0063   9.0388   9.0581   9.0749
     9.1650   9.1845   9.2763   9.2860   9.3239   9.3244   9.3933   9.4314
     9.4572   9.5062   9.5271   9.5494   9.5660   9.5959   9.6030   9.6323
     9.6625   9.6733   9.6773   9.6860   9.7282   9.7627   9.9384  10.0137

          k =-0.5000 0.0000 0.0000 (256496 PWs)   bands (ev):

   -16.4381 -15.6140 -15.4137 -15.2487 -15.2443 -15.2144 -14.4219 -14.1940
   -14.1446 -14.1268 -12.7711 -12.4323 -12.3697 -12.3493 -11.9866 -11.8998
   -11.5710 -11.5298 -11.4475 -11.4418 -10.8907 -10.8402 -10.5662 -10.3848
    -9.9190  -9.8648  -9.5093  -9.4013  -8.7891  -8.6520  -8.5814  -8.5790
    -7.3426  -7.1299  -7.1170  -7.0440  -7.0088  -6.9837  -5.6951  -5.6065
    -5.4370  -4.9860  -4.9779  -4.9402  -4.8146  -4.5415  -4.4844  -4.4762
    -4.4702  -4.4532  -4.4376  -4.4127  -4.4061  -4.3874  -4.3741  -4.3315
    -4.3159  -4.1326  -4.1094  -4.1007  -4.0384  -4.0234  -3.9725  -3.6967
    -3.6778  -3.6665  -3.6490  -3.6201  -3.3454  -3.2451  -3.2405  -3.2280
    -3.1680  -3.1204  -3.0970  -3.0913  -3.0796  -3.0734  -3.0612  -3.0364
    -3.0143  -3.0106  -2.6555  -2.5111  -2.4717  -2.4518  -2.4441  -2.4311
    -2.4297  -2.4084  -2.2828  -2.2588  -2.2257  -2.1359  -2.1183  -2.0987
    -1.9831  -1.9720  -1.9701  -1.9286  -1.5576  -1.5470  -1.5441  -1.5414
    -1.5396  -1.5352  -1.4477  -1.4263  -1.4203  -1.4147  -1.3996  -1.3299
    -1.3179  -1.3158  -1.3042  -1.2981  -1.2753  -1.2677  -1.2638  -1.2565
    -1.2351  -1.1829  -1.1533  -1.1501  -1.1440  -1.1407  -1.1292  -1.1021
    -1.0922  -1.0901  -1.0864  -1.0788  -1.0708  -1.0654  -1.0239  -1.0193
    -1.0184  -1.0137  -1.0099  -1.0090  -1.0031  -0.9983  -0.9890  -0.9796
    -0.9571  -0.9537  -0.9526  -0.9452  -0.9388  -0.9338  -0.9229  -0.9127
    -0.9016  -0.8698  -0.8621  -0.8507  -0.8440  -0.8389  -0.8336  -0.8194
    -0.8161  -0.8131  -0.8113  -0.8087  -0.7920  -0.7872  -0.7743  -0.7664
    -0.7644  -0.7489  -0.7450  -0.7387  -0.7360  -0.7197  -0.7121  -0.6886
    -0.6684  -0.6529  -0.6523  -0.6454  -0.6427  -0.6393  -0.6381  -0.6181
    -0.6143  -0.6080  -0.6074  -0.6045  -0.6008  -0.5918  -0.5892  -0.5845
    -0.5841  -0.5754  -0.5573  -0.5533  -0.5454  -0.4985  -0.4929  -0.4839
    -0.4693  -0.4527  -0.4401  -0.3799  -0.3764  -0.3742  -0.3726  -0.3595
    -0.3394  -0.3374  -0.3318  -0.3306  -0.3250  -0.3160  -0.3101  -0.3008
    -0.2926  -0.2831  -0.2798  -0.2742  -0.2711  -0.2687  -0.2619  -0.2568
    -0.2531  -0.2484  -0.2247  -0.1856  -0.1713  -0.1693  -0.1463  -0.1417
    -0.1300  -0.1128  -0.0974  -0.0936  -0.0890  -0.0747  -0.0736  -0.0644
    -0.0628  -0.0586  -0.0469  -0.0358  -0.0322  -0.0280  -0.0259  -0.0242
    -0.0213  -0.0195   0.0093   0.0144   0.0252   0.0347   0.0419   0.0435
     0.0477   0.0527   0.0566   0.0585   0.0833   0.0882   0.0910   0.0922
     0.0946   0.0982   0.1030   0.1108   0.1277   0.1295   0.1421   0.1466
     0.2003   0.2061   0.2093   0.2109   0.2139   0.2166   0.2209   0.2315
     0.2358   0.2456   0.2501   0.2684   0.2734   0.2818   0.2848   0.2985
     0.3136   0.3139   0.3211   0.3227   0.3272   0.3282   0.3303   0.3328
     0.3338   0.3437   0.3453   0.3511   0.3538   0.3896   0.3911   0.3937
     0.3984   0.4009   0.4084   0.4135   0.4152   0.4187   0.4224   0.4247
     0.4273   0.4315   0.4332   0.4350   0.4460   0.4532   0.4539   0.4554
     0.4634   0.4636   0.4662   0.4670   0.4675   0.4691   0.4707   0.4758
     0.4778   0.4790   0.4895   0.4924   0.4978   0.4987   0.5026   0.5034
     0.5068   0.5139   0.5267   0.5319   0.5355   0.5452   0.5858   0.5934
     0.6062   0.6129   0.6417   0.6513   0.6543   0.6581   0.6634   0.6649
     0.6785   0.6819   0.6823   0.6871   0.6880   0.6924   0.6942   0.6948
     0.6949   0.6965   0.6977   0.7012   0.7026   0.7053   0.7096   0.7142
     0.7146   0.7196   0.7207   0.7307   0.7330   0.7396   0.7415   0.7446
     0.7557   0.7622   0.7690   0.7828   0.8192   0.8314   0.8362   0.8408
     0.8449   0.8539   0.8581   0.8601   0.8710   0.8740   0.8758   0.8768
     0.8787   0.8801   0.8832   0.8865   0.8868   0.8885   0.8925   0.8944
     0.8954   0.8998   0.9008   0.9035   0.9095   0.9199   0.9216   0.9336
     0.9402   0.9497   0.9588   0.9612   0.9642   0.9673   0.9730   0.9754
     0.9792   0.9818   0.9837   0.9859   0.9869   0.9952   0.9991   1.0024
     1.0049   1.0072   1.0129   1.0191   1.0217   1.0271   1.0466   1.0533
     1.0587   1.0629   1.0653   1.0686   1.0728   1.0773   1.0803   1.1038
     1.1065   1.1156   1.1203   1.1287   1.1404   1.1444   1.1589   1.1766
     1.1816   1.1843   1.1872   1.1886   1.1895   1.1908   1.1911   1.1930
     1.1995   1.2048   1.2063   1.2114   1.2165   1.2171   1.2220   1.2347
     1.2353   1.2427   1.2444   1.2489   1.2562   1.2581   1.2606   1.2640
     1.2675   1.2715   1.2885   1.2930   1.2970   1.2979   1.3003   1.3430
     1.3575   1.3643   1.3675   1.3709   1.3839   1.3931   1.3959   1.4011
     1.4034   1.4054   1.4121   1.4221   1.4263   1.4284   1.4326   1.4335
     1.4383   1.4409   1.4550   1.4617   1.4647   1.4669   1.4673   1.4708
     1.4737   1.4745   1.4769   1.4812   1.4849   1.4858   1.4880   1.4903
     1.4941   1.4957   1.4994   1.5012   1.5167   1.5218   1.5242   1.5271
     1.5362   1.5466   1.5520   1.5565   1.5609   1.5642   1.5663   1.5687
     1.5765   1.5824   1.5883   1.5897   1.5927   1.5939   1.5951   1.5988
     1.6003   1.6014   1.6047   1.6087   1.6121   1.6158   1.6203   1.6245
     1.6504   1.6567   1.6596   1.6622   1.6649   1.6664   1.6675   1.6678
     1.6703   1.6714   1.6748   1.6757   1.6777   1.6810   1.6830   1.6837
     1.6847   1.6867   1.6885   1.6913   1.6914   1.6935   1.6975   1.7000
     1.7019   1.7023   1.7159   1.7223   1.7251   1.7272   1.7291   1.7316
     1.7414   1.7428   1.7458   1.7511   1.7616   1.7633   1.7675   1.7723
     1.7781   1.7789   1.7818   1.7861   1.7908   1.7955   1.7982   1.7990
     1.8024   1.8141   1.8157   1.8168   1.8187   1.8214   1.8253   1.8285
     1.8304   1.8357   1.8381   1.8415   1.8492   1.8552   1.8630   1.8661
     1.8665   1.8668   1.8732   1.8753   1.8772   1.8970   1.9252   1.9379
     1.9510   1.9580   1.9609   1.9634   1.9702   1.9836   2.3678   2.3697
     2.3719   2.3755   2.5717   2.5783   2.5844   2.5888   2.6332   2.6335
     2.6393   2.6398   2.9346   2.9404   2.9439   2.9557   3.1692   3.1761
     3.1859   3.1907   3.5124   3.5289   3.5325   3.5411   3.8180   3.8248
     4.0647   4.0665   4.0831   4.0937   4.2397   4.2504   4.2617   4.2736
     4.3019   4.3990   4.4177   4.4277   4.4440   4.4774   4.4855   4.6382
     4.7281   4.8076   4.9897   5.0280   5.0494   5.0667   5.1180   5.1561
     5.1732   5.1906   5.2485   5.3554   5.3598   5.3678   5.3713   5.3817
     5.3867   5.3912   5.4084   5.4196   5.4322   5.4390   5.4694   5.4877
     5.8077   5.8407   5.8631   5.8948   5.9139   5.9576   6.0621   6.1258
     6.3039   6.3154   6.3318   6.3392   6.3460   6.3498   6.3598   6.3727
     6.5846   6.6567   6.7011   6.7329   6.7363   6.7457   6.7669   6.7869
     7.3990   7.4160   7.4305   7.4343   7.4431   7.4689   7.8544   7.8814
     7.9145   7.9244   7.9287   7.9367   7.9463   7.9542   7.9733   7.9892
     8.1440   8.1543   8.2015   8.2104   8.2136   8.2161   8.3338   8.3407
     8.3705   8.3830   8.3847   8.4225   8.4351   8.4584   8.4741   8.4912
     8.4957   8.5013   8.6669   8.6699   9.1138   9.1450   9.1542   9.1811
     9.1886   9.1902   9.1931   9.1942   9.2781   9.3802   9.3871   9.4038
     9.4173   9.4407   9.4780   9.5835   9.6225   9.6442   9.7048   9.7601
     9.7786   9.8369   9.8544   9.8565   9.8717   9.8783   9.9163   9.9217

          k =-0.5000-0.2165 0.0000 (256328 PWs)   bands (ev):

   -16.4376 -15.5567 -15.4820 -15.4720 -15.0270 -14.8091 -14.7873 -14.7586
   -13.6510 -13.3965 -13.3348 -13.3188 -12.1669 -11.8877 -11.6641 -11.6631
   -11.5036 -11.3276 -11.2767 -11.2524 -11.1681 -11.1520 -11.0668 -11.0615
    -9.6366  -9.4931  -9.3828  -9.3758  -8.5734  -8.5449  -8.4355  -8.3950
    -7.8734  -7.7499  -7.6563  -7.6536  -5.9285  -5.6836  -5.6177  -5.5798
    -5.3630  -5.0834  -5.0115  -4.9509  -4.9252  -4.8841  -4.8572  -4.8502
    -4.8467  -4.8231  -4.7276  -4.6823  -4.6749  -4.0273  -4.0118  -4.0031
    -3.9933  -3.9130  -3.8774  -3.8733  -3.8695  -3.8646  -3.8613  -3.8527
    -3.7211  -3.5789  -3.5444  -3.5368  -3.4760  -3.4250  -3.3670  -3.3452
    -3.3227  -3.3047  -3.2821  -3.2748  -3.2671  -3.1372  -3.1271  -3.1073
    -2.8225  -2.7486  -2.7424  -2.7247  -2.2641  -2.2526  -2.2486  -2.2398
    -2.2079  -2.1938  -2.1885  -2.1652  -2.1197  -2.0569  -2.0392  -1.9809
    -1.8573  -1.7663  -1.7652  -1.7611  -1.7471  -1.7173  -1.6928  -1.6854
    -1.6835  -1.6748  -1.6734  -1.6658  -1.6077  -1.4722  -1.4676  -1.4670
    -1.4583  -1.4185  -1.3960  -1.3822  -1.2281  -1.1805  -1.1723  -1.1670
    -1.1663  -1.1565  -1.1546  -1.1518  -1.1423  -1.1205  -1.1122  -1.1006
    -1.0973  -1.0929  -1.0921  -1.0737  -1.0581  -1.0549  -1.0490  -1.0459
    -1.0417  -1.0414  -1.0369  -1.0252  -1.0251  -1.0230  -1.0224  -1.0188
    -0.9705  -0.9675  -0.9584  -0.9507  -0.8970  -0.8941  -0.8876  -0.8831
    -0.8606  -0.8524  -0.8503  -0.8469  -0.8410  -0.8357  -0.8230  -0.8158
    -0.8100  -0.7853  -0.7834  -0.7815  -0.7786  -0.7775  -0.7746  -0.7735
    -0.7702  -0.7681  -0.7548  -0.7464  -0.7409  -0.7240  -0.7150  -0.7127
    -0.7118  -0.7076  -0.7072  -0.7008  -0.6982  -0.6961  -0.6953  -0.6920
    -0.6897  -0.6812  -0.6706  -0.6554  -0.5472  -0.5401  -0.5369  -0.5220
    -0.5158  -0.5144  -0.5136  -0.5076  -0.4616  -0.4431  -0.4366  -0.4276
    -0.4226  -0.4210  -0.4201  -0.4177  -0.4165  -0.4037  -0.3964  -0.3920
    -0.3689  -0.3618  -0.3603  -0.3567  -0.3493  -0.3434  -0.3355  -0.3308
    -0.3255  -0.3209  -0.3171  -0.2950  -0.2624  -0.2349  -0.2281  -0.2278
    -0.2239  -0.2163  -0.2145  -0.2106  -0.1619  -0.1565  -0.1443  -0.1397
    -0.1280  -0.1072  -0.1058  -0.0992  -0.0980  -0.0867  -0.0848  -0.0778
    -0.0674  -0.0634  -0.0584  -0.0506  -0.0488  -0.0458  -0.0412  -0.0373
    -0.0299  -0.0192  -0.0162   0.0127   0.0595   0.0645   0.0680   0.0713
     0.0781   0.0852   0.0876   0.0900   0.0916   0.0987   0.1038   0.1084
     0.1401   0.1745   0.1760   0.1800   0.1835   0.1891   0.1901   0.1951
     0.1967   0.1989   0.2006   0.2097   0.2109   0.2327   0.2367   0.2377
     0.2400   0.2442   0.2446   0.2468   0.2503   0.2555   0.2595   0.2609
     0.2698   0.2728   0.3103   0.3164   0.3215   0.3280   0.3346   0.3426
     0.3470   0.3573   0.3728   0.3834   0.3876   0.3908   0.4032   0.4085
     0.4144   0.4181   0.4209   0.4255   0.4281   0.4325   0.4332   0.4338
     0.4386   0.4408   0.4448   0.4480   0.4501   0.4550   0.4559   0.4569
     0.4575   0.4580   0.4595   0.4703   0.4704   0.4748   0.4820   0.4874
     0.4936   0.5004   0.5008   0.5021   0.5053   0.5093   0.5124   0.5206
     0.5302   0.5415   0.5566   0.5600   0.5677   0.5729   0.5757   0.5825
     0.5933   0.6005   0.6100   0.6355   0.6376   0.6519   0.6602   0.6647
     0.6704   0.6759   0.6814   0.6841   0.6882   0.6883   0.6916   0.6951
     0.6972   0.7025   0.7054   0.7059   0.7108   0.7116   0.7130   0.7152
     0.7188   0.7202   0.7239   0.7268   0.7281   0.7345   0.7375   0.7404
     0.7760   0.7851   0.7934   0.8003   0.8059   0.8127   0.8158   0.8173
     0.8231   0.8254   0.8278   0.8352   0.8421   0.8511   0.8547   0.8559
     0.8611   0.8639   0.8678   0.8702   0.8726   0.8877   0.8970   0.9019
     0.9077   0.9086   0.9125   0.9149   0.9186   0.9202   0.9228   0.9248
     0.9270   0.9305   0.9319   0.9343   0.9375   0.9410   0.9463   0.9504
     0.9576   0.9598   0.9828   0.9914   1.0048   1.0126   1.0225   1.0265
     1.0287   1.0312   1.0340   1.0387   1.0390   1.0412   1.0434   1.0463
     1.0517   1.0540   1.0572   1.0679   1.0729   1.0761   1.0773   1.0784
     1.0800   1.0835   1.0870   1.1011   1.1251   1.1260   1.1310   1.1359
     1.1365   1.1551   1.1625   1.1665   1.1705   1.1721   1.1750   1.1806
     1.1955   1.1982   1.2007   1.2028   1.2220   1.2238   1.2252   1.2281
     1.2619   1.2698   1.2833   1.2939   1.3043   1.3125   1.3149   1.3206
     1.3477   1.3526   1.3625   1.3637   1.3656   1.3701   1.3742   1.3781
     1.3799   1.3840   1.3866   1.3872   1.3925   1.3960   1.3970   1.3982
     1.3992   1.3997   1.4016   1.4033   1.4054   1.4116   1.4147   1.4175
     1.4185   1.4215   1.4297   1.4311   1.4353   1.4362   1.4393   1.4444
     1.4461   1.4480   1.4552   1.4573   1.4682   1.4706   1.4714   1.4734
     1.4783   1.4791   1.4837   1.4855   1.4892   1.4906   1.4926   1.4952
     1.5369   1.5405   1.5416   1.5425   1.5455   1.5471   1.5528   1.5579
     1.5670   1.5698   1.5737   1.5791   1.5804   1.5868   1.5892   1.5909
     1.5934   1.5961   1.6026   1.6085   1.6189   1.6210   1.6236   1.6257
     1.6278   1.6315   1.6330   1.6359   1.6399   1.6412   1.6425   1.6474
     1.6941   1.6968   1.6992   1.7029   1.7043   1.7045   1.7048   1.7073
[...]
     atom   61 type  1   force =    -0.00041198   -0.00001460    0.00008525
     atom   62 type  1   force =     0.00014558    0.00028217    0.00022526
     atom   63 type  1   force =     0.00070507   -0.00028207    0.00031273
     atom   64 type  1   force =     0.00003320    0.00038916    0.00013878
     atom   65 type  1   force =     0.00200549   -0.00153667    0.00046979
     atom   66 type  1   force =    -0.00139515    0.00087311    0.00102258
     atom   67 type  1   force =     0.00001870   -0.00001010   -0.00108357
     atom   68 type  1   force =    -0.00093799    0.00079498   -0.00077677
     atom   69 type  1   force =     0.00164965    0.00130838   -0.00002630
     atom   70 type  1   force =    -0.00082978    0.00019774   -0.00464448
     atom   71 type  1   force =     0.00006598   -0.00003807   -0.00103124
     atom   72 type  1   force =    -0.00227775    0.00010623    0.00247894
     atom   73 type  1   force =    -0.00065921    0.00015044   -0.00009009
     atom   74 type  1   force =    -0.00161447   -0.00072064    0.00072152
     atom   75 type  1   force =     0.00048080    0.00041441    0.00017942
     atom   76 type  1   force =    -0.00107429   -0.00006718   -0.00087698
     atom   77 type  1   force =    -0.00002555   -0.00005673   -0.00027970
     atom   78 type  1   force =     0.00004253   -0.00039458    0.00027287
     atom   79 type  1   force =     0.00025977    0.00007852    0.00018768
     atom   80 type  1   force =    -0.00004281   -0.00024070    0.00004486
     atom   81 type  1   force =     0.00001088    0.00008356   -0.00027438
     atom   82 type  1   force =    -0.00044177    0.00148283    0.00018155
     atom   83 type  1   force =     0.00035406    0.00104328   -0.00030643
     atom   84 type  1   force =     0.00025738   -0.00143680    0.00094099
     atom   85 type  1   force =    -0.00021858   -0.00152411    0.00051404
     atom   86 type  1   force =     0.00186268    0.00119273    0.00486608
     atom   87 type  1   force =    -0.00040906   -0.00101262    0.00006120
     atom   88 type  1   force =     0.00000116    0.00134388    0.00024822
     atom   89 type  1   force =    -0.00300446    0.00015710    0.00128855
     atom   90 type  1   force =     0.00023567    0.00122038    0.00090838
     atom   91 type  1   force =    -0.00040872   -0.00137133    0.00083386
     atom   92 type  1   force =    -0.00022349   -0.00080517    0.00043381
     atom   93 type  1   force =    -0.00097290    0.00152213    0.00041850
     atom   94 type  1   force =    -0.00068444   -0.00170828    0.00035061
     atom   95 type  1   force =    -0.00022118    0.00063743    0.00023709
     atom   96 type  1   force =    -0.00033613    0.00184317    0.00064827
     atom   97 type  1   force =     0.00017662   -0.00037243   -0.00035472
     atom   98 type  1   force =    -0.00011138    0.00031367   -0.00050882
     atom   99 type  1   force =    -0.00034225   -0.00100675   -0.00053541
     atom  100 type  1   force =     0.00012298   -0.00000336   -0.00054778
     atom  101 type  2   force =     0.00089039   -0.00298172    0.00108112
     atom  102 type  2   force =    -0.00150881    0.00083942    0.00419771
     atom  103 type  2   force =     0.00248093   -0.00189470    0.00239554
     atom  104 type  2   force =     0.00095327    0.00017015    0.00074872
     atom  105 type  2   force =    -0.00056284   -0.00052583   -0.00215880
     atom  106 type  2   force =     0.00004465    0.00317592   -0.00397111
     atom  107 type  2   force =    -0.00222766   -0.00130306    0.00260699
     atom  108 type  2   force =     0.00249081    0.00171546    0.00184114
     atom  109 type  2   force =    -0.00071348   -0.00008710    0.00127576
     atom  110 type  2   force =    -0.00023025    0.00277418    0.00152443
     atom  111 type  2   force =    -0.00187284    0.00233553   -0.00083868
     atom  112 type  2   force =     0.00220478   -0.00098392   -0.00107872
     atom  113 type  2   force =    -0.00100683   -0.00023035   -0.00121423
     atom  114 type  2   force =    -0.00586282    0.00316299   -0.00350838
     atom  115 type  2   force =    -0.00337052   -0.00083997   -0.00050838
     atom  116 type  2   force =    -0.00813833   -0.00324198   -0.00196210
     atom  117 type  2   force =     0.00123741   -0.00176638   -0.00134836
     atom  118 type  2   force =     0.00008001    0.00037538    0.02412096
     atom  119 type  2   force =     0.00576280   -0.00019196    0.00210454
     atom  120 type  2   force =     0.00510317   -0.00381358   -0.01086452
     atom  121 type  3   force =     0.00161464    0.00083698   -0.02025697
     atom  122 type  2   force =     0.00276143   -0.00000103    0.00340515
     atom  123 type  2   force =     0.00239382    0.00361050    0.00381765
     atom  124 type  2   force =    -0.00037602    0.00207929   -0.00469197
     atom  125 type  2   force =    -0.00072849   -0.00404847   -0.00395825
     atom  126 type  2   force =     0.00236274   -0.00173048    0.00064614
     atom  127 type  2   force =    -0.00048803   -0.00294964    0.00153928
     atom  128 type  2   force =    -0.00183719    0.00480328   -0.00032392
     atom  129 type  2   force =    -0.00000949    0.00285996   -0.00005640
     atom  130 type  2   force =     0.00171997    0.00248136   -0.00142526
     atom  131 type  2   force =    -0.00069345    0.00057998   -0.00882537
     atom  132 type  2   force =     0.00156976    0.00427293    0.00716782
     atom  133 type  2   force =     0.00460628    0.00293211    0.00126052
     atom  134 type  2   force =     0.00383861   -0.00230387    0.00412506
     atom  135 type  2   force =    -0.00247911   -0.00319930    0.00295994
     atom  136 type  2   force =    -0.00236219    0.00067407   -0.01457223
     atom  137 type  2   force =     0.00223154   -0.00188930    0.00366938
     atom  138 type  2   force =    -0.00255555    0.00124146   -0.00127032
     atom  139 type  2   force =     0.00112147   -0.00121196   -0.00251903
     atom  140 type  2   force =     0.00016605    0.00117466    0.00451335
     atom  141 type  2   force =    -0.00177693   -0.00131126    0.00042726
     atom  142 type  2   force =     0.00034393    0.00014402   -0.00028957
     atom  143 type  2   force =     0.00055197   -0.00285473   -0.00383551
     atom  144 type  2   force =    -0.00174693    0.00078830    0.00150377
     atom  145 type  2   force =     0.00013639   -0.00101557   -0.00171828
     atom  146 type  2   force =     0.00219189    0.00038050   -0.00010987
     atom  147 type  2   force =    -0.00209300   -0.00093915   -0.00186772
     atom  148 type  2   force =    -0.00025229   -0.00361052    0.00239417
     atom  149 type  2   force =    -0.00074208    0.00104175   -0.00053728

     Total force =     0.049803     Total SCF correction =     0.000453

     number of scf cycles    =  14
     number of bfgs steps    =  13

     energy   old            =  -12699.9952185633 Ry
     energy   new            =  -12699.9977900053 Ry

     CASE: energy  _new < energy  _old

     new trust radius        =       0.2075386651 bohr
     new conv_thr            =       0.0000000100 Ry


ATOMIC_POSITIONS (angstrom)
Cu       0.000870063  -0.008579288   7.346163788
Cu       1.847494221   1.696048441   7.349016151
Cu       3.689543022  -0.009941981   7.347767793
Cu       5.533429001   1.694624562   7.348959654
Cu       0.002817653   3.400259986   7.352742602
Cu       1.847098274   5.106743738   7.355086487
Cu       3.691217056   3.400086460   7.349772392
Cu       5.537882796   5.106996937   7.353864386
Cu       0.003757501   6.815158468   7.355948642
Cu       1.847336328   8.523480107   7.354468641
Cu       3.692912134   6.814859685   7.356059488
Cu       5.537917668   8.522965601   7.353800067
Cu       0.003126979  10.229306636   7.352551445
Cu       1.847870580  11.931079035   7.351136334
Cu       3.691173980  10.229309393   7.350682677
Cu       5.533289473  11.932489322   7.350276580
Cu       0.000817521  13.631719606   7.348176686
Cu       1.843435875  15.329844456   7.347194040
Cu       3.689786741  13.633229315   7.349566465
Cu       5.535604053  15.330553711   7.344998950
Cu       0.004663918   1.695297661   9.182520790
Cu       1.848049124  -0.004476265   9.184424882
Cu       3.692801267   1.697833776   9.184381388
Cu       5.535036764  -0.008421851   9.183044048
Cu       0.007067547   5.110631937   9.189109329
Cu       1.850378010   3.402072283   9.185635765
Cu       3.696857170   5.108809693   9.186711429
Cu       5.539640742   3.405259353   9.187949348
Cu       0.007179162   8.518986692   9.189563204
Cu       1.850231971   6.814920195   9.188944427
Cu       3.697653797   8.520058296   9.186387335
Cu       5.542181465   6.815097380   9.182342720
Cu       0.004979415  11.928195936   9.185777025
Cu       1.851516051  10.224552190   9.188011731
Cu       3.693471322  11.926049425   9.189350418
Cu       5.539891579  10.221167392   9.190317048
Cu       0.002063154  15.329766445   9.186620388
Cu       1.848234981  13.628413808   9.187202455
Cu       3.690916386  15.329899861   9.186217155
Cu       5.535398307  13.629979902   9.185786311
Cu       0.006952178  -0.004580214  11.029213661
Cu       1.854006106   1.703653813  11.035996153
Cu       3.695368649  -0.004410796  11.029154874
Cu       5.541367237   1.702489681  11.029549112
Cu       0.010094480   3.404942568  11.028526416
Cu       1.854901053   5.099808750  11.019083345
Cu       3.701350567   3.406689114  11.030359749
Cu       5.548867788   5.116971371  11.035837371
Cu      -0.004627151   6.815495464  11.033794445
Cu       1.857314130   8.530314198  11.017997197
Cu       3.710357764   6.815836065  11.020820779
Cu       5.548119310   8.507051795  11.042075917
Cu       0.011694091  10.219708061  11.033461803
Cu       1.856294746  11.920569897  11.036647072
Cu       3.704319421  10.212612916  11.039544520
Cu       5.543242205  11.920262930  11.033639500
Cu       0.007981759  13.626049002  11.032606503
Cu       1.849912845  15.331318975  11.029340736
Cu       3.696394846  13.627085096  11.034013367
Cu       5.539737312  15.329426615  11.032019523
Cu       0.014921261   1.712024695  12.869796987
Cu       1.855278780  -0.006731543  12.870430296
Cu       3.697981672   1.705924031  12.871896574
Cu       5.543713744   0.002851172  12.873209514
Cu       0.000646962   5.125932778  12.869905153
Cu       1.862370331   3.413002859  12.864581748
Cu       3.703681692   5.115866556  12.864010322
Cu       5.548438476   3.417858244  12.877940985
Cu       0.001058230   8.504555548  12.877941131
Cu       1.852557289   6.825042560  12.857762404
Cu       3.700819090   8.505508701  12.886513611
Cu       5.541115807   6.809301209  12.885276659
Cu       0.018156379  11.913328596  12.877153058
Cu       1.863850150  10.216818796  12.866460949
Cu       3.703688971  11.914749640  12.873644260
Cu       5.552038183  10.204053806  12.881309982
Cu       0.009946665  15.330701595  12.878572181
Cu       1.855697192  13.629334634  12.871410832
Cu       3.701879841  15.332423538  12.873950726
Cu       5.549694813  13.621499841  12.875999052
Cu       0.008064818   0.013841393  14.680733284
Cu       1.861753129   1.700373281  14.680604447
Cu       3.704537924  -0.004069897  14.697029247
Cu       5.543352929   1.731779829  14.678737965
Cu       0.024026159   3.430006622  14.690248359
Cu       1.852603219   5.135330714  14.666184141
Cu       3.692871762   3.417882914  14.696675370
Cu       5.534549214   5.107345589  14.730175083
Cu       0.013945927   6.814966353  14.707447348
Cu       1.841674223   8.529013247  14.687320315
Cu       3.654735284   6.810595322  14.718052617
Cu       5.535423586   8.506216866  14.726733417
Cu       0.009947455  10.200494323  14.704981426
Cu       1.857894219  11.924498593  14.682636972
Cu       3.703270515  10.211064970  14.700473419
Cu       5.555261607  11.895157285  14.683033566
Cu       0.006808498  13.618795467  14.698006219
Cu       1.853823587  15.328217336  14.691501420
Cu       3.713772226  13.623596444  14.682556278
Cu       5.551639315  15.335328418  14.688438416
C       -0.005863651   0.726533086  17.601640096
C       -0.006762906   2.145481553  17.638833763
C        1.222920896   0.016215828  17.600042050
C        1.222945163   2.850492492  17.666430537
C        2.452660884   0.720663304  17.611955422
C        2.450082799   2.138250449  17.638298471
C        3.684855411   0.013003351  17.577572441
C        3.678017286   2.848144225  17.621931554
C        4.916332251   0.721334203  17.583593862
C        4.911951596   2.141497392  17.608036040
C        6.145578015   0.011477513  17.595348016
C        6.140779109   2.853694838  17.658880803
C       -0.002102347   4.983025271  17.723141810
C        0.005863517   6.405183400  17.756681007
C        1.229028313   4.271601240  17.700902987
C        1.228227631   7.115882290  17.686869651
C        2.453621269   4.969435745  17.689131855
C        2.462303825   6.398703637  17.508666248
C        3.675178062   4.270551109  17.646843626
C        3.693668783   7.118114302  17.736665085
H        2.532672173   6.314232543  15.976406890
C        4.911322752   4.984636197  17.664105657
C        4.915141520   6.405867358  17.760989148
C        6.143740061   4.275680910  17.700218097
C        6.148976173   7.116320204  17.824153873
C       -0.005655151   9.246600745  17.754173176
C       -0.007326757  10.666379799  17.654486796
C        1.225167498   8.526709290  17.696753227
C        1.225651050  11.371795426  17.631139831
C        2.454692165   9.238674039  17.661400797
C        2.453119618  10.658042582  17.677329372
C        3.685709033   8.526772543  17.713368498
C        3.678385093  11.372559384  17.642771283
C        4.912667588   9.246688330  17.741045894
C        4.911075749  10.666949026  17.655059380
C        6.144779295   8.536840203  17.835072269
C        6.139552122  11.380417892  17.609407268
C       -0.000602557  13.506415510  17.555536073
C       -0.001085392  14.925421939  17.583242804
C        1.228575880  12.792350816  17.573313986
C        1.225794628  15.637443864  17.588266458
C        2.454382141  13.506436895  17.594570789
C        2.455267231  14.926809835  17.600660335
C        3.681260873  12.793746212  17.602045196
C        3.684652266  15.634700282  17.599353304
C        4.909776895  13.506850679  17.583669064
C        4.912753512  14.925166938  17.588504289
C        6.141340294  12.801955399  17.565713983
C        6.146448829  15.631587988  17.587024028



     Writing output data file gc.save
     Check: negative starting charge=   -0.001863
     NEW-OLD atomic charge density approx. for the potential
     Check: negative starting charge=   -0.001867

     negative rho (up, down):  1.945E-03 0.000E+00

     total cpu time spent up to now is    51274.2 secs

     Self-consistent Calculation

     iteration #  1     ecut=    80.00 Ry     beta=0.70
     Davidson diagonalization with overlap
     ethr =  1.00E-06,  avg # of iterations =  7.8

     negative rho (up, down):  2.023E-03 0.000E+00

     total cpu time spent up to now is    51842.8 secs

     total energy              =  -12700.00067461 Ry
     Harris-Foulkes estimate   =  -12700.00406734 Ry
     estimated scf accuracy    <       0.01399889 Ry

     iteration #  2     ecut=    80.00 Ry     beta=0.70
     Davidson diagonalization with overlap
     ethr =  1.08E-06,  avg # of iterations =  2.0

     negative rho (up, down):  2.096E-03 0.000E+00

     total cpu time spent up to now is    52042.0 secs

     total energy              =  -12700.00040329 Ry
     Harris-Foulkes estimate   =  -12700.00146625 Ry
     estimated scf accuracy    <       0.00317905 Ry

     iteration #  3     ecut=    80.00 Ry     beta=0.70
     Davidson diagonalization with overlap
     ethr =  2.46E-07,  avg # of iterations =  3.0

     negative rho (up, down):  2.136E-03 0.000E+00

     total cpu time spent up to now is    52266.1 secs

     total energy              =  -12700.00056714 Ry
     Harris-Foulkes estimate   =  -12700.00104143 Ry
     estimated scf accuracy    <       0.00314653 Ry

     iteration #  4     ecut=    80.00 Ry     beta=0.70
     Davidson diagonalization with overlap
     ethr =  2.43E-07,  avg # of iterations =  1.0

     negative rho (up, down):  2.146E-03 0.000E+00

     total cpu time spent up to now is    52439.0 secs

     total energy              =  -12700.00076187 Ry
     Harris-Foulkes estimate   =  -12700.00077285 Ry
     estimated scf accuracy    <       0.00007965 Ry

     iteration #  5     ecut=    80.00 Ry     beta=0.70
     Davidson diagonalization with overlap
     ethr =  6.16E-09,  avg # of iterations =  3.0

     negative rho (up, down):  2.130E-03 0.000E+00

     total cpu time spent up to now is    52710.6 secs

     total energy              =  -12700.00077228 Ry
     Harris-Foulkes estimate   =  -12700.00078026 Ry
     estimated scf accuracy    <       0.00004233 Ry

     iteration #  6     ecut=    80.00 Ry     beta=0.70
     Davidson diagonalization with overlap
     ethr =  3.27E-09,  avg # of iterations =  1.7

     negative rho (up, down):  2.087E-03 0.000E+00

     total cpu time spent up to now is    52897.2 secs

     total energy              =  -12700.00077429 Ry
     Harris-Foulkes estimate   =  -12700.00077581 Ry
     estimated scf accuracy    <       0.00000787 Ry

     iteration #  7     ecut=    80.00 Ry     beta=0.70
     Davidson diagonalization with overlap
     ethr =  6.09E-10,  avg # of iterations =  2.0

     negative rho (up, down):  2.052E-03 0.000E+00

     total cpu time spent up to now is    53088.4 secs

     total energy              =  -12700.00077487 Ry
     Harris-Foulkes estimate   =  -12700.00077517 Ry
     estimated scf accuracy    <       0.00000321 Ry

     iteration #  8     ecut=    80.00 Ry     beta=0.70
     Davidson diagonalization with overlap
     ethr =  2.48E-10,  avg # of iterations =  1.2

     negative rho (up, down):  2.024E-03 0.000E+00

     total cpu time spent up to now is    53264.0 secs

     total energy              =  -12700.00077506 Ry
     Harris-Foulkes estimate   =  -12700.00077512 Ry
     estimated scf accuracy    <       0.00000090 Ry

     iteration #  9     ecut=    80.00 Ry     beta=0.70
     Davidson diagonalization with overlap
     ethr =  6.98E-11,  avg # of iterations =  2.0

     negative rho (up, down):  1.990E-03 0.000E+00

     total cpu time spent up to now is    53459.3 secs

     total energy              =  -12700.00077518 Ry
     Harris-Foulkes estimate   =  -12700.00077516 Ry
     estimated scf accuracy    <       0.00000044 Ry

     iteration # 10     ecut=    80.00 Ry     beta=0.70
     Davidson diagonalization with overlap
     ethr =  3.41E-11,  avg # of iterations =  2.0

     negative rho (up, down):  1.968E-03 0.000E+00

     total cpu time spent up to now is    53651.5 secs

     total energy              =  -12700.00077525 Ry
     Harris-Foulkes estimate   =  -12700.00077521 Ry
     estimated scf accuracy    <       0.00000010 Ry

     iteration # 11     ecut=    80.00 Ry     beta=0.70
     Davidson diagonalization with overlap
     ethr =  7.55E-12,  avg # of iterations =  2.3

     negative rho (up, down):  1.958E-03 0.000E+00

     total cpu time spent up to now is    53857.2 secs

     total energy              =  -12700.00077528 Ry
     Harris-Foulkes estimate   =  -12700.00077526 Ry
     estimated scf accuracy    <       0.00000005 Ry

     iteration # 12     ecut=    80.00 Ry     beta=0.70
     Davidson diagonalization with overlap
     ethr =  3.59E-12,  avg # of iterations =  1.8

     negative rho (up, down):  1.945E-03 0.000E+00

     total cpu time spent up to now is    54043.4 secs

     total energy              =  -12700.00077531 Ry
     Harris-Foulkes estimate   =  -12700.00077528 Ry
     estimated scf accuracy    <       0.00000002 Ry

     iteration # 13     ecut=    80.00 Ry     beta=0.70
     Davidson diagonalization with overlap
