
     Program PWSCF v.5.4.0 starts on 16Mar2017 at 20:51:35 

     This program is part of the open-source Quantum ESPRESSO suite
     for quantum simulation of materials; please cite
         "P. Giannozzi et al., J. Phys.:Condens. Matter 21 395502 (2009);
          URL http://www.quantum-espresso.org", 
     in publications or presentations arising from this work. More details at
     http://www.quantum-espresso.org/quote

     Parallel version (MPI & OpenMP), running on      56 processor cores
     Number of MPI processes:                56
     Threads/MPI process:                     1
     R & G space division:  proc/nbgrp/npool/nimage =      56
     Waiting for input...
     Reading input from standard input

     Current dimensions of program PWSCF are:
     Max number of different atomic species (ntypx) = 10
     Max number of k-points (npk) =  40000
     Max angular momentum in pseudopotentials (lmaxx) =  3

     -------------------------------------
     Parameters for Dispersion Correction:
     -------------------------------------
       atom      VdW radius       C_6     

        Cu         2.952        374.666
        C          2.744         60.710
        H          1.892          4.857

     Subspace diagonalization in iterative solution of the eigenvalue problem:
     one sub-group per band group will be used
     scalapack distributed-memory algorithm (size of sub-group:  5*  5 procs)

 
     Parallelization info
     --------------------
     sticks:   dense  smooth     PW     G-vecs:    dense   smooth      PW
     Min         204     204     54                36612    36612    4962
     Max         205     205     55                36617    36617    4968
     Sum       11433   11433   3039              2050409  2050409  278033
 


     bravais-lattice index     =            0
     lattice parameter (alat)  =      13.9425  a.u.
     unit-cell volume          =   21209.0878 (a.u.)^3
     number of atoms/cell      =          149
     number of atomic types    =            3
     number of electrons       =      1293.00
     number of Kohn-Sham states=          776
     kinetic-energy cutoff     =      80.0000  Ry
     charge density cutoff     =     320.0000  Ry
     convergence threshold     =      1.0E-08
     mixing beta               =       0.7000
     number of iterations used =            8  local-TF  mixing
     Exchange-correlation      =  SLA  PW   PBE  PBE ( 1  4  3  4 0 0)
     nstep                     =           50


     celldm(1)=  13.942539  celldm(2)=   0.000000  celldm(3)=   0.000000
     celldm(4)=   0.000000  celldm(5)=   0.000000  celldm(6)=   0.000000

     crystal axes: (cart. coord. in units of alat)
               a(1) = (   1.000000   0.000000   0.000000 )  
               a(2) = (   0.000000   2.309401   0.000000 )  
               a(3) = (   0.000000   0.000000   3.388418 )  

     reciprocal axes: (cart. coord. in units 2 pi/alat)
               b(1) = (  1.000000  0.000000  0.000000 )  
               b(2) = (  0.000000  0.433013  0.000000 )  
               b(3) = (  0.000000  0.000000  0.295123 )  


     PseudoPot. # 1 for Cu read from file:
     /home/549/hxw549/Short/pseudopotentials/Cu.pbe-n-van_ak.UPF
     MD5 check sum: 601f7c30f7467666bec936e0661ce3e1
     Pseudo is Ultrasoft + core correction, Zval = 11.0
     Generated by new atomic code, or converted to UPF format
     Using radial grid of  867 points,  6 beta functions with: 
                l(1) =   0
                l(2) =   0
                l(3) =   1
                l(4) =   1
                l(5) =   2
                l(6) =   2
     Q(r) pseudized with  8 coefficients,  rinner =    1.400   1.400   1.400
                                                       1.400   1.400

     PseudoPot. # 2 for C  read from file:
     /home/549/hxw549/Short/pseudopotentials/C.pbe-mt_gipaw.UPF
     MD5 check sum: 5ac2f21f2c440b14befe521540822c15
     Pseudo is Norm-conserving, Zval =  4.0
     Generated by new atomic code, or converted to UPF format
     Using radial grid of 1073 points,  1 beta functions with: 
                l(1) =   0

     PseudoPot. # 3 for H  read from file:
     /home/549/hxw549/Short/pseudopotentials/H.pbe-van_ak.UPF
     MD5 check sum: 077eb6d537518a38cb46c6de387227b7
     Pseudo is Ultrasoft, Zval =  1.0
     Generated by new atomic code, or converted to UPF format
     Using radial grid of  615 points,  1 beta functions with: 
                l(1) =   0
     Q(r) pseudized with  8 coefficients,  rinner =    0.800

     atomic species   valence    mass     pseudopotential
        Cu            11.00    63.54600     Cu( 1.00)
        C              4.00    12.01070     C ( 1.00)
        H              1.00     1.00783     H ( 1.00)

     No symmetry found



   Cartesian axes

     site n.     atom                  positions (alat units)
         1           Cu  tau(   1) = (   0.0001179  -0.0011628   0.9956750  )
         2           Cu  tau(   2) = (   0.2504033   0.2298769   0.9960616  )
         3           Cu  tau(   3) = (   0.5000686  -0.0013475   0.9958924  )
         4           Cu  tau(   4) = (   0.7499829   0.2296839   0.9960539  )
         5           Cu  tau(   5) = (   0.0003819   0.4608601   0.9965667  )
         6           Cu  tau(   6) = (   0.2503497   0.6921513   0.9968844  )
         7           Cu  tau(   7) = (   0.5002955   0.4608366   0.9961641  )
         8           Cu  tau(   8) = (   0.7505865   0.6921857   0.9967187  )
         9           Cu  tau(   9) = (   0.0005093   0.9237043   0.9970012  )
        10           Cu  tau(  10) = (   0.2503819   1.1552446   0.9968006  )
        11           Cu  tau(  11) = (   0.5005252   0.9236638   0.9970162  )
        12           Cu  tau(  12) = (   0.7505912   1.1551749   0.9967100  )
        13           Cu  tau(  13) = (   0.0004238   1.3864467   0.9965408  )
        14           Cu  tau(  14) = (   0.2504543   1.6170994   0.9963490  )
        15           Cu  tau(  15) = (   0.5002896   1.3864471   0.9962875  )
        16           Cu  tau(  16) = (   0.7499639   1.6172905   0.9962324  )
        17           Cu  tau(  17) = (   0.0001108   1.8475987   0.9959478  )
        18           Cu  tau(  18) = (   0.2498533   2.0777569   0.9958146  )
        19           Cu  tau(  19) = (   0.5001016   1.8478033   0.9961362  )
        20           Cu  tau(  20) = (   0.7502777   2.0778531   0.9955171  )
        21           Cu  tau(  21) = (   0.0006321   0.2297751   1.2445688  )
        22           Cu  tau(  22) = (   0.2504785  -0.0006067   1.2448269  )
        23           Cu  tau(  23) = (   0.5005102   0.2301188   1.2448210  )
        24           Cu  tau(  24) = (   0.7502008  -0.0011415   1.2446397  )
        25           Cu  tau(  25) = (   0.0009579   0.6926783   1.2454618  )
        26           Cu  tau(  26) = (   0.2507942   0.4611057   1.2449910  )
        27           Cu  tau(  27) = (   0.5010599   0.6924313   1.2451368  )
        28           Cu  tau(  28) = (   0.7508248   0.4615377   1.2453046  )
        29           Cu  tau(  29) = (   0.0009730   1.1546356   1.2455233  )
        30           Cu  tau(  30) = (   0.2507744   0.9236720   1.2454395  )
        31           Cu  tau(  31) = (   0.5011679   1.1547808   1.2450929  )
        32           Cu  tau(  32) = (   0.7511691   0.9236960   1.2445447  )
        33           Cu  tau(  33) = (   0.0006749   1.6167086   1.2450102  )
        34           Cu  tau(  34) = (   0.2509484   1.3858023   1.2453130  )
        35           Cu  tau(  35) = (   0.5006010   1.6164177   1.2454945  )
        36           Cu  tau(  36) = (   0.7508588   1.3853436   1.2456255  )
        37           Cu  tau(  37) = (   0.0002796   2.0777464   1.2451245  )
        38           Cu  tau(  38) = (   0.2505037   1.8471506   1.2452034  )
        39           Cu  tau(  39) = (   0.5002547   2.0777645   1.2450698  )
        40           Cu  tau(  40) = (   0.7502498   1.8473629   1.2450114  )
        41           Cu  tau(  41) = (   0.0009423  -0.0006208   1.4948635  )
        42           Cu  tau(  42) = (   0.2512859   0.2309077   1.4957828  )
        43           Cu  tau(  43) = (   0.5008582  -0.0005978   1.4948556  )
        44           Cu  tau(  44) = (   0.7510588   0.2307499   1.4949090  )
        45           Cu  tau(  45) = (   0.0013682   0.4614948   1.4947704  )
        46           Cu  tau(  46) = (   0.2514072   0.6912114   1.4934905  )
        47           Cu  tau(  47) = (   0.5016689   0.4617315   1.4950189  )
        48           Cu  tau(  48) = (   0.7520754   0.6935376   1.4957613  )
        49           Cu  tau(  49) = (  -0.0006271   0.9237499   1.4954844  )
        50           Cu  tau(  50) = (   0.2517343   1.1561709   1.4933433  )
        51           Cu  tau(  51) = (   0.5028897   0.9237961   1.4937260  )
        52           Cu  tau(  52) = (   0.7519739   1.1530180   1.4966068  )
        53           Cu  tau(  53) = (   0.0015850   1.3851458   1.4954393  )
        54           Cu  tau(  54) = (   0.2515961   1.6156750   1.4958710  )
        55           Cu  tau(  55) = (   0.5020713   1.3841841   1.4962637  )
        56           Cu  tau(  56) = (   0.7513129   1.6156334   1.4954634  )
        57           Cu  tau(  57) = (   0.0010818   1.8468301   1.4953234  )
        58           Cu  tau(  58) = (   0.2507311   2.0779568   1.4948807  )
        59           Cu  tau(  59) = (   0.5009973   1.8469705   1.4955141  )
        60           Cu  tau(  60) = (   0.7508379   2.0777003   1.4952438  )
        61           Cu  tau(  61) = (   0.0020224   0.2320422   1.7443302  )
        62           Cu  tau(  62) = (   0.2514584  -0.0009124   1.7444160  )
        63           Cu  tau(  63) = (   0.5012123   0.2312154   1.7446147  )
        64           Cu  tau(  64) = (   0.7513768   0.0003864   1.7447927  )
        65           Cu  tau(  65) = (   0.0000877   0.6947522   1.7443448  )
        66           Cu  tau(  66) = (   0.2524196   0.4625872   1.7436233  )
        67           Cu  tau(  67) = (   0.5019849   0.6933878   1.7435459  )
        68           Cu  tau(  68) = (   0.7520172   0.4632453   1.7454340  )
        69           Cu  tau(  69) = (   0.0001434   1.1526796   1.7454340  )
        70           Cu  tau(  70) = (   0.2510896   0.9250439   1.7426990  )
        71           Cu  tau(  71) = (   0.5015969   1.1528088   1.7465959  )
        72           Cu  tau(  72) = (   0.7510247   0.9229104   1.7464282  )
        73           Cu  tau(  73) = (   0.0024609   1.6146936   1.7453272  )
        74           Cu  tau(  74) = (   0.2526201   1.3847542   1.7438780  )
        75           Cu  tau(  75) = (   0.5019859   1.6148862   1.7448516  )
        76           Cu  tau(  76) = (   0.7525051   1.3830241   1.7458906  )
        77           Cu  tau(  77) = (   0.0013481   2.0778731   1.7455195  )
        78           Cu  tau(  78) = (   0.2515151   1.8472754   1.7445489  )
        79           Cu  tau(  79) = (   0.5017407   2.0781065   1.7448931  )
        80           Cu  tau(  80) = (   0.7521875   1.8462135   1.7451708  )
        81           Cu  tau(  81) = (   0.0010931   0.0018760   1.9897785  )
        82           Cu  tau(  82) = (   0.2523359   0.2304630   1.9897611  )
        83           Cu  tau(  83) = (   0.5021009  -0.0005516   1.9919872  )
        84           Cu  tau(  84) = (   0.7513279   0.2347198   1.9895081  )
        85           Cu  tau(  85) = (   0.0032564   0.4648919   1.9910682  )
        86           Cu  tau(  86) = (   0.2510958   0.6960259   1.9878066  )
        87           Cu  tau(  87) = (   0.5005198   0.4632487   1.9919393  )
        88           Cu  tau(  88) = (   0.7501347   0.6922329   1.9964797  )
        89           Cu  tau(  89) = (   0.0018902   0.9236782   1.9933993  )
        90           Cu  tau(  90) = (   0.2496145   1.1559945   1.9906713  )
        91           Cu  tau(  91) = (   0.4953509   0.9230858   1.9948367  )
        92           Cu  tau(  92) = (   0.7502532   1.1529048   1.9960132  )
        93           Cu  tau(  93) = (   0.0013482   1.3825416   1.9930651  )
        94           Cu  tau(  94) = (   0.2518129   1.6162075   1.9900366  )
        95           Cu  tau(  95) = (   0.5019292   1.3839743   1.9924541  )
        96           Cu  tau(  96) = (   0.7529420   1.6122307   1.9900903  )
        97           Cu  tau(  97) = (   0.0009228   1.8458470   1.9921197  )
        98           Cu  tau(  98) = (   0.2512612   2.0775364   1.9912380  )
        99           Cu  tau(  99) = (   0.5033525   1.8464977   1.9900256  )
       100           Cu  tau( 100) = (   0.7524510   2.0785002   1.9908229  )
       101           C   tau( 101) = (  -0.0007947   0.0984719   2.3856687  )
       102           C   tau( 102) = (  -0.0009166   0.2907915   2.3907098  )
       103           C   tau( 103) = (   0.1657507   0.0021978   2.3854521  )
       104           C   tau( 104) = (   0.1657540   0.3863464   2.3944502  )
       105           C   tau( 105) = (   0.3324256   0.0976763   2.3870668  )
       106           C   tau( 106) = (   0.3320762   0.2898115   2.3906372  )
       107           C   tau( 107) = (   0.4994332   0.0017624   2.3824066  )
       108           C   tau( 108) = (   0.4985064   0.3860281   2.3884189  )
       109           C   tau( 109) = (   0.6663436   0.0977673   2.3832228  )
       110           C   tau( 110) = (   0.6657498   0.2902515   2.3865356  )
       111           C   tau( 111) = (   0.8329515   0.0015556   2.3848159  )
       112           C   tau( 112) = (   0.8323011   0.3867805   2.3934269  )
       113           C   tau( 113) = (  -0.0002849   0.6753829   2.4021366  )
       114           C   tau( 114) = (   0.0007947   0.8681376   2.4066824  )
       115           C   tau( 115) = (   0.1665785   0.5789589   2.3991225  )
       116           C   tau( 116) = (   0.1664700   0.9644634   2.3972204  )
       117           C   tau( 117) = (   0.3325558   0.6735411   2.3975270  )
       118           C   tau( 118) = (   0.3337326   0.8672593   2.3730673  )
       119           C   tau( 119) = (   0.4981216   0.5788165   2.3917954  )
       120           C   tau( 120) = (   0.5006278   0.9647659   2.4039695  )
       121           H   tau( 121) = (   0.3432701   0.8558104   2.1653899  )
       122           C   tau( 122) = (   0.6656646   0.6756013   2.3941351  )
       123           C   tau( 123) = (   0.6661822   0.8682303   2.4072663  )
       124           C   tau( 124) = (   0.8327024   0.5795118   2.3990296  )
       125           C   tau( 125) = (   0.8334121   0.9645227   2.4158275  )
       126           C   tau( 126) = (  -0.0007665   1.2532540   2.4063425  )
       127           C   tau( 127) = (  -0.0009930   1.4456862   2.3928314  )
       128           C   tau( 128) = (   0.1660552   1.1556823   2.3985600  )
       129           C   tau( 129) = (   0.1661207   1.5412959   2.3896670  )
       130           C   tau( 130) = (   0.3327009   1.2521796   2.3937685  )
       131           C   tau( 131) = (   0.3324878   1.4445562   2.3959274  )
       132           C   tau( 132) = (   0.4995489   1.1556908   2.4008120  )
       133           C   tau( 133) = (   0.4985563   1.5413995   2.3912435  )
       134           C   tau( 134) = (   0.6658469   1.2532659   2.4045633  )
       135           C   tau( 135) = (   0.6656311   1.4457634   2.3929090  )
       136           C   tau( 136) = (   0.8328433   1.1570554   2.4173073  )
       137           C   tau( 137) = (   0.8321348   1.5424646   2.3867214  )
       138           C   tau( 138) = (  -0.0000817   1.8306154   2.3794199  )
       139           C   tau( 139) = (  -0.0001471   2.0229428   2.3831752  )
       140           C   tau( 140) = (   0.1665172   1.7338334   2.3818295  )
       141           C   tau( 141) = (   0.1661402   2.1194480   2.3838561  )
       142           C   tau( 142) = (   0.3326589   1.8306183   2.3847105  )
       143           C   tau( 143) = (   0.3327789   2.0231310   2.3855359  )
       144           C   tau( 144) = (   0.4989461   1.7340225   2.3857236  )
       145           C   tau( 145) = (   0.4994057   2.1190761   2.3853587  )
       146           C   tau( 146) = (   0.6654551   1.8306743   2.3832330  )
       147           C   tau( 147) = (   0.6658585   2.0229083   2.3838883  )
       148           C   tau( 148) = (   0.8323772   1.7351351   2.3807994  )
       149           C   tau( 149) = (   0.8330696   2.1186543   2.3836877  )

     number of k points=     6  gaussian smearing, width (Ry)=  0.1000
                       cart. coord. in units 2pi/alat
        k(    1) = (   0.0000000   0.0000000   0.0000000), wk =   0.2500000
        k(    2) = (   0.0000000  -0.2165064   0.0000000), wk =   0.2500000
        k(    3) = (   0.2500000   0.0000000   0.0000000), wk =   0.5000000
        k(    4) = (   0.2500000  -0.2165064   0.0000000), wk =   0.5000000
        k(    5) = (  -0.5000000   0.0000000   0.0000000), wk =   0.2500000
        k(    6) = (  -0.5000000  -0.2165064   0.0000000), wk =   0.2500000

     Dense  grid:  2050409 G-vectors     FFT dimensions: (  80, 192, 270)

     Largest allocated arrays     est. size (Mb)     dimensions
        Kohn-Sham Wavefunctions        54.52 Mb     (    4604,  776)
        NL pseudopotentials           129.89 Mb     (    4604, 1849)
        Each V/rho on FFT grid          1.17 Mb     (   76800)
        Each G-vector array             0.28 Mb     (   36616)
        G-vector shells                 0.14 Mb     (   17932)
     Largest temporary arrays     est. size (Mb)     dimensions
        Auxiliary wavefunctions       218.06 Mb     (    4604, 3104)
        Each subspace H/S matrix        5.87 Mb     (     620,  620)
        Each <psi_i|beta_j> matrix     21.89 Mb     (    1849,  776)
        Arrays for rho mixing           9.38 Mb     (   76800,    8)

     Initial potential from superposition of free atoms
     Check: negative starting charge=   -0.001867

     starting charge 1267.81750, renormalised to 1293.00000

     negative rho (up, down):  1.904E-03 0.000E+00
     Starting wfc are 1285 randomized atomic wfcs

     total cpu time spent up to now is      108.3 secs

     Self-consistent Calculation

     iteration #  1     ecut=    80.00 Ry     beta=0.70
     Davidson diagonalization with overlap
     c_bands:  5 eigenvalues not converged
     c_bands:  5 eigenvalues not converged
     ethr =  1.00E-04,  avg # of iterations = 21.0

     negative rho (up, down):  2.934E+01 0.000E+00

     total cpu time spent up to now is     1847.1 secs

     total energy              =   -9183.17963937 Ry
     Harris-Foulkes estimate   =  -17138.63537042 Ry
     estimated scf accuracy    <  180714.07452892 Ry

     iteration #  2     ecut=    80.00 Ry     beta=0.70
     Davidson diagonalization with overlap
     ethr =  1.00E-02,  avg # of iterations = 13.3

     negative rho (up, down):  3.112E+01 0.000E+00

     total cpu time spent up to now is     2756.9 secs

     total energy              =  -12312.17655520 Ry
     Harris-Foulkes estimate   =  -13634.48892549 Ry
     estimated scf accuracy    <   17808.09542416 Ry

     iteration #  3     ecut=    80.00 Ry     beta=0.70
     Davidson diagonalization with overlap
     ethr =  1.00E-02,  avg # of iterations =  7.2

     negative rho (up, down):  3.304E+01 0.000E+00

     total cpu time spent up to now is     3275.1 secs

     total energy              =  -12501.48865014 Ry
     Harris-Foulkes estimate   =  -13351.77985322 Ry
     estimated scf accuracy    <    6143.40387624 Ry

     iteration #  4     ecut=    80.00 Ry     beta=0.70
     Davidson diagonalization with overlap
     ethr =  1.00E-02,  avg # of iterations =  5.8

     negative rho (up, down):  2.958E+01 0.000E+00

     total cpu time spent up to now is     3749.9 secs

     total energy              =  -12838.20857099 Ry
     Harris-Foulkes estimate   =  -13158.49004266 Ry
     estimated scf accuracy    <    6342.41704554 Ry

     iteration #  5     ecut=    80.00 Ry     beta=0.70
     Davidson diagonalization with overlap
     ethr =  1.00E-02,  avg # of iterations =  5.0

     negative rho (up, down):  2.047E+01 0.000E+00

     total cpu time spent up to now is     4126.3 secs

     total energy              =  -12862.68253722 Ry
     Harris-Foulkes estimate   =  -13045.52387082 Ry
     estimated scf accuracy    <    1061.69119135 Ry

     iteration #  6     ecut=    80.00 Ry     beta=0.70
     Davidson diagonalization with overlap
     ethr =  1.00E-02,  avg # of iterations =  3.0

     negative rho (up, down):  1.208E+01 0.000E+00

     total cpu time spent up to now is     4366.3 secs

     total energy              =  -12841.36226992 Ry
     Harris-Foulkes estimate   =  -12920.69584449 Ry
     estimated scf accuracy    <     643.55420507 Ry

     iteration #  7     ecut=    80.00 Ry     beta=0.70
     Davidson diagonalization with overlap
     ethr =  1.00E-02,  avg # of iterations =  2.0

     negative rho (up, down):  9.252E+00 0.000E+00

     total cpu time spent up to now is     4546.2 secs

     total energy              =  -12820.87166885 Ry
     Harris-Foulkes estimate   =  -12855.10923511 Ry
     estimated scf accuracy    <     884.90820399 Ry

     iteration #  8     ecut=    80.00 Ry     beta=0.70
     Davidson diagonalization with overlap
     ethr =  1.00E-02,  avg # of iterations =  1.0

     negative rho (up, down):  8.677E+00 0.000E+00

     total cpu time spent up to now is     4711.7 secs

     total energy              =  -12816.93662659 Ry
     Harris-Foulkes estimate   =  -12827.95032910 Ry
     estimated scf accuracy    <     482.14904016 Ry

     iteration #  9     ecut=    80.00 Ry     beta=0.70
     Davidson diagonalization with overlap
     ethr =  1.00E-02,  avg # of iterations =  1.0

     negative rho (up, down):  4.649E+00 0.000E+00

     total cpu time spent up to now is     4876.6 secs

     total energy              =  -12774.28979938 Ry
     Harris-Foulkes estimate   =  -12820.44268602 Ry
     estimated scf accuracy    <     315.39087025 Ry

     iteration # 10     ecut=    80.00 Ry     beta=0.70
     Davidson diagonalization with overlap
     ethr =  1.00E-02,  avg # of iterations =  1.3

     negative rho (up, down):  1.628E+00 0.000E+00

     total cpu time spent up to now is     5045.4 secs

     total energy              =  -12738.15647200 Ry
     Harris-Foulkes estimate   =  -12791.46547366 Ry
     estimated scf accuracy    <     888.94833265 Ry

     iteration # 11     ecut=    80.00 Ry     beta=0.70
     Davidson diagonalization with overlap
     ethr =  1.00E-02,  avg # of iterations =  2.7

     negative rho (up, down):  1.059E+00 0.000E+00

     total cpu time spent up to now is     5229.1 secs

     total energy              =  -12723.57393980 Ry
     Harris-Foulkes estimate   =  -12760.09824860 Ry
     estimated scf accuracy    <     340.15151644 Ry

     iteration # 12     ecut=    80.00 Ry     beta=0.70
     Davidson diagonalization with overlap
     ethr =  1.00E-02,  avg # of iterations =  2.0

     negative rho (up, down):  4.796E-01 0.000E+00

     total cpu time spent up to now is     5407.6 secs

     total energy              =  -12721.85314221 Ry
     Harris-Foulkes estimate   =  -12746.26108255 Ry
     estimated scf accuracy    <     197.22611117 Ry

     iteration # 13     ecut=    80.00 Ry     beta=0.70
     Davidson diagonalization with overlap
     ethr =  1.00E-02,  avg # of iterations =  3.3

     negative rho (up, down):  6.656E-01 0.000E+00

     total cpu time spent up to now is     5604.8 secs

     total energy              =  -12701.79755641 Ry
     Harris-Foulkes estimate   =  -12748.21790098 Ry
     estimated scf accuracy    <     386.74288964 Ry

     iteration # 14     ecut=    80.00 Ry     beta=0.70
     Davidson diagonalization with overlap
     ethr =  1.00E-02,  avg # of iterations =  2.0

     negative rho (up, down):  3.845E+00 0.000E+00

     total cpu time spent up to now is     5796.8 secs

     total energy              =  -12719.17682505 Ry
     Harris-Foulkes estimate   =  -12738.28905124 Ry
     estimated scf accuracy    <     154.27591322 Ry

     iteration # 15     ecut=    80.00 Ry     beta=0.70
     Davidson diagonalization with overlap
     ethr =  1.00E-02,  avg # of iterations =  1.0

     negative rho (up, down):  4.106E+00 0.000E+00

     total cpu time spent up to now is     5961.4 secs

     total energy              =  -12715.50000135 Ry
     Harris-Foulkes estimate   =  -12721.56144134 Ry
     estimated scf accuracy    <     106.43184430 Ry

     iteration # 16     ecut=    80.00 Ry     beta=0.70
     Davidson diagonalization with overlap
     ethr =  8.23E-03,  avg # of iterations =  1.0

     negative rho (up, down):  5.460E+00 0.000E+00

     total cpu time spent up to now is     6127.0 secs

     total energy              =  -12709.07200866 Ry
     Harris-Foulkes estimate   =  -12717.00435694 Ry
     estimated scf accuracy    <      80.66109756 Ry

     iteration # 17     ecut=    80.00 Ry     beta=0.70
     Davidson diagonalization with overlap
     ethr =  6.24E-03,  avg # of iterations =  1.0

     negative rho (up, down):  2.652E+00 0.000E+00

     total cpu time spent up to now is     6292.6 secs

     total energy              =  -12705.75205345 Ry
     Harris-Foulkes estimate   =  -12710.76033380 Ry
     estimated scf accuracy    <      39.18143571 Ry

     iteration # 18     ecut=    80.00 Ry     beta=0.70
     Davidson diagonalization with overlap
     ethr =  3.03E-03,  avg # of iterations =  2.3

     negative rho (up, down):  2.496E+00 0.000E+00

     total cpu time spent up to now is     6473.2 secs

     total energy              =  -12705.95941030 Ry
     Harris-Foulkes estimate   =  -12707.10742918 Ry
     estimated scf accuracy    <      17.36313430 Ry

     iteration # 19     ecut=    80.00 Ry     beta=0.70
     Davidson diagonalization with overlap
     ethr =  1.34E-03,  avg # of iterations =  7.0

     negative rho (up, down):  2.285E+00 0.000E+00

     total cpu time spent up to now is     6712.6 secs

     total energy              =  -12705.15494448 Ry
     Harris-Foulkes estimate   =  -12706.31157459 Ry
     estimated scf accuracy    <      13.14306530 Ry

     iteration # 20     ecut=    80.00 Ry     beta=0.70
     Davidson diagonalization with overlap
     ethr =  1.02E-03,  avg # of iterations =  2.5

     negative rho (up, down):  2.317E+00 0.000E+00

     total cpu time spent up to now is     6896.9 secs

     total energy              =  -12704.73954747 Ry
     Harris-Foulkes estimate   =  -12705.69535393 Ry
     estimated scf accuracy    <      18.01239644 Ry

     iteration # 21     ecut=    80.00 Ry     beta=0.70
     Davidson diagonalization with overlap
     ethr =  1.02E-03,  avg # of iterations =  1.8

     negative rho (up, down):  2.220E+00 0.000E+00

     total cpu time spent up to now is     7073.4 secs

     total energy              =  -12704.45520500 Ry
     Harris-Foulkes estimate   =  -12705.16196252 Ry
     estimated scf accuracy    <      10.11362574 Ry

     iteration # 22     ecut=    80.00 Ry     beta=0.70
     Davidson diagonalization with overlap
     ethr =  7.82E-04,  avg # of iterations =  2.8

     negative rho (up, down):  1.672E+00 0.000E+00

     total cpu time spent up to now is     7261.3 secs

     total energy              =  -12702.60418730 Ry
     Harris-Foulkes estimate   =  -12704.65966456 Ry
     estimated scf accuracy    <       7.00139234 Ry

     iteration # 23     ecut=    80.00 Ry     beta=0.70
     Davidson diagonalization with overlap
     ethr =  5.41E-04,  avg # of iterations =  6.2

     negative rho (up, down):  2.083E+00 0.000E+00

     total cpu time spent up to now is     7494.3 secs

     total energy              =  -12702.11572824 Ry
     Harris-Foulkes estimate   =  -12703.41115641 Ry
     estimated scf accuracy    <      37.87394431 Ry

     iteration # 24     ecut=    80.00 Ry     beta=0.70
     Davidson diagonalization with overlap
     ethr =  5.41E-04,  avg # of iterations =  2.3

     negative rho (up, down):  1.958E+00 0.000E+00

     total cpu time spent up to now is     7674.5 secs

     total energy              =  -12701.63458173 Ry
     Harris-Foulkes estimate   =  -12702.70375120 Ry
     estimated scf accuracy    <       9.01817480 Ry

     iteration # 25     ecut=    80.00 Ry     beta=0.70
     Davidson diagonalization with overlap
     ethr =  5.41E-04,  avg # of iterations =  1.0

     negative rho (up, down):  1.392E+00 0.000E+00

     total cpu time spent up to now is     7841.5 secs

     total energy              =  -12700.32815381 Ry
     Harris-Foulkes estimate   =  -12701.92128254 Ry
     estimated scf accuracy    <       3.17820274 Ry

     iteration # 26     ecut=    80.00 Ry     beta=0.70
     Davidson diagonalization with overlap
     ethr =  2.46E-04,  avg # of iterations =  8.7

     negative rho (up, down):  1.124E+00 0.000E+00

     total cpu time spent up to now is     8126.1 secs

     total energy              =  -12699.91504451 Ry
     Harris-Foulkes estimate   =  -12700.58899209 Ry
     estimated scf accuracy    <       6.54331933 Ry

     iteration # 27     ecut=    80.00 Ry     beta=0.70
     Davidson diagonalization with overlap
     ethr =  2.46E-04,  avg # of iterations =  2.5

     negative rho (up, down):  1.144E+00 0.000E+00

     total cpu time spent up to now is     8311.7 secs

     total energy              =  -12700.13377415 Ry
     Harris-Foulkes estimate   =  -12700.32331126 Ry
     estimated scf accuracy    <       1.09515487 Ry

     iteration # 28     ecut=    80.00 Ry     beta=0.70
     Davidson diagonalization with overlap
     ethr =  8.47E-05,  avg # of iterations =  6.3

     negative rho (up, down):  8.757E-01 0.000E+00

     total cpu time spent up to now is     8555.2 secs

     total energy              =  -12700.05336408 Ry
     Harris-Foulkes estimate   =  -12700.16975514 Ry
     estimated scf accuracy    <       0.62287878 Ry

     iteration # 29     ecut=    80.00 Ry     beta=0.70
     Davidson diagonalization with overlap
     ethr =  4.82E-05,  avg # of iterations =  6.5

     negative rho (up, down):  5.173E-01 0.000E+00

     total cpu time spent up to now is     8807.2 secs

     total energy              =  -12700.00909654 Ry
     Harris-Foulkes estimate   =  -12700.07158339 Ry
     estimated scf accuracy    <       0.34594749 Ry

     iteration # 30     ecut=    80.00 Ry     beta=0.70
     Davidson diagonalization with overlap
     ethr =  2.68E-05,  avg # of iterations =  5.8

     negative rho (up, down):  2.897E-01 0.000E+00

     total cpu time spent up to now is     9040.7 secs

     total energy              =  -12699.99839913 Ry
     Harris-Foulkes estimate   =  -12700.02801847 Ry
     estimated scf accuracy    <       0.20286190 Ry

     iteration # 31     ecut=    80.00 Ry     beta=0.70
     Davidson diagonalization with overlap
     c_bands:  1 eigenvalues not converged
     ethr =  1.57E-05,  avg # of iterations = 11.0

     negative rho (up, down):  2.025E-01 0.000E+00

     total cpu time spent up to now is     9336.9 secs

     total energy              =  -12700.00202708 Ry
     Harris-Foulkes estimate   =  -12700.01219258 Ry
     estimated scf accuracy    <       0.06646185 Ry

     iteration # 32     ecut=    80.00 Ry     beta=0.70
     Davidson diagonalization with overlap
     ethr =  5.14E-06,  avg # of iterations =  7.8

     negative rho (up, down):  1.288E-01 0.000E+00

     total cpu time spent up to now is     9596.4 secs

     total energy              =  -12700.00299734 Ry
     Harris-Foulkes estimate   =  -12700.00721815 Ry
     estimated scf accuracy    <       0.02091582 Ry

     iteration # 33     ecut=    80.00 Ry     beta=0.70
     Davidson diagonalization with overlap
     ethr =  1.62E-06,  avg # of iterations = 14.2

     negative rho (up, down):  8.428E-02 0.000E+00

     total cpu time spent up to now is     9946.9 secs

     total energy              =  -12700.00213824 Ry
     Harris-Foulkes estimate   =  -12700.00429635 Ry
     estimated scf accuracy    <       0.00467291 Ry

     iteration # 34     ecut=    80.00 Ry     beta=0.70
     Davidson diagonalization with overlap
     ethr =  3.61E-07,  avg # of iterations =  8.8

     negative rho (up, down):  3.759E-02 0.000E+00

     total cpu time spent up to now is    10220.8 secs

     total energy              =  -12700.00148373 Ry
     Harris-Foulkes estimate   =  -12700.00254100 Ry
     estimated scf accuracy    <       0.00180326 Ry

     iteration # 35     ecut=    80.00 Ry     beta=0.70
     Davidson diagonalization with overlap
     c_bands:  1 eigenvalues not converged
     ethr =  1.39E-07,  avg # of iterations = 13.8

     negative rho (up, down):  1.551E-02 0.000E+00

     total cpu time spent up to now is    10566.5 secs

     total energy              =  -12700.00100571 Ry
     Harris-Foulkes estimate   =  -12700.00159116 Ry
     estimated scf accuracy    <       0.00049304 Ry

     iteration # 36     ecut=    80.00 Ry     beta=0.70
     Davidson diagonalization with overlap
     c_bands:  1 eigenvalues not converged
     ethr =  3.81E-08,  avg # of iterations = 12.3

     negative rho (up, down):  1.019E-02 0.000E+00

     total cpu time spent up to now is    10895.1 secs

     total energy              =  -12700.00086316 Ry
     Harris-Foulkes estimate   =  -12700.00105840 Ry
     estimated scf accuracy    <       0.00030260 Ry

     iteration # 37     ecut=    80.00 Ry     beta=0.70
     Davidson diagonalization with overlap
     c_bands:  1 eigenvalues not converged
     ethr =  2.34E-08,  avg # of iterations =  9.3

     negative rho (up, down):  4.861E-03 0.000E+00

     total cpu time spent up to now is    11170.1 secs

     total energy              =  -12700.00078399 Ry
     Harris-Foulkes estimate   =  -12700.00089192 Ry
     estimated scf accuracy    <       0.00011562 Ry

     iteration # 38     ecut=    80.00 Ry     beta=0.70
     Davidson diagonalization with overlap
     c_bands:  2 eigenvalues not converged
     ethr =  8.94E-09,  avg # of iterations =  9.7

     negative rho (up, down):  1.453E-03 0.000E+00

     total cpu time spent up to now is    11449.9 secs

     total energy              =  -12700.00076682 Ry
     Harris-Foulkes estimate   =  -12700.00079493 Ry
     estimated scf accuracy    <       0.00006815 Ry

     iteration # 39     ecut=    80.00 Ry     beta=0.70
     Davidson diagonalization with overlap
     ethr =  5.27E-09,  avg # of iterations =  5.5

     negative rho (up, down):  1.492E-03 0.000E+00

     total cpu time spent up to now is    11680.2 secs

     total energy              =  -12700.00077346 Ry
     Harris-Foulkes estimate   =  -12700.00077257 Ry
     estimated scf accuracy    <       0.00001769 Ry

     iteration # 40     ecut=    80.00 Ry     beta=0.70
     Davidson diagonalization with overlap
     ethr =  1.37E-09,  avg # of iterations =  2.0

     negative rho (up, down):  1.429E-03 0.000E+00

     total cpu time spent up to now is    11864.7 secs

     total energy              =  -12700.00077418 Ry
     Harris-Foulkes estimate   =  -12700.00077480 Ry
     estimated scf accuracy    <       0.00000743 Ry

     iteration # 41     ecut=    80.00 Ry     beta=0.70
     Davidson diagonalization with overlap
     ethr =  5.75E-10,  avg # of iterations =  2.0

     negative rho (up, down):  1.703E-03 0.000E+00

     total cpu time spent up to now is    12048.8 secs

     total energy              =  -12700.00077537 Ry
     Harris-Foulkes estimate   =  -12700.00077485 Ry
     estimated scf accuracy    <       0.00000311 Ry

     iteration # 42     ecut=    80.00 Ry     beta=0.70
     Davidson diagonalization with overlap
     ethr =  2.40E-10,  avg # of iterations =  2.7

     negative rho (up, down):  1.710E-03 0.000E+00

     total cpu time spent up to now is    12238.2 secs

     total energy              =  -12700.00077562 Ry
     Harris-Foulkes estimate   =  -12700.00077564 Ry
     estimated scf accuracy    <       0.00000049 Ry

     iteration # 43     ecut=    80.00 Ry     beta=0.70
     Davidson diagonalization with overlap
     ethr =  3.78E-11,  avg # of iterations =  3.0

     negative rho (up, down):  1.811E-03 0.000E+00

     total cpu time spent up to now is    12459.5 secs

     total energy              =  -12700.00077561 Ry
     Harris-Foulkes estimate   =  -12700.00077571 Ry
     estimated scf accuracy    <       0.00000021 Ry

     iteration # 44     ecut=    80.00 Ry     beta=0.70
     Davidson diagonalization with overlap
     ethr =  1.62E-11,  avg # of iterations =  2.3

     negative rho (up, down):  1.894E-03 0.000E+00

     total cpu time spent up to now is    12648.4 secs

     total energy              =  -12700.00077542 Ry
     Harris-Foulkes estimate   =  -12700.00077562 Ry
     estimated scf accuracy    <       0.00000006 Ry

     iteration # 45     ecut=    80.00 Ry     beta=0.70
     Davidson diagonalization with overlap
     ethr =  4.32E-12,  avg # of iterations =  3.0

     negative rho (up, down):  1.922E-03 0.000E+00

     total cpu time spent up to now is    12855.3 secs

     total energy              =  -12700.00077539 Ry
     Harris-Foulkes estimate   =  -12700.00077543 Ry
     estimated scf accuracy    <       0.00000002 Ry

     iteration # 46     ecut=    80.00 Ry     beta=0.70
     Davidson diagonalization with overlap
     ethr =  1.77E-12,  avg # of iterations =  2.8

     negative rho (up, down):  1.924E-03 0.000E+00

     total cpu time spent up to now is    13043.9 secs

     End of self-consistent calculation

          k = 0.0000 0.0000 0.0000 (256287 PWs)   bands (ev):

   -16.0697 -15.7065 -15.6838 -14.5941 -14.5850 -14.1105 -14.0990 -13.7607
   -13.7401 -13.7320 -13.7245 -12.7950 -12.7896 -12.6766 -12.6716 -12.6714
   -12.6579 -10.9895 -10.9840 -10.9820 -10.9599 -10.7696  -9.7740  -9.1155
    -9.0923  -9.0864  -9.0820  -8.2361  -8.2123  -8.2038  -8.1985  -7.2448
    -7.2124  -7.1698  -7.1518  -7.1355  -7.1301  -7.1201  -7.1170  -5.7133
    -5.6229  -5.6038  -5.5876  -5.5647  -5.4370  -5.4259  -5.4181  -5.4169
    -5.1870  -5.1626  -4.8891  -4.5242  -4.3051  -4.2835  -4.2752  -4.2464
    -3.9738  -3.9476  -3.8693  -3.8045  -3.6829  -3.6663  -3.2736  -3.1553
    -3.1437  -3.1270  -3.1210  -3.0842  -3.0745  -2.9859  -2.9842  -2.9735
    -2.8899  -2.8796  -2.7095  -2.6881  -2.6869  -2.6829  -2.6348  -2.6269
    -2.6095  -2.5231  -2.4759  -2.4316  -2.4142  -2.3650  -2.3192  -2.3140
    -2.3093  -2.2860  -2.2189  -2.0509  -2.0409  -2.0370  -2.0302  -1.9970
    -1.8876  -1.8729  -1.8622  -1.8348  -1.8344  -1.8316  -1.8284  -1.7471
    -1.7244  -1.7218  -1.7044  -1.7029  -1.6991  -1.6983  -1.6542  -1.6107
    -1.5773  -1.5284  -1.4558  -1.4428  -1.4186  -1.4164  -1.4160  -1.3879
    -1.3799  -1.3530  -1.3386  -1.3354  -1.3287  -1.2832  -1.2706  -1.2477
    -1.2465  -1.2431  -1.2257  -1.2172  -1.2148  -1.2135  -1.1959  -1.1935
    -1.1676  -1.1275  -1.1240  -1.0956  -1.0518  -1.0473  -1.0445  -1.0319
    -0.9834  -0.9781  -0.9552  -0.9457  -0.9404  -0.9351  -0.9277  -0.8915
    -0.8894  -0.8706  -0.8689  -0.8456  -0.8446  -0.8009  -0.7805  -0.7720
    -0.7711  -0.7677  -0.7290  -0.7249  -0.7232  -0.7152  -0.7105  -0.7071
    -0.7063  -0.7016  -0.6986  -0.6973  -0.6949  -0.6782  -0.6680  -0.6504
    -0.6331  -0.6214  -0.6147  -0.6125  -0.6016  -0.6005  -0.5965  -0.5549
    -0.5429  -0.5399  -0.5385  -0.5361  -0.5358  -0.5345  -0.5339  -0.5312
    -0.5296  -0.5288  -0.5275  -0.5261  -0.5256  -0.5212  -0.5204  -0.5135
    -0.5117  -0.4898  -0.4753  -0.4661  -0.4620  -0.3710  -0.3691  -0.3630
    -0.3593  -0.3546  -0.3394  -0.3226  -0.3205  -0.3061  -0.3021  -0.3005
    -0.2945  -0.2885  -0.2862  -0.2834  -0.2730  -0.2640  -0.2468  -0.2443
    -0.2426  -0.2409  -0.2359  -0.2340  -0.2300  -0.2227  -0.1746  -0.1726
    -0.1197  -0.1164  -0.1129  -0.1116  -0.1091  -0.1050  -0.1004  -0.0939
    -0.0888  -0.0863  -0.0861  -0.0843  -0.0825  -0.0805  -0.0715  -0.0653
    -0.0646  -0.0620  -0.0574  -0.0534  -0.0336  -0.0281  -0.0154   0.0213
     0.0233   0.0289   0.0305   0.0454   0.0522   0.0530   0.0545   0.0563
     0.0615   0.0690   0.0757   0.0782   0.0811   0.0943   0.0966   0.0971
     0.0991   0.1007   0.1027   0.1053   0.1056   0.1087   0.1188   0.1264
     0.1286   0.1302   0.1313   0.1469   0.1801   0.1943   0.1952   0.1971
     0.1987   0.2258   0.2324   0.2397   0.2506   0.2526   0.2551   0.2578
     0.2594   0.2609   0.2656   0.2711   0.2842   0.3033   0.3060   0.3090
     0.3224   0.3315   0.3339   0.3362   0.3378   0.3394   0.3445   0.3479
     0.3618   0.3639   0.3660   0.3675   0.3684   0.3723   0.3806   0.3814
     0.3825   0.3828   0.3901   0.3987   0.3997   0.4077   0.4119   0.4169
     0.4204   0.4358   0.4536   0.4557   0.4695   0.4802   0.4872   0.5036
     0.5050   0.5345   0.5537   0.5564   0.5572   0.5597   0.5611   0.5655
     0.5783   0.5825   0.5876   0.5894   0.5901   0.5914   0.5982   0.6114
     0.6471   0.6555   0.6566   0.6589   0.6634   0.6669   0.6713   0.6917
     0.6940   0.6982   0.6984   0.7017   0.7164   0.7302   0.7356   0.7379
     0.7409   0.7429   0.7508   0.7525   0.7544   0.7770   0.7889   0.7985
     0.8046   0.8143   0.8170   0.8176   0.8234   0.8341   0.8403   0.8452
     0.8475   0.8483   0.8499   0.8516   0.8529   0.8546   0.8586   0.8604
     0.8677   0.8706   0.8722   0.8762   0.8785   0.8794   0.9065   0.9156
     0.9206   0.9218   0.9249   0.9309   0.9588   0.9621   0.9633   0.9661
     0.9695   0.9700   0.9713   0.9737   0.9783   0.9792   0.9866   0.9938
     0.9958   0.9971   1.0023   1.0034   1.0047   1.0122   1.0132   1.0221
     1.0323   1.0354   1.0381   1.0421   1.0460   1.0517   1.0593   1.0618
     1.0631   1.0637   1.0651   1.0697   1.0746   1.0764   1.0820   1.1126
     1.1140   1.1186   1.1204   1.1259   1.1318   1.1341   1.1380   1.1398
     1.1422   1.1446   1.1701   1.1721   1.1799   1.1815   1.1931   1.1947
     1.2025   1.2064   1.2110   1.2126   1.2157   1.2204   1.2250   1.2377
     1.2509   1.2535   1.2551   1.2570   1.2583   1.2619   1.2762   1.2814
     1.2869   1.2930   1.3021   1.3036   1.3151   1.3178   1.3202   1.3235
     1.3267   1.3270   1.3293   1.3371   1.3381   1.3420   1.3423   1.3435
     1.3439   1.3487   1.3497   1.3561   1.3576   1.3667   1.3735   1.3784
     1.3826   1.3881   1.3893   1.4011   1.4144   1.4166   1.4210   1.4230
     1.4238   1.4263   1.4297   1.4319   1.4330   1.4338   1.4342   1.4348
     1.4375   1.4501   1.4511   1.4533   1.4846   1.4924   1.4952   1.5076
     1.5160   1.5168   1.5181   1.5201   1.5209   1.5263   1.5317   1.5378
     1.5446   1.5500   1.5547   1.5556   1.5561   1.5570   1.5587   1.5608
     1.5623   1.5730   1.5830   1.5857   1.5876   1.5894   1.5912   1.5928
     1.5942   1.5957   1.6056   1.6111   1.6148   1.6158   1.6230   1.6252
     1.6269   1.6278   1.6293   1.6303   1.6373   1.6386   1.6579   1.6621
     1.6631   1.6706   1.6710   1.6737   1.6756   1.6776   1.6798   1.6872
     1.7004   1.7028   1.7051   1.7062   1.7174   1.7268   1.7314   1.7360
     1.7372   1.7398   1.7407   1.7418   1.7460   1.7471   1.7486   1.7500
     1.7513   1.7529   1.7547   1.7556   1.7572   1.7664   1.7794   1.7813
     1.7816   1.7823   1.7843   1.7900   1.7943   1.8163   1.8189   1.8257
     1.8316   1.8368   1.8630   1.8703   1.8731   1.8746   1.8831   1.8898
     1.8942   1.9002   1.9066   1.9263   1.9364   1.9434   1.9449   1.9458
     1.9465   1.9588   1.9599   1.9628   2.2083   2.2724   2.3259   2.4101
     2.4331   2.4530   2.5167   2.5179   2.5222   2.5244   2.5263   2.5365
     2.5377   2.5386   2.6274   2.7037   2.7369   2.7676   2.7706   2.7749
     2.7866   2.7893   2.9424   3.0207   3.0300   3.0326   3.1106   3.3818
     3.4053   3.4100   3.4170   3.7457   3.8077   3.9473   4.1165   4.1257
     4.1525   4.1574   4.1599   4.1793   4.2306   4.2449   4.2753   4.2837
     4.2994   4.3176   4.3195   4.3217   4.3235   4.4677   4.5304   4.5401
     4.5460   4.6016   4.8418   5.0581   5.0768   5.2743   5.2891   5.3065
     5.5361   5.6099   5.6561   5.7141   5.8776   5.9602   6.0145   6.0238
     6.2401   6.2460   6.3195   6.5895   6.6598   6.7144   6.7194   6.7357
     6.7508   6.7620   6.8595   6.9155   6.9214   6.9444   7.0054   7.0911
     7.0996   7.1059   7.1315   7.1759   7.2385   7.3191   7.3489   7.3625
     7.3787   7.3910   7.4001   7.6387   7.6705   7.7395   7.7860   7.8624
     7.8686   7.9602   7.9723   7.9877   7.9972   8.0018   8.2257   8.4260
     8.4536   8.4865   8.4880   8.4930   8.5283   8.6085   8.6357   8.6472
     8.6536   8.6752   8.6966   8.7281   8.7936   8.8335   8.8617   8.8937
     8.9039   8.9192   8.9365   8.9489   8.9632   9.0894   9.1063   9.1353
     9.1438   9.2836   9.2890   9.3180   9.3567   9.3641   9.3673   9.3792
     9.3848   9.4019   9.4234   9.6024   9.6499   9.7053   9.7946   9.8713
     9.8886  10.0305  10.0357  10.0470  10.0546  10.1441  10.2584  10.3253

          k = 0.0000-0.2165 0.0000 (256176 PWs)   bands (ev):

   -15.9933 -15.9573 -15.2408 -15.2242 -14.0347 -14.0300 -14.0048 -13.9817
   -13.7744 -13.7677 -13.3072 -13.2909 -13.2875 -13.2760 -11.9071 -11.8982
   -11.8937 -11.8749 -11.6746 -11.6644 -10.0041  -9.9846  -9.9807  -9.9733
    -8.7485  -8.7336  -8.5931  -8.5838  -8.5783  -8.5621  -7.7735  -7.7452
    -7.7409  -7.7360  -6.5872  -6.5828  -6.5473  -6.5443  -6.4407  -6.4202
    -6.4084  -6.3964  -5.6314  -5.5936  -5.5758  -5.5614  -4.9449  -4.7733
    -4.7658  -4.7371  -4.6981  -4.6566  -4.5272  -4.5183  -4.2697  -4.2060
    -4.1967  -4.1901  -4.1733  -4.1604  -3.8885  -3.6792  -3.3236  -3.2529
    -3.0268  -2.9824  -2.9814  -2.9789  -2.9171  -2.8665  -2.8604  -2.7559
    -2.7455  -2.7122  -2.6791  -2.6561  -2.6455  -2.6377  -2.6162  -2.4812
    -2.4640  -2.4468  -2.4428  -2.3666  -2.3444  -2.2842  -2.2758  -2.2621
    -2.2598  -2.2573  -2.2567  -2.2550  -2.1810  -2.1688  -2.1279  -1.9930
    -1.9617  -1.9454  -1.9448  -1.9412  -1.9381  -1.9111  -1.8408  -1.8218
    -1.8210  -1.8201  -1.7403  -1.6777  -1.6667  -1.6664  -1.6416  -1.6408
    -1.5965  -1.5487  -1.5276  -1.4541  -1.4468  -1.4418  -1.4325  -1.4296
    -1.4280  -1.4243  -1.4217  -1.4203  -1.4032  -1.3986  -1.3286  -1.3223
    -1.2943  -1.2352  -1.2201  -1.2191  -1.1581  -1.1519  -1.1458  -1.1443
    -1.0744  -1.0542  -1.0518  -1.0487  -0.9994  -0.9930  -0.9703  -0.9605
    -0.9592  -0.9552  -0.9536  -0.9535  -0.9494  -0.9354  -0.9336  -0.9257
    -0.9128  -0.9084  -0.9053  -0.9039  -0.9030  -0.8969  -0.8404  -0.8327
    -0.8289  -0.8261  -0.8171  -0.8112  -0.7698  -0.7678  -0.7306  -0.7294
    -0.7276  -0.7265  -0.7164  -0.6825  -0.6665  -0.6641  -0.6625  -0.6615
    -0.6579  -0.6571  -0.6189  -0.6049  -0.6002  -0.5994  -0.5930  -0.5922
    -0.5874  -0.5815  -0.5772  -0.5762  -0.5264  -0.5126  -0.5068  -0.4996
    -0.4988  -0.4965  -0.4958  -0.4933  -0.4879  -0.4769  -0.4714  -0.4610
    -0.4419  -0.4341  -0.4335  -0.4329  -0.3878  -0.3368  -0.3325  -0.3324
    -0.3310  -0.3123  -0.3116  -0.2908  -0.2880  -0.2849  -0.2838  -0.2803
    -0.2796  -0.2648  -0.2559  -0.2265  -0.2237  -0.2216  -0.2204  -0.2197
    -0.2173  -0.2158  -0.2146  -0.1889  -0.1852  -0.1669  -0.1632  -0.1627
    -0.1482  -0.1341  -0.1300  -0.1282  -0.1273  -0.1181  -0.1169  -0.1159
    -0.1125  -0.1097  -0.0470  -0.0386  -0.0378  -0.0367  -0.0358  -0.0082
    -0.0045  -0.0003   0.0141   0.0157   0.0175   0.0207   0.0244   0.0263
     0.0290   0.0427   0.0484   0.0489   0.0517   0.0608   0.0677   0.0686
     0.0704   0.0714   0.0746   0.0755   0.0763   0.0804   0.0855   0.0863
     0.1109   0.1124   0.1145   0.1150   0.1280   0.1625   0.1713   0.1741
     0.1763   0.1771   0.1813   0.1838   0.1863   0.1915   0.1996   0.2042
     0.2073   0.2152   0.2175   0.2241   0.2272   0.2288   0.2344   0.2375
     0.2411   0.2425   0.2446   0.2459   0.2481   0.2690   0.2915   0.2970
     0.3010   0.3045   0.3105   0.3135   0.3215   0.3239   0.3308   0.3317
     0.3333   0.3397   0.3438   0.3479   0.3500   0.3512   0.3696   0.3744
     0.3782   0.3808   0.3927   0.3938   0.3945   0.3965   0.4139   0.4153
     0.4278   0.4285   0.4320   0.4362   0.4462   0.4478   0.4485   0.4504
     0.4945   0.4994   0.5005   0.5045   0.5100   0.5150   0.5229   0.5242
     0.5388   0.5443   0.5669   0.5805   0.5813   0.5828   0.6186   0.6208
     0.6397   0.6622   0.6635   0.6966   0.7000   0.7016   0.7053   0.7190
     0.7247   0.7276   0.7305   0.7385   0.7405   0.7552   0.7616   0.7631
     0.7665   0.7683   0.7690   0.7735   0.7758   0.7798   0.7868   0.7897
     0.7914   0.7942   0.7969   0.7979   0.7994   0.8030   0.8309   0.8353
     0.8370   0.8409   0.8416   0.8435   0.8511   0.8514   0.8551   0.8663
     0.8671   0.8705   0.8733   0.8750   0.8755   0.8776   0.8778   0.8785
     0.8945   0.8969   0.8987   0.9003   0.9018   0.9021   0.9061   0.9071
     0.9156   0.9172   0.9405   0.9600   0.9646   0.9730   0.9737   0.9793
     0.9812   0.9841   0.9862   0.9915   0.9924   0.9948   0.9962   0.9968
     0.9983   0.9992   1.0256   1.0367   1.0398   1.0436   1.0450   1.0543
     1.0555   1.0586   1.0600   1.0603   1.0629   1.0730   1.0895   1.0902
     1.0905   1.0957   1.0984   1.0996   1.1477   1.1508   1.1774   1.1976
     1.1990   1.2008   1.2079   1.2103   1.2128   1.2181   1.2215   1.2288
     1.2299   1.2314   1.2324   1.2344   1.2397   1.2435   1.2462   1.2494
     1.2514   1.2542   1.2552   1.2589   1.2719   1.2724   1.2811   1.2814
     1.2820   1.2826   1.2842   1.2858   1.2869   1.2885   1.2952   1.2970
     1.3015   1.3032   1.3041   1.3058   1.3077   1.3083   1.3253   1.3262
     1.3314   1.3407   1.3435   1.3443   1.3448   1.3470   1.3529   1.3539
     1.3550   1.3565   1.3591   1.3594   1.4013   1.4057   1.4155   1.4270
     1.4275   1.4446   1.4468   1.4490   1.4594   1.4614   1.4652   1.4710
     1.4827   1.4868   1.4910   1.4959   1.4995   1.5011   1.5067   1.5085
     1.5122   1.5125   1.5132   1.5142   1.5155   1.5181   1.5183   1.5197
     1.5270   1.5282   1.5316   1.5386   1.5438   1.5440   1.5451   1.5464
     1.5499   1.5551   1.5780   1.5807   1.5845   1.5851   1.5862   1.5906
     1.5926   1.5939   1.6057   1.6080   1.6112   1.6123   1.6164   1.6245
     1.6254   1.6301   1.6311   1.6327   1.6397   1.6422   1.6473   1.6498
     1.6646   1.6655   1.6673   1.6714   1.6763   1.6852   1.6926   1.6936
     1.6964   1.6974   1.7041   1.7074   1.7101   1.7111   1.7249   1.7281
     1.7298   1.7413   1.7423   1.7444   1.7589   1.7596   1.7623   1.7639
     1.7660   1.7666   1.7683   1.7686   1.7908   1.7940   1.7968   1.8041
     1.8093   1.8172   1.8180   1.8188   1.8252   1.8320   1.8333   1.8350
     1.8472   1.8478   1.8603   1.8618   1.8672   1.8938   1.9006   1.9017
     1.9378   1.9941   2.0097   2.0236   2.0353   2.0507   2.0533   2.0555
     2.0899   2.0960   2.0975   2.1079   2.1212   2.1276   2.1293   2.1297
     2.1667   2.1719   2.2869   2.4512   2.4622   2.4674   2.6600   2.7118
     2.7276   2.7297   2.7937   2.8118   2.8350   2.8634   2.8672   2.8704
     2.8921   2.8950   2.9944   3.0184   3.0236   3.0448   3.0838   3.0871
     3.2371   3.2393   3.3580   3.4778   3.4782   3.4910   3.5499   3.6756
     3.8905   3.9766   4.0152   4.2902   4.3077   4.3286   4.3621   4.4099
     4.4237   4.4444   4.5674   4.6160   4.6184   4.6249   4.7143   4.7774
     4.8205   4.9582   5.0231   5.0357   5.3397   5.3699   5.4085   5.4224
     5.6118   5.6635   5.6654   5.6740   5.6890   5.7418   5.8915   5.9892
     5.9935   6.1402   6.1868   6.1874   6.4145   6.6232   6.6543   6.6660
     6.7095   6.7196   6.8173   6.8392   6.9390   6.9794   7.0269   7.0686
     7.1792   7.2742   7.3519   7.3540   7.3732   7.3919   7.4053   7.4169
     7.4250   7.4291   7.4810   7.4836   7.5297   7.6121   7.6306   7.6722
     7.6842   7.7263   7.8646   8.0539   8.0735   8.0914   8.0967   8.1223
     8.3881   8.4359   8.4876   8.4958   8.5030   8.6393   8.6532   8.6667
     8.6942   8.6959   8.7728   8.8494   8.9077   8.9307   8.9548   9.0055
     9.0121   9.0188   9.0360   9.0649   9.0920   9.1383   9.1435   9.1643
     9.2798   9.3013   9.3341   9.3875   9.4354   9.5116   9.5368   9.5434
     9.6747   9.6890   9.6925   9.7024   9.7112   9.7322   9.7401   9.7522
     9.9018   9.9045   9.9102   9.9306  10.0989  10.1747  10.1781  10.1893

          k = 0.2500 0.0000 0.0000 (256240 PWs)   bands (ev):

   -15.9457 -15.5834 -15.5602 -14.9569 -14.6010 -14.5779 -14.4690 -14.4616
   -13.5050 -13.4976 -13.0281 -12.6875 -12.6771 -12.6620 -12.6589 -11.7556
   -11.7469 -11.6453 -11.6383 -10.6663 -10.3697 -10.3519 -10.3237  -9.8239
    -9.6687  -9.3724  -9.3568  -8.9718  -8.7174  -8.7056  -8.1572  -7.1826
    -7.1501  -7.1392  -7.1334  -7.0444  -7.0183  -6.5616  -6.2888  -5.7355
    -5.5555  -5.5326  -5.5223  -5.5064  -5.4949  -5.0261  -4.9896  -4.8320
    -4.7766  -4.7278  -4.4061  -4.2745  -4.1441  -4.1400  -4.1137  -3.9825
    -3.9696  -3.9522  -3.9266  -3.7533  -3.6788  -3.6777  -3.6604  -3.5441
    -3.5193  -3.5058  -3.4269  -3.2309  -3.2156  -3.1824  -3.1496  -3.1331
    -3.1200  -3.1114  -3.0309  -3.0222  -2.9397  -2.9154  -2.8239  -2.7767
    -2.7343  -2.7282  -2.6031  -2.5543  -2.4841  -2.4784  -2.4363  -2.4046
    -2.3289  -2.3121  -2.0856  -2.0840  -2.0712  -2.0471  -2.0121  -1.8685
    -1.7808  -1.7754  -1.7611  -1.7572  -1.7099  -1.6961  -1.6476  -1.6231
    -1.5861  -1.5815  -1.5756  -1.5362  -1.4846  -1.4819  -1.4754  -1.4736
    -1.4624  -1.4525  -1.4266  -1.4079  -1.4047  -1.4014  -1.3828  -1.3321
    -1.3255  -1.2868  -1.2803  -1.2774  -1.2626  -1.2604  -1.2593  -1.2582
    -1.2531  -1.2400  -1.2366  -1.2091  -1.1843  -1.1824  -1.1780  -1.1708
    -1.1325  -1.0524  -1.0174  -1.0113  -0.9926  -0.9583  -0.9484  -0.9301
    -0.9249  -0.9216  -0.9182  -0.9145  -0.9114  -0.8933  -0.8865  -0.8760
    -0.8638  -0.8627  -0.8585  -0.8476  -0.8209  -0.8164  -0.8136  -0.8126
    -0.8048  -0.7929  -0.7910  -0.7860  -0.7669  -0.7568  -0.7288  -0.7281
    -0.7262  -0.7242  -0.7209  -0.7006  -0.6982  -0.6930  -0.6923  -0.6849
    -0.6800  -0.6725  -0.6624  -0.6623  -0.6606  -0.6594  -0.6566  -0.6540
    -0.6446  -0.6335  -0.6309  -0.6270  -0.6245  -0.6053  -0.5888  -0.5864
    -0.5813  -0.5786  -0.5715  -0.5554  -0.5341  -0.5319  -0.4962  -0.4954
    -0.4770  -0.4759  -0.4705  -0.4528  -0.4502  -0.4394  -0.4365  -0.4318
    -0.4293  -0.4259  -0.4226  -0.4044  -0.3162  -0.2844  -0.2817  -0.2778
    -0.2537  -0.2492  -0.2484  -0.2402  -0.2335  -0.2302  -0.2298  -0.2254
    -0.2112  -0.2086  -0.2082  -0.2058  -0.1945  -0.1744  -0.1717  -0.1689
    -0.1668  -0.1641  -0.1608  -0.1421  -0.1416  -0.1373  -0.1108  -0.0819
    -0.0809  -0.0782  -0.0716  -0.0706  -0.0691  -0.0615  -0.0573  -0.0558
    -0.0398  -0.0387  -0.0302  -0.0209  -0.0160  -0.0139   0.0094   0.0227
     0.0232   0.0275   0.0287   0.0333   0.0368   0.0466   0.0520   0.0571
     0.0650   0.0698   0.0766   0.0834   0.0960   0.1110   0.1150   0.1178
     0.1204   0.1225   0.1312   0.1360   0.1366   0.1376   0.1411   0.1639
     0.1647   0.1752   0.1782   0.1798   0.1833   0.2015   0.2053   0.2069
     0.2256   0.2456   0.2523   0.2545   0.2595   0.2654   0.2713   0.2785
     0.2881   0.2971   0.3040   0.3062   0.3094   0.3119   0.3151   0.3194
     0.3204   0.3239   0.3256   0.3272   0.3283   0.3451   0.3468   0.3478
     0.3500   0.3545   0.3559   0.3716   0.3752   0.3765   0.3935   0.3952
     0.4057   0.4242   0.4278   0.4326   0.4338   0.4365   0.4399   0.4433
     0.4495   0.4578   0.4591   0.4599   0.4641   0.4832   0.4905   0.5021
     0.5327   0.5466   0.5653   0.5693   0.5772   0.5840   0.5897   0.5926
     0.5950   0.6000   0.6005   0.6024   0.6036   0.6059   0.6088   0.6116
     0.6137   0.6202   0.6235   0.6262   0.6272   0.6305   0.6354   0.6433
     0.6459   0.6517   0.6539   0.6635   0.6714   0.6815   0.6932   0.7139
     0.7179   0.7231   0.7337   0.7378   0.7401   0.7531   0.7551   0.7585
     0.7625   0.7636   0.7707   0.7861   0.7900   0.7944   0.7988   0.8026
     0.8064   0.8076   0.8155   0.8167   0.8269   0.8395   0.8404   0.8474
     0.8556   0.8596   0.8616   0.8624   0.8639   0.8656   0.8681   0.8715
     0.8807   0.8919   0.8984   0.9005   0.9038   0.9080   0.9128   0.9151
     0.9214   0.9259   0.9272   0.9344   0.9356   0.9528   0.9568   0.9636
     0.9710   0.9731   0.9787   0.9793   0.9839   0.9849   0.9968   1.0126
     1.0199   1.0295   1.0375   1.0431   1.0548   1.0576   1.0622   1.0627
     1.0647   1.0730   1.0823   1.0873   1.0895   1.0933   1.0948   1.1015
     1.1064   1.1142   1.1163   1.1304   1.1342   1.1368   1.1398   1.1432
     1.1598   1.1656   1.1723   1.1735   1.1762   1.1963   1.1979   1.2008
     1.2069   1.2082   1.2098   1.2104   1.2168   1.2221   1.2238   1.2248
     1.2427   1.2542   1.2604   1.2633   1.2659   1.2684   1.2757   1.2788
     1.2848   1.2941   1.3013   1.3056   1.3069   1.3098   1.3159   1.3181
     1.3214   1.3260   1.3309   1.3325   1.3349   1.3357   1.3389   1.3395
     1.3425   1.3461   1.3497   1.3514   1.3548   1.3589   1.3667   1.3706
     1.3765   1.3786   1.3837   1.3842   1.3876   1.3914   1.3932   1.4032
     1.4059   1.4126   1.4191   1.4221   1.4228   1.4259   1.4360   1.4393
     1.4490   1.4497   1.4545   1.4593   1.4663   1.4681   1.4703   1.4730
     1.4755   1.4923   1.4976   1.5010   1.5045   1.5058   1.5128   1.5215
     1.5378   1.5460   1.5545   1.5572   1.5590   1.5658   1.5673   1.5693
     1.5708   1.5787   1.5827   1.5865   1.5878   1.5939   1.5947   1.5972
     1.6055   1.6072   1.6128   1.6150   1.6175   1.6204   1.6250   1.6272
     1.6297   1.6302   1.6317   1.6369   1.6372   1.6414   1.6443   1.6492
     1.6578   1.6634   1.6679   1.6694   1.6696   1.6729   1.6741   1.6874
     1.6930   1.6944   1.6961   1.7016   1.7139   1.7157   1.7213   1.7345
     1.7361   1.7371   1.7388   1.7396   1.7406   1.7428   1.7468   1.7502
     1.7528   1.7555   1.7560   1.7644   1.7678   1.7747   1.7779   1.7797
     1.7807   1.7827   1.7848   1.7977   1.7984   1.8042   1.8071   1.8192
     1.8215   1.8217   1.8232   1.8312   1.8326   1.8342   1.8595   1.8717
     1.8840   1.8933   1.8959   1.9339   1.9377   1.9402   1.9428   1.9740
     1.9808   2.0259   2.0588   2.0742   2.0764   2.0918   2.1024   2.1343
     2.1528   2.2924   2.3404   2.3480   2.3724   2.3809   2.3896   2.4382
     2.4928   2.5226   2.5481   2.8459   2.8711   2.8735   2.8744   3.2103
     3.2906   3.2911   3.3993   3.5051   3.5062   3.5330   3.5337   3.5690
     3.6105   3.7497   3.8042   3.8644   3.9055   3.9327   3.9688   4.0003
     4.0134   4.0229   4.0528   4.1180   4.1682   4.1890   4.2609   4.2856
     4.3768   4.4446   4.5092   4.5906   4.6133   4.6918   4.7609   4.8921
     4.9859   5.1385   5.1429   5.2833   5.4775   5.5253   5.5333   5.5487
     5.6181   5.6478   5.7105   5.7641   5.7849   5.8125   5.8497   5.8726
     5.8833   5.9249   5.9955   6.0192   6.0759   6.0954   6.1272   6.1940
     6.3146   6.3235   6.3413   6.3651   6.7149   6.9637   6.9795   7.0159
     7.0256   7.0655   7.0918   7.1121   7.1367   7.2453   7.2780   7.3224
     7.3344   7.3431   7.3596   7.4145   7.4843   7.5300   7.5599   7.5826
     7.7065   7.7482   7.8338   7.8525   7.8810   7.9631   7.9948   8.0351
     8.0383   8.0474   8.1368   8.2538   8.2976   8.3497   8.3662   8.4197
     8.4797   8.5620   8.5947   8.6045   8.6107   8.6382   8.6614   8.6630
     8.6709   8.7408   8.8719   8.9270   8.9421   8.9597   9.2122   9.2244
     9.2913   9.4048   9.4189   9.4469   9.4513   9.4588   9.4634   9.4695
     9.4837   9.4973   9.5061   9.5190   9.5277   9.5359   9.5482   9.6511
     9.6721   9.7891   9.7941   9.9367  10.0175  10.0457  10.0540  10.0716

          k = 0.2500-0.2165 0.0000 (256316 PWs)   bands (ev):

   -15.8692 -15.8336 -15.1193 -15.1016 -14.8825 -14.8430 -14.1401 -14.1250
   -13.6541 -13.6480 -12.9565 -12.9190 -12.7052 -12.6991 -12.2423 -12.2274
   -11.5642 -11.5551 -10.9398 -10.9386 -10.6848 -10.6745 -10.3139 -10.2804
    -9.2504  -9.2380  -8.7288  -8.7209  -8.6497  -8.6354  -8.0943  -8.0805
    -7.9971  -7.9836  -6.2870  -6.2729  -6.2409  -6.2315  -6.1389  -6.0845
    -5.9071  -5.8794  -5.5839  -5.5529  -5.4054  -5.3836  -4.8533  -4.7690
    -4.6674  -4.4981  -4.4327  -4.4279  -4.3642  -4.3548  -4.1319  -4.0256
    -4.0225  -4.0144  -3.8208  -3.7975  -3.7666  -3.7443  -3.7418  -3.5302
    -3.4350  -3.3935  -3.3221  -3.2574  -3.1871  -3.1685  -3.1438  -3.1389
    -3.1222  -3.1083  -2.8894  -2.8382  -2.8140  -2.7994  -2.6832  -2.6751
    -2.6699  -2.6122  -2.6043  -2.5896  -2.5637  -2.5005  -2.4785  -2.4501
    -2.2783  -2.2091  -2.1949  -2.1242  -2.0123  -1.9917  -1.9799  -1.9180
    -1.8750  -1.8718  -1.8497  -1.8491  -1.7435  -1.6901  -1.6874  -1.6672
    -1.6543  -1.6308  -1.5622  -1.5165  -1.5064  -1.5036  -1.4942  -1.4928
    -1.4789  -1.4361  -1.4135  -1.4030  -1.3923  -1.3885  -1.3858  -1.3752
    -1.3696  -1.3648  -1.3574  -1.3570  -1.3564  -1.3486  -1.3466  -1.3427
    -1.2657  -1.2592  -1.2234  -1.1490  -1.1453  -1.0523  -1.0500  -1.0293
    -1.0115  -1.0080  -0.9977  -0.9631  -0.9598  -0.9545  -0.9432  -0.9419
    -0.9302  -0.9293  -0.9277  -0.9218  -0.9094  -0.9084  -0.8984  -0.8932
    -0.8891  -0.8866  -0.8824  -0.8747  -0.8673  -0.8643  -0.8526  -0.8184
    -0.8100  -0.8071  -0.8069  -0.7996  -0.7948  -0.7929  -0.7745  -0.7659
    -0.7641  -0.7541  -0.7207  -0.7195  -0.7160  -0.7087  -0.7066  -0.7015
    -0.6760  -0.6753  -0.6727  -0.6513  -0.6431  -0.6420  -0.6406  -0.6357
    -0.6338  -0.6319  -0.6062  -0.6032  -0.5885  -0.5869  -0.5627  -0.5471
    -0.5454  -0.5425  -0.5407  -0.4831  -0.4639  -0.4612  -0.4546  -0.4531
    -0.4524  -0.4504  -0.4257  -0.4117  -0.4102  -0.4030  -0.3947  -0.3931
    -0.3870  -0.3852  -0.3801  -0.3753  -0.3729  -0.3348  -0.3319  -0.3209
    -0.2962  -0.2945  -0.2578  -0.2510  -0.2476  -0.2442  -0.2416  -0.2260
    -0.2225  -0.2144  -0.2033  -0.2014  -0.1854  -0.1841  -0.1716  -0.1691
    -0.1623  -0.1383  -0.1357  -0.1329  -0.1239  -0.1214  -0.0951  -0.0910
    -0.0838  -0.0779  -0.0740  -0.0701  -0.0647  -0.0619  -0.0512  -0.0494
    -0.0456  -0.0446  -0.0434  -0.0375  -0.0368  -0.0341  -0.0322  -0.0187
    -0.0168  -0.0144   0.0000   0.0008   0.0214   0.0301   0.0389   0.0423
     0.0581   0.0605   0.0695   0.0786   0.0844   0.0868   0.0939   0.1018
     0.1025   0.1056   0.1319   0.1396   0.1571   0.1637   0.1691   0.1959
     0.2009   0.2064   0.2083   0.2103   0.2121   0.2262   0.2300   0.2361
     0.2464   0.2471   0.2500   0.2586   0.2655   0.2687   0.2703   0.2728
     0.2747   0.2758   0.2991   0.3040   0.3064   0.3111   0.3129   0.3142
     0.3154   0.3173   0.3192   0.3207   0.3240   0.3252   0.3390   0.3457
     0.3475   0.3498   0.3556   0.3754   0.3813   0.3882   0.3903   0.3944
     0.3974   0.4143   0.4181   0.4369   0.4431   0.4465   0.4475   0.4570
     0.4596   0.4611   0.4644   0.4660   0.4694   0.4740   0.4848   0.4866
     0.4946   0.4956   0.5162   0.5212   0.5621   0.5820   0.5836   0.5950
     0.5987   0.6011   0.6021   0.6041   0.6048   0.6077   0.6112   0.6125
     0.6202   0.6356   0.6364   0.6372   0.6381   0.6443   0.6476   0.6492
     0.6525   0.6539   0.6594   0.6791   0.6833   0.6935   0.6966   0.7132
     0.7147   0.7161   0.7356   0.7473   0.7561   0.7624   0.7668   0.7705
     0.7759   0.7775   0.7851   0.7868   0.7913   0.7920   0.7938   0.7948
     0.8018   0.8045   0.8102   0.8257   0.8317   0.8355   0.8412   0.8459
     0.8538   0.8825   0.8833   0.8860   0.8872   0.9086   0.9132   0.9160
     0.9168   0.9189   0.9229   0.9279   0.9286   0.9311   0.9351   0.9386
     0.9433   0.9479   0.9526   0.9574   0.9609   0.9673   0.9724   0.9767
     0.9802   0.9837   0.9840   0.9868   0.9878   0.9954   0.9991   1.0021
     1.0036   1.0066   1.0186   1.0208   1.0218   1.0230   1.0268   1.0311
     1.0339   1.0354   1.0380   1.0391   1.0725   1.0736   1.0817   1.0821
     1.0944   1.1012   1.1184   1.1209   1.1383   1.1389   1.1403   1.1426
     1.1439   1.1454   1.1572   1.1663   1.1688   1.1689   1.1709   1.1716
     1.1732   1.1808   1.1880   1.1959   1.1978   1.2025   1.2063   1.2112
     1.2176   1.2228   1.2408   1.2424   1.2476   1.2573   1.2626   1.2670
     1.2712   1.2739   1.2801   1.2828   1.2891   1.2901   1.2972   1.3008
     1.3114   1.3154   1.3186   1.3281   1.3347   1.3427   1.3438   1.3519
     1.3586   1.3746   1.3786   1.3841   1.3905   1.3947   1.4017   1.4020
     1.4043   1.4045   1.4051   1.4061   1.4072   1.4094   1.4184   1.4197
     1.4213   1.4281   1.4323   1.4338   1.4488   1.4524   1.4629   1.4773
     1.4799   1.4831   1.4853   1.4877   1.4896   1.4905   1.4969   1.4984
     1.5015   1.5029   1.5059   1.5071   1.5091   1.5099   1.5161   1.5178
     1.5196   1.5221   1.5262   1.5279   1.5355   1.5365   1.5384   1.5403
     1.5484   1.5508   1.5605   1.5610   1.5841   1.5852   1.5911   1.5931
     1.5998   1.6049   1.6064   1.6109   1.6182   1.6243   1.6248   1.6267
     1.6301   1.6361   1.6418   1.6440   1.6470   1.6483   1.6599   1.6619
     1.6628   1.6630   1.6694   1.6755   1.6846   1.6864   1.6903   1.6959
     1.6965   1.6971   1.6983   1.7020   1.7059   1.7066   1.7159   1.7173
     1.7245   1.7259   1.7302   1.7318   1.7343   1.7410   1.7491   1.7515
     1.7525   1.7537   1.7558   1.7568   1.7579   1.7592   1.7604   1.7633
     1.7684   1.7689   1.7925   1.7928   1.8039   1.8062   1.8151   1.8162
     1.8304   1.8315   1.8376   1.8415   1.8495   1.8641   1.8648   1.8714
     1.8735   1.8967   1.8979   1.9301   1.9514   1.9559   1.9669   1.9703
     2.0260   2.0606   2.0650   2.0707   2.0827   2.0919   2.0949   2.0978
     2.1082   2.1159   2.1250   2.1467   2.4384   2.4391   2.4639   2.4689
     2.5728   2.5988   2.8907   2.8979   2.9407   3.0778   3.0941   3.0985
     3.1035   3.1076   3.1175   3.1232   3.2680   3.2935   3.3094   3.3781
     3.6035   3.8322   3.8436   3.8879   3.8945   3.9382   4.0957   4.1420
     4.1491   4.1517   4.2346   4.2918   4.3372   4.3764   4.4239   4.4726
     4.4906   4.6727   4.6835   4.6876   4.7813   4.8254   4.8599   4.9558
     4.9755   5.0228   5.0619   5.1017   5.1343   5.1766   5.2434   5.2989
     5.4104   5.4333   5.4945   5.5491   5.6760   5.7269   5.7419   5.7494
     5.7650   5.7924   6.0536   6.0703   6.0862   6.1532   6.2605   6.2709
     6.2852   6.3454   6.6484   6.8460   6.8907   6.8948   6.9669   7.0206
     7.0540   7.1148   7.1736   7.2889   7.3011   7.3317   7.3649   7.3759
     7.3932   7.4629   7.4875   7.5222   7.5828   7.6033   7.6253   7.6408
     7.6498   7.6542   7.6813   7.6862   7.7286   7.7339   7.9140   7.9599
     8.0525   8.0691   8.1978   8.2350   8.2666   8.2701   8.4574   8.4945
     8.5052   8.5391   8.6162   8.6603   8.6686   8.7634   8.8178   8.8746
     8.8929   8.9024   8.9801   8.9886   8.9919   9.0045   9.0721   9.0850
     9.0966   9.1564   9.1992   9.2228   9.3151   9.3187   9.3493   9.4030
     9.4349   9.4536   9.4771   9.5161   9.5495   9.5570   9.5750   9.6027
     9.6321   9.6509   9.6624   9.6651   9.7016   9.7271  10.0232  10.0643

          k =-0.5000 0.0000 0.0000 (256496 PWs)   bands (ev):

   -15.5923 -15.5567 -15.2404 -15.2014 -15.1811 -15.1785 -14.1295 -14.1148
   -14.0864 -14.0811 -12.3466 -12.3381 -12.3129 -12.2974 -11.7574 -11.7476
   -11.4455 -11.4206 -11.4079 -11.4027 -10.7762 -10.7700 -10.3687 -10.3303
    -9.7760  -9.7603  -9.3852  -9.3551  -8.5456  -8.5372  -8.5232  -8.5048
    -7.0570  -7.0258  -6.9924  -6.9578  -6.9545  -6.9445  -5.5171  -5.5133
    -5.0303  -4.9877  -4.8043  -4.7827  -4.6886  -4.4855  -4.4853  -4.4770
    -4.4393  -4.3704  -4.3634  -4.3582  -4.3496  -4.2819  -4.2793  -4.2722
    -4.2344  -4.1087  -4.0060  -3.9920  -3.9761  -3.9697  -3.9239  -3.6834
    -3.6773  -3.6518  -3.6463  -3.6098  -3.3142  -3.2372  -3.2306  -3.2226
    -3.1130  -3.1013  -3.0995  -3.0957  -2.9918  -2.9839  -2.9709  -2.9679
    -2.9612  -2.9552  -2.6891  -2.4452  -2.4226  -2.4139  -2.3980  -2.3851
    -2.3665  -2.3557  -2.3098  -2.2996  -2.2203  -2.1019  -2.0851  -2.0817
    -2.0077  -1.9943  -1.9924  -1.9880  -1.5633  -1.5628  -1.5604  -1.5580
    -1.5569  -1.5537  -1.4503  -1.4437  -1.4406  -1.4360  -1.3775  -1.3330
    -1.3309  -1.3288  -1.3137  -1.2843  -1.2821  -1.2795  -1.2764  -1.2599
    -1.2578  -1.1893  -1.1730  -1.1692  -1.1453  -1.1104  -1.1071  -1.1042
    -1.0909  -1.0881  -1.0850  -1.0807  -1.0691  -1.0577  -1.0448  -1.0376
    -1.0373  -1.0347  -1.0333  -1.0267  -1.0237  -1.0231  -1.0217  -1.0209
    -0.9860  -0.9749  -0.9743  -0.9700  -0.9573  -0.9496  -0.9479  -0.9464
    -0.9399  -0.8863  -0.8844  -0.8641  -0.8629  -0.8614  -0.8606  -0.8450
    -0.8408  -0.8350  -0.8333  -0.8304  -0.8284  -0.8270  -0.7889  -0.7881
    -0.7866  -0.7852  -0.7756  -0.7634  -0.7621  -0.7350  -0.7343  -0.6921
    -0.6903  -0.6615  -0.6607  -0.6594  -0.6578  -0.6567  -0.6389  -0.6363
    -0.6331  -0.6314  -0.6207  -0.6181  -0.6122  -0.6117  -0.6097  -0.6087
    -0.6084  -0.6037  -0.5997  -0.5800  -0.5714  -0.5271  -0.5218  -0.5188
    -0.5132  -0.4775  -0.4732  -0.3936  -0.3919  -0.3918  -0.3897  -0.3574
    -0.3552  -0.3547  -0.3526  -0.3515  -0.3504  -0.3380  -0.3342  -0.3286
    -0.3184  -0.3133  -0.3110  -0.3080  -0.3057  -0.2962  -0.2862  -0.2784
    -0.2774  -0.2755  -0.2396  -0.1866  -0.1823  -0.1786  -0.1749  -0.1506
    -0.1428  -0.1396  -0.1384  -0.1364  -0.1079  -0.0959  -0.0914  -0.0872
    -0.0860  -0.0845  -0.0839  -0.0820  -0.0688  -0.0525  -0.0517  -0.0494
    -0.0487  -0.0480  -0.0183  -0.0141  -0.0127  -0.0109   0.0191   0.0208
     0.0222   0.0241   0.0348   0.0361   0.0472   0.0667   0.0686   0.0700
     0.0705   0.0796   0.0807   0.0815   0.1016   0.1075   0.1180   0.1222
     0.1564   0.1771   0.1791   0.1807   0.1818   0.1884   0.1892   0.1900
     0.1926   0.2251   0.2260   0.2304   0.2339   0.2648   0.2685   0.2840
     0.2869   0.2878   0.2901   0.2924   0.2931   0.2939   0.2944   0.2966
     0.2975   0.2985   0.3022   0.3376   0.3513   0.3623   0.3730   0.3758
     0.3835   0.3853   0.3884   0.3892   0.3907   0.3915   0.3939   0.3961
     0.3982   0.3990   0.4022   0.4032   0.4077   0.4096   0.4170   0.4180
     0.4275   0.4298   0.4315   0.4320   0.4330   0.4334   0.4420   0.4439
     0.4454   0.4475   0.4550   0.4577   0.4614   0.4676   0.4685   0.4690
     0.4705   0.4786   0.4882   0.5014   0.5039   0.5914   0.5947   0.5983
     0.6031   0.6057   0.6086   0.6138   0.6341   0.6394   0.6408   0.6412
     0.6451   0.6479   0.6536   0.6575   0.6599   0.6627   0.6638   0.6660
     0.6672   0.6702   0.6721   0.6726   0.6750   0.6768   0.6800   0.6845
     0.6875   0.6970   0.7013   0.7059   0.7073   0.7092   0.7124   0.7142
     0.7164   0.7187   0.7420   0.7772   0.7915   0.7940   0.8070   0.8094
     0.8114   0.8159   0.8274   0.8329   0.8349   0.8363   0.8429   0.8432
     0.8440   0.8451   0.8500   0.8511   0.8531   0.8542   0.8554   0.8565
     0.8578   0.8597   0.8642   0.8655   0.8785   0.8832   0.8956   0.9003
     0.9052   0.9186   0.9253   0.9275   0.9309   0.9333   0.9375   0.9402
     0.9444   0.9483   0.9490   0.9498   0.9513   0.9537   0.9614   0.9641
     0.9674   0.9679   0.9785   0.9810   0.9848   0.9861   1.0110   1.0212
     1.0237   1.0258   1.0270   1.0283   1.0409   1.0427   1.0654   1.0710
     1.0714   1.0753   1.0800   1.0824   1.0850   1.0861   1.1200   1.1262
     1.1445   1.1500   1.1506   1.1543   1.1545   1.1553   1.1570   1.1594
     1.1608   1.1672   1.1701   1.1725   1.1790   1.1809   1.1989   1.2002
     1.2021   1.2044   1.2077   1.2095   1.2138   1.2183   1.2229   1.2250
     1.2264   1.2282   1.2424   1.2560   1.2574   1.2599   1.2936   1.3184
     1.3251   1.3258   1.3295   1.3297   1.3442   1.3544   1.3558   1.3612
     1.3643   1.3653   1.3745   1.3789   1.3892   1.3925   1.3932   1.3966
     1.4012   1.4034   1.4056   1.4231   1.4256   1.4284   1.4311   1.4315
     1.4360   1.4381   1.4394   1.4420   1.4429   1.4486   1.4491   1.4506
     1.4545   1.4550   1.4567   1.4575   1.4715   1.4830   1.4921   1.4923
     1.5029   1.5110   1.5143   1.5173   1.5197   1.5258   1.5273   1.5287
     1.5363   1.5432   1.5537   1.5546   1.5564   1.5571   1.5582   1.5625
     1.5639   1.5684   1.5693   1.5697   1.5755   1.5844   1.5864   1.5896
     1.6034   1.6143   1.6221   1.6257   1.6271   1.6282   1.6288   1.6301
     1.6304   1.6361   1.6383   1.6412   1.6428   1.6435   1.6438   1.6451
     1.6458   1.6475   1.6479   1.6493   1.6531   1.6537   1.6550   1.6582
     1.6623   1.6662   1.6752   1.6782   1.6828   1.6903   1.6921   1.6953
     1.6975   1.7017   1.7076   1.7084   1.7260   1.7273   1.7310   1.7322
     1.7432   1.7439   1.7498   1.7507   1.7583   1.7601   1.7613   1.7628
     1.7732   1.7785   1.7800   1.7815   1.7853   1.7895   1.7911   1.7917
     1.7935   1.7957   1.7998   1.8018   1.8082   1.8154   1.8267   1.8280
     1.8286   1.8289   1.8357   1.8367   1.8432   1.8459   1.8872   1.8916
     1.9186   1.9200   1.9216   1.9232   1.9278   1.9414   2.2750   2.3312
     2.3339   2.3348   2.4932   2.5415   2.5418   2.5493   2.5962   2.5988
     2.6044   2.6057   2.8028   2.8963   2.9057   2.9120   3.1180   3.1365
     3.1413   3.1455   3.4619   3.4987   3.4995   3.5021   3.6210   3.7756
     3.8142   4.0299   4.0369   4.0445   4.1439   4.2167   4.2231   4.2276
     4.2716   4.3768   4.3785   4.3826   4.3883   4.4329   4.5456   4.7622
     4.8228   4.8890   4.9375   4.9884   5.0062   5.0164   5.1281   5.1382
     5.1741   5.1799   5.2505   5.3330   5.3362   5.3448   5.3540   5.3594
     5.3634   5.3661   5.3823   5.3897   5.3962   5.4815   5.4971   5.5145
     5.7281   5.8137   5.8430   5.8449   5.8622   5.9106   6.0671   6.2062
     6.2463   6.2870   6.2893   6.3028   6.3042   6.3115   6.3155   6.3270
     6.5296   6.6733   6.6787   6.6914   6.7429   6.8112   6.8152   6.8289
     7.2944   7.3659   7.3835   7.3929   7.3971   7.4162   7.7287   7.8515
     7.8803   7.8894   7.8934   7.8969   7.9024   7.9159   8.0274   8.0383
     8.0856   8.1271   8.1323   8.1534   8.1703   8.1769   8.2441   8.3208
     8.3464   8.3507   8.3580   8.3756   8.3863   8.3914   8.5218   8.5364
     8.5378   8.5442   8.6596   8.6627   8.9973   9.1062   9.1146   9.1181
     9.1772   9.1852   9.1854   9.1862   9.2241   9.3221   9.3366   9.3417
     9.4148   9.4534   9.4930   9.5514   9.5696   9.7280   9.7512   9.7522
     9.7671   9.7962   9.8066   9.8134   9.8255   9.8335   9.9326   9.9352

          k =-0.5000-0.2165 0.0000 (256328 PWs)   bands (ev):

   -15.5106 -15.4920 -15.4873 -15.4287 -14.7734 -14.7475 -14.7249 -14.7178
   -13.3171 -13.3070 -13.2793 -13.2694 -11.6882 -11.6837 -11.6578 -11.6388
   -11.2526 -11.2366 -11.2169 -11.1989 -11.0660 -11.0499 -11.0351 -11.0317
    -9.3648  -9.3606  -9.3344  -9.3110  -8.4083  -8.3891  -8.3771  -8.3546
    -7.6249  -7.6215  -7.6180  -7.5931  -5.6000  -5.5396  -5.5366  -5.5243
    -4.9746  -4.9270  -4.9153  -4.9016  -4.8830  -4.8623  -4.8605  -4.8557
    -4.7098  -4.6999  -4.6729  -4.6494  -4.4836  -4.0219  -4.0198  -3.9616
    -3.8865  -3.8814  -3.8773  -3.8748  -3.8118  -3.8096  -3.8084  -3.8014
    -3.6704  -3.5610  -3.5554  -3.5354  -3.3641  -3.2826  -3.2806  -3.2737
    -3.2713  -3.2653  -3.2402  -3.2327  -3.2318  -3.0986  -3.0951  -3.0859
    -2.8096  -2.7319  -2.7225  -2.7193  -2.2907  -2.2609  -2.2588  -2.2587
    -2.2410  -2.2237  -2.2112  -2.2086  -1.9578  -1.9445  -1.9399  -1.9273
    -1.9251  -1.7777  -1.7716  -1.7701  -1.7182  -1.7065  -1.7053  -1.7021
    -1.6861  -1.6574  -1.6453  -1.6069  -1.6022  -1.4878  -1.4818  -1.4815
    -1.4762  -1.3876  -1.3729  -1.3696  -1.2525  -1.1800  -1.1788  -1.1764
    -1.1757  -1.1711  -1.1692  -1.1647  -1.1599  -1.1413  -1.1358  -1.1341
    -1.1167  -1.1158  -1.1148  -1.1114  -1.0700  -1.0670  -1.0649  -1.0643
    -1.0631  -1.0621  -1.0602  -1.0567  -1.0421  -1.0374  -1.0362  -1.0351
    -0.9948  -0.9892  -0.9874  -0.9854  -0.9419  -0.9196  -0.9186  -0.9162
    -0.8771  -0.8734  -0.8700  -0.8662  -0.8614  -0.8526  -0.8500  -0.8482
    -0.8137  -0.8056  -0.8048  -0.8031  -0.7967  -0.7956  -0.7948  -0.7946
    -0.7783  -0.7764  -0.7723  -0.7705  -0.7406  -0.7363  -0.7359  -0.7347
    -0.7237  -0.7219  -0.7208  -0.7189  -0.7170  -0.7165  -0.7150  -0.7141
    -0.6780  -0.6532  -0.6316  -0.6198  -0.6125  -0.5698  -0.5627  -0.5613
    -0.5471  -0.5330  -0.5321  -0.5308  -0.5282  -0.4588  -0.4520  -0.4516
    -0.4506  -0.4488  -0.4476  -0.4465  -0.4450  -0.4434  -0.4413  -0.4401
    -0.4263  -0.3823  -0.3820  -0.3795  -0.3789  -0.3701  -0.3684  -0.3663
    -0.3629  -0.3516  -0.3455  -0.3426  -0.3407  -0.2623  -0.2543  -0.2530
    -0.2505  -0.2459  -0.2450  -0.2426  -0.1856  -0.1833  -0.1824  -0.1769
    -0.1721  -0.1329  -0.1327  -0.1299  -0.1254  -0.1170  -0.1110  -0.1090
    -0.1080  -0.0838  -0.0825  -0.0823  -0.0738  -0.0728  -0.0715  -0.0683
    -0.0533  -0.0349  -0.0251  -0.0204   0.0350   0.0425   0.0483   0.0485
     0.0507   0.0593   0.0606   0.0621   0.0634   0.0762   0.0779   0.0799
     0.0879   0.1540   0.1547   0.1568   0.1583   0.1602   0.1627   0.1631
     0.1650   0.1667   0.1674   0.1710   0.1759   0.2012   0.2028   0.2049
     0.2069   0.2129   0.2162   0.2168   0.2188   0.2198   0.2221   0.2237
     0.2250   0.2846   0.2874   0.2884   0.2916   0.3114   0.3193   0.3203
     0.3222   0.3308   0.3621   0.3663   0.3683   0.3749   0.3788   0.3848
     0.3925   0.3941   0.3949   0.3959   0.3981   0.4031   0.4038   0.4066
     0.4083   0.4109   0.4139   0.4141   0.4150   0.4173   0.4194   0.4215
     0.4218   0.4239   0.4244   0.4250   0.4374   0.4396   0.4419   0.4440
     0.4618   0.4634   0.4657   0.4661   0.4748   0.4797   0.4802   0.4825
     0.5049   0.5270   0.5291   0.5303   0.5338   0.5599   0.5617   0.5646
     0.5668   0.6183   0.6225   0.6267   0.6365   0.6394   0.6462   0.6494
     0.6500   0.6592   0.6628   0.6634   0.6670   0.6690   0.6756   0.6781
     0.6806   0.6814   0.6821   0.6853   0.6858   0.6860   0.6877   0.6923
     0.6925   0.6944   0.6980   0.7044   0.7112   0.7233   0.7320   0.7409
     0.7480   0.7551   0.7621   0.7665   0.7687   0.7721   0.7773   0.7783
     0.7793   0.7805   0.7812   0.7849   0.8198   0.8219   0.8244   0.8255
     0.8270   0.8285   0.8302   0.8309   0.8618   0.8648   0.8677   0.8747
     0.8762   0.8781   0.8813   0.8834   0.8840   0.8856   0.8881   0.8904
     0.8921   0.8943   0.8974   0.8990   0.9031   0.9049   0.9076   0.9102
     0.9192   0.9206   0.9215   0.9285   0.9728   0.9838   0.9899   0.9945
     0.9982   1.0003   1.0016   1.0034   1.0042   1.0045   1.0084   1.0098
     1.0146   1.0232   1.0246   1.0341   1.0381   1.0422   1.0431   1.0444
     1.0454   1.0460   1.0476   1.0489   1.0926   1.0961   1.0991   1.1015
     1.1213   1.1275   1.1284   1.1308   1.1311   1.1391   1.1444   1.1496
     1.1573   1.1627   1.1631   1.1654   1.1731   1.1840   1.1876   1.1904
     1.2350   1.2412   1.2438   1.2452   1.2594   1.2710   1.2730   1.2755
     1.3007   1.3210   1.3225   1.3261   1.3286   1.3355   1.3384   1.3399
     1.3421   1.3445   1.3542   1.3553   1.3561   1.3572   1.3584   1.3594
     1.3613   1.3630   1.3641   1.3647   1.3649   1.3716   1.3778   1.3837
     1.3858   1.3863   1.3888   1.3893   1.3922   1.3944   1.3989   1.3994
     1.4033   1.4038   1.4124   1.4130   1.4319   1.4353   1.4360   1.4379
     1.4398   1.4422   1.4437   1.4452   1.4527   1.4535   1.4560   1.4563
     1.4909   1.4921   1.5045   1.5055   1.5070   1.5094   1.5116   1.5138
     1.5223   1.5320   1.5351   1.5380   1.5386   1.5447   1.5536   1.5552
     1.5577   1.5627   1.5689   1.5706   1.5781   1.5810   1.5852   1.5875
     1.5935   1.5952   1.5957   1.5979   1.6013   1.6025   1.6038   1.6046
     1.6536   1.6612   1.6638   1.6663   1.6679   1.6696   1.6704   1.6706
     1.6708   1.6725   1.6751   1.6773   1.6784   1.6827   1.6866   1.6884
     1.6901   1.6930   1.6963   1.6979   1.6995   1.7000   1.7002   1.7027
     1.7052   1.7062   1.7077   1.7107   1.7161   1.7184   1.7208   1.7225
     1.7250   1.7253   1.7286   1.7307   1.7589   1.7618   1.7625   1.7627
[...]
     atom   50 type  1   force =     0.00031258    0.00049790    0.00025963
     atom   51 type  1   force =     0.00027868   -0.00001989   -0.00000673
     atom   52 type  1   force =    -0.00005266   -0.00044763   -0.00059570
     atom   53 type  1   force =     0.00039576    0.00012409   -0.00018330
     atom   54 type  1   force =     0.00001634   -0.00039524   -0.00001852
     atom   55 type  1   force =    -0.00065775    0.00008656   -0.00015661
     atom   56 type  1   force =     0.00012753    0.00046124   -0.00018761
     atom   57 type  1   force =    -0.00018705   -0.00006179    0.00014204
     atom   58 type  1   force =    -0.00009370   -0.00006326   -0.00002333
     atom   59 type  1   force =     0.00006028   -0.00007335    0.00006613
     atom   60 type  1   force =    -0.00004928   -0.00005053    0.00018660
     atom   61 type  1   force =    -0.00017122   -0.00081271   -0.00024693
     atom   62 type  1   force =     0.00007054   -0.00016495    0.00016173
     atom   63 type  1   force =     0.00021124   -0.00036505    0.00013024
     atom   64 type  1   force =    -0.00001607   -0.00043670   -0.00018549
     atom   65 type  1   force =     0.00087061   -0.00095040    0.00009905
     atom   66 type  1   force =    -0.00001532    0.00043711    0.00001946
     atom   67 type  1   force =     0.00037662   -0.00086434   -0.00011412
     atom   68 type  1   force =    -0.00037090   -0.00044526   -0.00030590
     atom   69 type  1   force =     0.00055197    0.00012600    0.00004335
     atom   70 type  1   force =    -0.00014504   -0.00026973   -0.00136919
     atom   71 type  1   force =     0.00077218   -0.00045890    0.00077130
     atom   72 type  1   force =    -0.00088730    0.00002014    0.00119957
     atom   73 type  1   force =     0.00007693    0.00030549    0.00005496
     atom   74 type  1   force =     0.00022267   -0.00020578   -0.00001243
     atom   75 type  1   force =    -0.00013151   -0.00010703    0.00020057
     atom   76 type  1   force =    -0.00013284    0.00015255   -0.00006907
     atom   77 type  1   force =    -0.00038201   -0.00008310   -0.00012991
     atom   78 type  1   force =     0.00003032    0.00009661    0.00010635
     atom   79 type  1   force =     0.00010978   -0.00005280    0.00002406
     atom   80 type  1   force =    -0.00003341    0.00005334   -0.00005109
     atom   81 type  1   force =    -0.00013618   -0.00015987    0.00015408
     atom   82 type  1   force =     0.00028074    0.00036833   -0.00006902
     atom   83 type  1   force =     0.00005807   -0.00010654    0.00005582
     atom   84 type  1   force =    -0.00038821   -0.00067907    0.00001108
     atom   85 type  1   force =     0.00089086   -0.00019202   -0.00041972
     atom   86 type  1   force =     0.00098893    0.00025621    0.00130018
     atom   87 type  1   force =    -0.00053720    0.00001259   -0.00043327
     atom   88 type  1   force =     0.00008998    0.00066579   -0.00042943
     atom   89 type  1   force =    -0.00073580   -0.00067812   -0.00017664
     atom   90 type  1   force =     0.00087510   -0.00070420    0.00050314
     atom   91 type  1   force =     0.00003831   -0.00061837    0.00103870
     atom   92 type  1   force =    -0.00071257   -0.00145775   -0.00042907
     atom   93 type  1   force =     0.00108069    0.00020079    0.00012876
     atom   94 type  1   force =     0.00028454    0.00029818    0.00016311
     atom   95 type  1   force =    -0.00041144   -0.00027779   -0.00020281
     atom   96 type  1   force =     0.00019178   -0.00029972   -0.00000317
     atom   97 type  1   force =    -0.00018848    0.00006729    0.00010026
     atom   98 type  1   force =    -0.00009840   -0.00006840    0.00005787
     atom   99 type  1   force =     0.00015370   -0.00011298    0.00000457
     atom  100 type  1   force =    -0.00010731   -0.00005931   -0.00013900
     atom  101 type  2   force =     0.00019394    0.00133654    0.00046306
     atom  102 type  2   force =    -0.00100670    0.00046253   -0.00047260
     atom  103 type  2   force =     0.00029090   -0.00090897   -0.00066694
     atom  104 type  2   force =     0.00098463   -0.00056839    0.00012308
     atom  105 type  2   force =     0.00003498    0.00056992    0.00024961
     atom  106 type  2   force =     0.00003787   -0.00068225    0.00111712
     atom  107 type  2   force =    -0.00041057   -0.00127038   -0.00067154
     atom  108 type  2   force =     0.00066165   -0.00070588   -0.00138162
     atom  109 type  2   force =     0.00052444    0.00134123    0.00057195
     atom  110 type  2   force =     0.00051247    0.00012267   -0.00065916
     atom  111 type  2   force =    -0.00026370   -0.00094251   -0.00055855
     atom  112 type  2   force =     0.00093958   -0.00015050    0.00061949
     atom  113 type  2   force =     0.00008122   -0.00193182   -0.00090732
     atom  114 type  2   force =    -0.00062172    0.00240555    0.00300743
     atom  115 type  2   force =    -0.00103333    0.00141206    0.00099825
     atom  116 type  2   force =    -0.00253104    0.00002155    0.00093684
     atom  117 type  2   force =     0.00003061   -0.00121843   -0.00145900
     atom  118 type  2   force =     0.00037600    0.00201689   -0.00441540
     atom  119 type  2   force =     0.00073860    0.00103980    0.00220099
     atom  120 type  2   force =     0.00132483   -0.00046770    0.00046041
     atom  121 type  3   force =    -0.00434410    0.00461085    0.00004745
     atom  122 type  2   force =     0.00030999   -0.00192118    0.00018763
     atom  123 type  2   force =     0.00080711    0.00231763    0.00107440
     atom  124 type  2   force =    -0.00078302    0.00384686    0.00173270
     atom  125 type  2   force =    -0.00001651   -0.00080028   -0.00172484
     atom  126 type  2   force =     0.00041151    0.00065863   -0.00161556
     atom  127 type  2   force =    -0.00012365   -0.00019370   -0.00078271
     atom  128 type  2   force =    -0.00206272    0.00083423    0.00166809
     atom  129 type  2   force =     0.00035351   -0.00019793    0.00071814
     atom  130 type  2   force =    -0.00000007    0.00095349   -0.00187122
     atom  131 type  2   force =     0.00006010   -0.00141136    0.00036797
     atom  132 type  2   force =     0.00104480    0.00066574    0.00042364
     atom  133 type  2   force =     0.00097854   -0.00042717   -0.00083976
     atom  134 type  2   force =     0.00079044   -0.00001770   -0.00062232
     atom  135 type  2   force =    -0.00016157    0.00000055    0.00036162
     atom  136 type  2   force =    -0.00091743   -0.00067492    0.00167978
     atom  137 type  2   force =     0.00076147   -0.00013465    0.00124452
     atom  138 type  2   force =    -0.00007235   -0.00071447   -0.00004559
     atom  139 type  2   force =     0.00004767   -0.00013344    0.00068357
     atom  140 type  2   force =     0.00076274    0.00031237    0.00018588
     atom  141 type  2   force =    -0.00038304    0.00031600   -0.00076152
     atom  142 type  2   force =     0.00002188   -0.00031209    0.00112680
     atom  143 type  2   force =    -0.00035202    0.00012015    0.00034587
     atom  144 type  2   force =    -0.00075466    0.00048128   -0.00030294
     atom  145 type  2   force =    -0.00035843    0.00019278    0.00006350
     atom  146 type  2   force =     0.00005871   -0.00085445   -0.00024833
     atom  147 type  2   force =    -0.00107410    0.00008942    0.00089460
     atom  148 type  2   force =     0.00000169    0.00080044   -0.00227868
     atom  149 type  2   force =    -0.00001297    0.00025711   -0.00148800

     Total force =     0.015530     Total SCF correction =     0.000479

     number of scf cycles    =  16
     number of bfgs steps    =  15

     energy   old            =  -12700.0502448380 Ry
     energy   new            =  -12700.0505949581 Ry

     CASE: energy  _new < energy  _old

     new trust radius        =       0.0583304487 bohr
     new conv_thr            =       0.0000000100 Ry


ATOMIC_POSITIONS (angstrom)
Cu       0.004842155  -0.006329688   7.360757654
Cu       1.849783687   1.695943614   7.357151622
Cu       3.694133646  -0.008500799   7.358384823
Cu       5.538471120   1.696707624   7.357527779
Cu       0.005369519   3.400494807   7.355681658
Cu       1.850514856   5.107209488   7.356380548
Cu       3.694151271   3.402117889   7.357931679
Cu       5.538821462   5.106488277   7.355483525
Cu       0.006024248   6.812437817   7.354134643
Cu       1.850623257   8.516944829   7.355264631
Cu       3.693781694   6.811851244   7.355606998
Cu       5.538711291   8.518587253   7.353621943
Cu       0.005599832  10.223260987   7.354081955
Cu       1.850007850  11.927422130   7.355476700
Cu       3.694333766  10.223194588   7.355699989
Cu       5.538847411  11.925242420   7.358919557
Cu       0.004499874  13.627370354   7.360873746
Cu       1.849111616  15.329681260   7.361284247
Cu       3.694960590  13.628028440   7.360186414
Cu       5.539060288  15.329845585   7.361123878
Cu       0.006453544   1.699629315   9.193159213
Cu       1.850425063  -0.003151206   9.196246584
Cu       3.694931061   1.695830265   9.188067895
Cu       5.540618379  -0.004889401   9.194067594
Cu       0.005976217   5.108592575   9.185874566
Cu       1.850301437   3.399506249   9.184890597
Cu       3.696824162   5.108870718   9.189895563
Cu       5.540265740   3.404154447   9.188757010
Cu       0.005395004   8.517483351   9.185160857
Cu       1.848710163   6.812297252   9.191337091
Cu       3.696554348   8.517971654   9.186505288
Cu       5.539563146   6.813936934   9.182579509
Cu       0.006172541  11.922676181   9.193502591
Cu       1.850613221  10.226077513   9.182545362
Cu       3.695697054  11.924574352   9.192775371
Cu       5.540237769  10.218373797   9.191046664
Cu       0.007491007  15.330088900   9.194901193
Cu       1.851205835  13.625892089   9.195277706
Cu       3.694726262  15.330229533   9.194520366
Cu       5.540180718  13.626921266   9.194949542
Cu       0.009229476  -0.004211370  11.036065300
Cu       1.849998808   1.705058341  11.036497930
Cu       3.696100153  -0.002396160  11.033638703
Cu       5.542961573   1.700827185  11.032164349
Cu       0.004461225   3.408558107  11.031129176
Cu       1.850146573   5.105277224  11.023186679
Cu       3.701161744   3.399467328  11.019973607
Cu       5.545321793   5.108169588  11.027706176
Cu       0.001308058   6.815522546  11.026578170
Cu       1.848006196   8.524161860  11.016753406
Cu       3.697697980   6.816524761  11.025444326
Cu       5.544381923   8.517617066  11.033741634
Cu       0.004835528  10.215701425  11.035618892
Cu       1.851156678  11.918219209  11.036504693
Cu       3.700807543  10.219556045  11.027828739
Cu       5.542033382  11.921975551  11.033878260
Cu       0.008885632  13.625815812  11.036539324
Cu       1.853363071  15.331117051  11.037371295
Cu       3.696221280  13.626104843  11.037304965
Cu       5.541712997  15.331426050  11.037264191
Cu       0.010111457   1.706408945  12.867873976
Cu       1.855095737   0.000825267  12.874091015
Cu       3.698954773   1.704269839  12.868165348
Cu       5.542121541   0.000185348  12.875766160
Cu       0.008538193   5.117157363  12.870504344
Cu       1.854265754   3.408363743  12.866721498
Cu       3.707087939   5.102237366  12.841671285
Cu       5.544792821   3.407302392  12.865513433
Cu       0.011230622   8.507922753  12.885697372
Cu       1.848432769   6.823381168  12.824017010
Cu       3.698967690   8.521144998  12.861712666
Cu       5.539156437   6.813320963  12.881872891
Cu       0.010268634  11.916958681  12.875980744
Cu       1.849193603  10.205979473  12.879189990
Cu       3.697116433  11.913736373  12.870019376
Cu       5.547623540  10.217689125  12.871296339
Cu       0.010599184  15.330011682  12.878774686
Cu       1.852340242  13.623348882  12.874103525
Cu       3.698087851  15.334078693  12.877232007
Cu       5.543810631  13.623682367  12.874931757
Cu       0.010963925   0.008189395  14.679463113
Cu       1.858594632   1.709278886  14.687974081
Cu       3.701420672   0.005701126  14.694242150
Cu       5.546435045   1.711184930  14.684739743
Cu       0.014019806   3.402569391  14.690266558
Cu       1.852017570   5.093885037  14.665789228
Cu       3.706387715   3.399020764  14.692857806
Cu       5.553978938   5.084908361  14.700892207
Cu      -0.014567164   6.808237597  14.719594578
Cu       1.854798691   8.511020299  14.707783400
Cu       3.743129964   6.812903566  14.673105337
Cu       5.550482061   8.532021034  14.704110773
Cu       0.012713150  10.214210525  14.707411330
Cu       1.851191681  11.913152981  14.687164176
Cu       3.698387496  10.214932427  14.697560025
Cu       5.544884134  11.916251043  14.687593546
Cu       0.011315753  13.620186471  14.695366072
Cu       1.855349889  15.332810695  14.685903277
Cu       3.696738182  13.616777378  14.678399769
Cu       5.544311448  15.330117030  14.688280276
C       -0.003619791   0.728359029  17.605104403
C       -0.003951915   2.146994137  17.638354865
C        1.225525763   0.017885460  17.594269382
C        1.224200694   2.858458874  17.666251280
C        2.453534038   0.729129974  17.588543146
C        2.453077526   2.148714720  17.625754963
C        3.684707959   0.017753335  17.569579920
C        3.683020167   2.860260355  17.641077343
C        4.915032337   0.729128714  17.586489937
C        4.913634805   2.148337191  17.613678802
C        6.144329375   0.018552893  17.591557047
C        6.144827137   2.856519389  17.640679814
C       -0.003486111   4.985050096  17.726931735
C       -0.001726630   6.404838064  17.737643417
C        1.226203932   4.276766731  17.730716719
C        1.228124158   7.113880354  17.788051575
C        2.454737179   4.985538704  17.786534875
C        2.454863069   6.403800714  17.836262676
C        3.682361663   4.278794165  17.708807117
C        3.683308898   7.115615527  17.798435157
H        2.429355351   6.362598277  15.515857384
C        4.914615583   4.986931216  17.707225829
C        4.913270657   6.406408030  17.746440247
C        6.145653614   4.276171614  17.678646083
C        6.143533565   7.114889046  17.725491030
C       -0.002036511   9.242412078  17.679258203
C       -0.003206549  10.662090989  17.625411579
C        1.228909252   8.532337943  17.730559032
C        1.226513397  11.375417678  17.620768588
C        2.456827765   9.246461591  17.730924991
C        2.456123390  10.665406181  17.671200732
C        3.684134982   8.533693998  17.755237518
C        3.684493019  11.375991937  17.653535651
C        4.912641060   9.243453970  17.695839245
C        4.912656657  10.663526314  17.652270109
C        6.144860156   8.534014396  17.695347946
C        6.142331809  11.372763324  17.607608038
C       -0.004216583  13.506592553  17.570381174
C       -0.003458861  14.927059736  17.581139711
C        1.227132240  12.794983685  17.587750778
C        1.226690769  15.636756283  17.578329843
C        2.456293251  13.505766248  17.593671806
C        2.457362163  14.925649354  17.574199426
C        3.685807775  12.795062362  17.619081269
C        3.685981771  15.636367533  17.578061175
C        4.914762299  13.505806955  17.603770131
C        4.915608798  14.926000801  17.583757285
C        6.143023955  12.793895431  17.592362145
C        6.145751819  15.637635313  17.583486978



     Writing output data file gc.save
     Check: negative starting charge=   -0.001850
     NEW-OLD atomic charge density approx. for the potential
     Check: negative starting charge=   -0.001847

     negative rho (up, down):  1.924E-03 0.000E+00

     total cpu time spent up to now is    52957.1 secs

     Self-consistent Calculation

     iteration #  1     ecut=    80.00 Ry     beta=0.70
     Davidson diagonalization with overlap
     ethr =  1.00E-06,  avg # of iterations =  4.0

     negative rho (up, down):  2.003E-03 0.000E+00

     total cpu time spent up to now is    53385.0 secs

     total energy              =  -12700.05081949 Ry
     Harris-Foulkes estimate   =  -12700.05118901 Ry
     estimated scf accuracy    <       0.00248293 Ry

     iteration #  2     ecut=    80.00 Ry     beta=0.70
     Davidson diagonalization with overlap
     ethr =  1.92E-07,  avg # of iterations =  2.0

     negative rho (up, down):  2.053E-03 0.000E+00

     total cpu time spent up to now is    53578.6 secs

     total energy              =  -12700.05084216 Ry
     Harris-Foulkes estimate   =  -12700.05098405 Ry
     estimated scf accuracy    <       0.00041752 Ry

     iteration #  3     ecut=    80.00 Ry     beta=0.70
     Davidson diagonalization with overlap
     ethr =  3.23E-08,  avg # of iterations =  3.0

     negative rho (up, down):  2.110E-03 0.000E+00

     total cpu time spent up to now is    53819.6 secs

     total energy              =  -12700.05087223 Ry
     Harris-Foulkes estimate   =  -12700.05094573 Ry
     estimated scf accuracy    <       0.00068978 Ry

     iteration #  4     ecut=    80.00 Ry     beta=0.70
     Davidson diagonalization with overlap
     ethr =  3.23E-08,  avg # of iterations =  2.0

     negative rho (up, down):  2.113E-03 0.000E+00

     total cpu time spent up to now is    54011.3 secs

     total energy              =  -12700.05090253 Ry
     Harris-Foulkes estimate   =  -12700.05090380 Ry
     estimated scf accuracy    <       0.00000929 Ry

     iteration #  5     ecut=    80.00 Ry     beta=0.70
     Davidson diagonalization with overlap
     ethr =  7.18E-10,  avg # of iterations =  3.2

     negative rho (up, down):  2.100E-03 0.000E+00

     total cpu time spent up to now is    54293.7 secs

     total energy              =  -12700.05090382 Ry
     Harris-Foulkes estimate   =  -12700.05090463 Ry
     estimated scf accuracy    <       0.00000626 Ry

     iteration #  6     ecut=    80.00 Ry     beta=0.70
     Davidson diagonalization with overlap
     ethr =  4.84E-10,  avg # of iterations =  2.0

     negative rho (up, down):  2.064E-03 0.000E+00

     total cpu time spent up to now is    54484.4 secs

     total energy              =  -12700.05090409 Ry
     Harris-Foulkes estimate   =  -12700.05090417 Ry
     estimated scf accuracy    <       0.00000234 Ry

     iteration #  7     ecut=    80.00 Ry     beta=0.70
     Davidson diagonalization with overlap
     ethr =  1.81E-10,  avg # of iterations =  1.7

     negative rho (up, down):  2.020E-03 0.000E+00

     total cpu time spent up to now is    54664.8 secs

     total energy              =  -12700.05090421 Ry
     Harris-Foulkes estimate   =  -12700.05090422 Ry
     estimated scf accuracy    <       0.00000101 Ry

     iteration #  8     ecut=    80.00 Ry     beta=0.70
     Davidson diagonalization with overlap
     ethr =  7.83E-11,  avg # of iterations =  2.0

     negative rho (up, down):  1.978E-03 0.000E+00

     total cpu time spent up to now is    54861.5 secs

     total energy              =  -12700.05090435 Ry
     Harris-Foulkes estimate   =  -12700.05090427 Ry
     estimated scf accuracy    <       0.00000015 Ry

     iteration #  9     ecut=    80.00 Ry     beta=0.70
     Davidson diagonalization with overlap
     ethr =  1.14E-11,  avg # of iterations =  2.3

     negative rho (up, down):  1.953E-03 0.000E+00

     total cpu time spent up to now is    55057.9 secs

     total energy              =  -12700.05090441 Ry
     Harris-Foulkes estimate   =  -12700.05090437 Ry
     estimated scf accuracy    <       0.00000006 Ry

     iteration # 10     ecut=    80.00 Ry     beta=0.70
     Davidson diagonalization with overlap
     ethr =  4.81E-12,  avg # of iterations =  2.2

     negative rho (up, down):  1.937E-03 0.000E+00

     total cpu time spent up to now is    55247.8 secs

     total energy              =  -12700.05090445 Ry
     Harris-Foulkes estimate   =  -12700.05090441 Ry
     estimated scf accuracy    <       0.00000002 Ry

     iteration # 11     ecut=    80.00 Ry     beta=0.70
     Davidson diagonalization with overlap
