
     Program PWSCF v.5.4.0 starts on 16Mar2017 at 19:54: 9 

     This program is part of the open-source Quantum ESPRESSO suite
     for quantum simulation of materials; please cite
         "P. Giannozzi et al., J. Phys.:Condens. Matter 21 395502 (2009);
          URL http://www.quantum-espresso.org", 
     in publications or presentations arising from this work. More details at
     http://www.quantum-espresso.org/quote

     Parallel version (MPI & OpenMP), running on      56 processor cores
     Number of MPI processes:                56
     Threads/MPI process:                     1
     R & G space division:  proc/nbgrp/npool/nimage =      56
     Waiting for input...
     Reading input from standard input

     Current dimensions of program PWSCF are:
     Max number of different atomic species (ntypx) = 10
     Max number of k-points (npk) =  40000
     Max angular momentum in pseudopotentials (lmaxx) =  3

     -------------------------------------
     Parameters for Dispersion Correction:
     -------------------------------------
       atom      VdW radius       C_6     

        Cu         2.952        374.666
        C          2.744         60.710

     Subspace diagonalization in iterative solution of the eigenvalue problem:
     one sub-group per band group will be used
     scalapack distributed-memory algorithm (size of sub-group:  5*  5 procs)

 
     Parallelization info
     --------------------
     sticks:   dense  smooth     PW     G-vecs:    dense   smooth      PW
     Min         204     204     54                36612    36612    4962
     Max         205     205     55                36617    36617    4968
     Sum       11433   11433   3039              2050409  2050409  278033
 


     bravais-lattice index     =            0
     lattice parameter (alat)  =      13.9425  a.u.
     unit-cell volume          =   21209.0878 (a.u.)^3
     number of atoms/cell      =          147
     number of atomic types    =            2
     number of electrons       =      1288.00
     number of Kohn-Sham states=          773
     kinetic-energy cutoff     =      80.0000  Ry
     charge density cutoff     =     320.0000  Ry
     convergence threshold     =      1.0E-08
     mixing beta               =       0.7000
     number of iterations used =            8  local-TF  mixing
     Exchange-correlation      =  SLA  PW   PBX  PBC ( 1  4  3  4 0 0)
     nstep                     =           50


     celldm(1)=  13.942539  celldm(2)=   0.000000  celldm(3)=   0.000000
     celldm(4)=   0.000000  celldm(5)=   0.000000  celldm(6)=   0.000000

     crystal axes: (cart. coord. in units of alat)
               a(1) = (   1.000000   0.000000   0.000000 )  
               a(2) = (   0.000000   2.309401   0.000000 )  
               a(3) = (   0.000000   0.000000   3.388418 )  

     reciprocal axes: (cart. coord. in units 2 pi/alat)
               b(1) = (  1.000000  0.000000  0.000000 )  
               b(2) = (  0.000000  0.433013  0.000000 )  
               b(3) = (  0.000000  0.000000  0.295123 )  


     PseudoPot. # 1 for Cu read from file:
     /home/549/hxw549/Short/pseudopotentials/Cu.pbe-n-van_ak.UPF
     MD5 check sum: 601f7c30f7467666bec936e0661ce3e1
     Pseudo is Ultrasoft + core correction, Zval = 11.0
     Generated by new atomic code, or converted to UPF format
     Using radial grid of  867 points,  6 beta functions with: 
                l(1) =   0
                l(2) =   0
                l(3) =   1
                l(4) =   1
                l(5) =   2
                l(6) =   2
     Q(r) pseudized with  8 coefficients,  rinner =    1.400   1.400   1.400
                                                       1.400   1.400

     PseudoPot. # 2 for C  read from file:
     /home/549/hxw549/Short/pseudopotentials/C.pbe-mt_gipaw.UPF
     MD5 check sum: 5ac2f21f2c440b14befe521540822c15
     Pseudo is Norm-conserving, Zval =  4.0
     Generated by new atomic code, or converted to UPF format
     Using radial grid of 1073 points,  1 beta functions with: 
                l(1) =   0

     atomic species   valence    mass     pseudopotential
        Cu            11.00    63.54600     Cu( 1.00)
        C              4.00    12.01070     C ( 1.00)

      2 Sym. Ops. (no inversion) found



   Cartesian axes

     site n.     atom                  positions (alat units)
         1           Cu  tau(   1) = (   0.0000000   0.0013898   1.0008484  )
         2           Cu  tau(   2) = (   0.2499347   0.2328267   1.0008930  )
         3           Cu  tau(   3) = (   0.5000000   0.0019889   1.0009947  )
         4           Cu  tau(   4) = (   0.7500653   0.2328267   1.0008930  )
         5           Cu  tau(   5) = (   0.0000000   0.4629586   1.0000229  )
         6           Cu  tau(   6) = (   0.2501160   0.6932546   0.9990809  )
         7           Cu  tau(   7) = (   0.5000000   0.4632588   1.0002592  )
         8           Cu  tau(   8) = (   0.7498840   0.6932546   0.9990809  )
         9           Cu  tau(   9) = (   0.0000000   0.9238146   0.9989408  )
        10           Cu  tau(  10) = (   0.2501062   1.1544044   0.9989922  )
        11           Cu  tau(  11) = (   0.5000000   0.9237501   0.9983650  )
        12           Cu  tau(  12) = (   0.7498938   1.1544044   0.9989922  )
        13           Cu  tau(  13) = (   0.0000000   1.3846896   0.9998539  )
        14           Cu  tau(  14) = (   0.2499524   1.6148727   1.0006747  )
        15           Cu  tau(  15) = (   0.5000000   1.3845564   1.0000438  )
        16           Cu  tau(  16) = (   0.7500476   1.6148727   1.0006747  )
        17           Cu  tau(  17) = (   0.0000000   1.8466131   1.0004338  )
        18           Cu  tau(  18) = (   0.2501992   2.0787364   1.0007067  )
        19           Cu  tau(  19) = (   0.5000000   1.8457624   1.0008126  )
        20           Cu  tau(  20) = (   0.7498008   2.0787364   1.0007067  )
        21           Cu  tau(  21) = (   0.0000000   0.2338105   1.2499089  )
        22           Cu  tau(  22) = (   0.2499385   0.0023322   1.2491364  )
        23           Cu  tau(  23) = (   0.5000000   0.2339380   1.2501452  )
        24           Cu  tau(  24) = (   0.7500615   0.0023322   1.2491364  )
        25           Cu  tau(  25) = (   0.0000000   0.6940277   1.2476497  )
        26           Cu  tau(  26) = (   0.2502066   0.4641606   1.2491985  )
        27           Cu  tau(  27) = (   0.5000000   0.6944536   1.2488228  )
        28           Cu  tau(  28) = (   0.7497934   0.4641606   1.2491985  )
        29           Cu  tau(  29) = (   0.0000000   1.1533560   1.2475890  )
        30           Cu  tau(  30) = (   0.2503935   0.9237606   1.2477362  )
        31           Cu  tau(  31) = (   0.5000000   1.1529367   1.2485434  )
        32           Cu  tau(  32) = (   0.7496065   0.9237606   1.2477362  )
        33           Cu  tau(  33) = (   0.0000000   1.6147436   1.2482100  )
        34           Cu  tau(  34) = (   0.2503529   1.3833636   1.2488156  )
        35           Cu  tau(  35) = (   0.5000000   1.6142141   1.2493613  )
        36           Cu  tau(  36) = (   0.7496471   1.3833636   1.2488156  )
        37           Cu  tau(  37) = (   0.0000000   2.0789699   1.2479793  )
        38           Cu  tau(  38) = (   0.2500897   1.8463840   1.2479657  )
        39           Cu  tau(  39) = (   0.5000000   2.0788054   1.2472577  )
        40           Cu  tau(  40) = (   0.7499103   1.8463840   1.2479657  )
        41           Cu  tau(  41) = (   0.0000000   0.0028224   1.4979242  )
        42           Cu  tau(  42) = (   0.2502669   0.2362622   1.5013623  )
        43           Cu  tau(  43) = (   0.5000000   0.0011875   1.4969693  )
        44           Cu  tau(  44) = (   0.7497331   0.2362622   1.5013623  )
        45           Cu  tau(  45) = (   0.0000000   0.4661653   1.5009762  )
        46           Cu  tau(  46) = (   0.2499867   0.6939580   1.4995282  )
        47           Cu  tau(  47) = (   0.5000000   0.4671264   1.5025476  )
        48           Cu  tau(  48) = (   0.7500133   0.6939580   1.4995282  )
        49           Cu  tau(  49) = (   0.0000000   0.9230621   1.4982710  )
        50           Cu  tau(  50) = (   0.2500290   1.1525282   1.4994307  )
        51           Cu  tau(  51) = (   0.5000000   0.9229324   1.4991254  )
        52           Cu  tau(  52) = (   0.7499710   1.1525282   1.4994307  )
        53           Cu  tau(  53) = (   0.0000000   1.3838115   1.4971330  )
        54           Cu  tau(  54) = (   0.2504929   1.6153325   1.4967922  )
        55           Cu  tau(  55) = (   0.5000000   1.3814519   1.5000674  )
        56           Cu  tau(  56) = (   0.7495071   1.6153325   1.4967922  )
        57           Cu  tau(  57) = (   0.0000000   1.8467760   1.4960790  )
        58           Cu  tau(  58) = (   0.2495600   2.0789320   1.4961664  )
        59           Cu  tau(  59) = (   0.5000000   1.8479224   1.4965127  )
        60           Cu  tau(  60) = (   0.7504400   2.0789320   1.4961664  )
        61           Cu  tau(  61) = (   0.0000000   0.2376266   1.7483645  )
        62           Cu  tau(  62) = (   0.2496235   0.0009067   1.7454562  )
        63           Cu  tau(  63) = (   0.5000000   0.2333389   1.7466557  )
        64           Cu  tau(  64) = (   0.7503765   0.0009067   1.7454562  )
        65           Cu  tau(  65) = (   0.0000000   0.6963220   1.7531721  )
        66           Cu  tau(  66) = (   0.2526702   0.4739177   1.7591394  )
        67           Cu  tau(  67) = (   0.5000000   0.7043803   1.7624446  )
        68           Cu  tau(  68) = (   0.7473298   0.4739177   1.7591394  )
        69           Cu  tau(  69) = (   0.0000000   1.1536394   1.7473914  )
        70           Cu  tau(  70) = (   0.2511400   0.9213810   1.7510753  )
        71           Cu  tau(  71) = (   0.5000000   1.1432581   1.7575682  )
        72           Cu  tau(  72) = (   0.7488600   0.9213810   1.7510753  )
        73           Cu  tau(  73) = (   0.0000000   1.6164900   1.7445581  )
        74           Cu  tau(  74) = (   0.2517212   1.3850083   1.7457316  )
        75           Cu  tau(  75) = (   0.5000000   1.6171777   1.7448070  )
        76           Cu  tau(  76) = (   0.7482788   1.3850083   1.7457316  )
        77           Cu  tau(  77) = (   0.0000000   2.0783938   1.7451070  )
        78           Cu  tau(  78) = (   0.2497020   1.8479106   1.7448069  )
        79           Cu  tau(  79) = (   0.5000000   2.0792243   1.7460571  )
        80           Cu  tau(  80) = (   0.7502980   1.8479106   1.7448069  )
        81           Cu  tau(  81) = (   0.0000000  -0.0002710   1.9903846  )
        82           Cu  tau(  82) = (   0.2456873   0.2310728   1.9923953  )
        83           Cu  tau(  83) = (   0.5000000   0.0022691   1.9926299  )
        84           Cu  tau(  84) = (   0.7543127   0.2310728   1.9923953  )
        85           Cu  tau(  85) = (   0.0000000   0.4749141   1.9979933  )
        86           Cu  tau(  86) = (   0.2783803   0.7206548   2.0224415  )
        87           Cu  tau(  87) = (   0.5000000   0.4559110   1.9973507  )
        88           Cu  tau(  88) = (   0.7216197   0.7206548   2.0224415  )
        89           Cu  tau(  89) = (   0.0000000   0.9222278   1.9890500  )
        90           Cu  tau(  90) = (   0.2511462   1.1542434   1.9884264  )
        91           Cu  tau(  91) = (   0.5000000   0.9655625   2.1437579  )
        92           Cu  tau(  92) = (   0.7488538   1.1542434   1.9884264  )
        93           Cu  tau(  93) = (   0.0000000   1.3879561   1.9923375  )
        94           Cu  tau(  94) = (   0.2488817   1.6179614   1.9914821  )
        95           Cu  tau(  95) = (   0.5000000   1.3878309   1.9891169  )
        96           Cu  tau(  96) = (   0.7511183   1.6179614   1.9914821  )
        97           Cu  tau(  97) = (   0.0000000   1.8477032   1.9922062  )
        98           Cu  tau(  98) = (   0.2504603   2.0784565   1.9913018  )
        99           Cu  tau(  99) = (   0.5000000   1.8464232   1.9909817  )
       100           Cu  tau( 100) = (   0.7495397   2.0784565   1.9913018  )
       101           C   tau( 101) = (   0.0000000   0.0918300   2.3987906  )
       102           C   tau( 102) = (   0.0000000   0.2830517   2.4069116  )
       103           C   tau( 103) = (   0.1669648  -0.0031547   2.3917409  )
       104           C   tau( 104) = (   0.1658940   0.3800131   2.3999865  )
       105           C   tau( 105) = (   0.3334842   0.0935884   2.3900958  )
       106           C   tau( 106) = (   0.3332652   0.2856599   2.3895679  )
       107           C   tau( 107) = (   0.5000000  -0.0034013   2.3848819  )
       108           C   tau( 108) = (   0.5000000   0.3824445   2.3769323  )
       109           C   tau( 109) = (   0.6665158   0.0935884   2.3900958  )
       110           C   tau( 110) = (   0.6667348   0.2856599   2.3895679  )
       111           C   tau( 111) = (   0.8330352  -0.0031547   2.3917409  )
       112           C   tau( 112) = (   0.8341060   0.3800131   2.3999865  )
       113           C   tau( 113) = (   0.0000000   0.6693391   2.3888852  )
       114           C   tau( 114) = (   0.0000000   0.8628808   2.3797350  )
       115           C   tau( 115) = (   0.1651676   0.5710724   2.3886289  )
       116           C   tau( 116) = (   0.1653666   0.9583033   2.3501594  )
       117           C   tau( 117) = (   0.3283052   0.6655027   2.3418595  )
       118           C   tau( 118) = (   0.3128483   0.8499831   2.2896233  )
       119           C   tau( 119) = (   0.5000000   0.5713859   2.3445169  )
       120           C   tau( 120) = (   0.6716948   0.6655027   2.3418595  )
       121           C   tau( 121) = (   0.6871517   0.8499831   2.2896233  )
       122           C   tau( 122) = (   0.8348324   0.5710724   2.3886289  )
       123           C   tau( 123) = (   0.8346334   0.9583033   2.3501594  )
       124           C   tau( 124) = (   0.0000000   1.2481409   2.3741239  )
       125           C   tau( 125) = (   0.0000000   1.4401593   2.3867115  )
       126           C   tau( 126) = (   0.1666687   1.1528874   2.3548049  )
       127           C   tau( 127) = (   0.1661398   1.5368556   2.3930457  )
       128           C   tau( 128) = (   0.3336002   1.2527937   2.3565831  )
       129           C   tau( 129) = (   0.3328667   1.4424847   2.3901885  )
       130           C   tau( 130) = (   0.5000000   1.1721495   2.3105982  )
       131           C   tau( 131) = (   0.5000000   1.5375802   2.3955949  )
       132           C   tau( 132) = (   0.6663998   1.2527937   2.3565831  )
       133           C   tau( 133) = (   0.6671333   1.4424847   2.3901885  )
       134           C   tau( 134) = (   0.8333313   1.1528874   2.3548049  )
       135           C   tau( 135) = (   0.8338602   1.5368556   2.3930457  )
       136           C   tau( 136) = (   0.0000000   1.8248880   2.3892598  )
       137           C   tau( 137) = (   0.0000000   2.0173887   2.3857774  )
       138           C   tau( 138) = (   0.1663569   1.7289233   2.3933667  )
       139           C   tau( 139) = (   0.1666299   2.1138124   2.3854319  )
       140           C   tau( 140) = (   0.3330366   1.8244623   2.3912079  )
       141           C   tau( 141) = (   0.3331453   2.0169431   2.3853332  )
       142           C   tau( 142) = (   0.5000000   1.7293269   2.3950679  )
       143           C   tau( 143) = (   0.5000000   2.1131912   2.3848575  )
       144           C   tau( 144) = (   0.6669634   1.8244623   2.3912079  )
       145           C   tau( 145) = (   0.6668547   2.0169431   2.3853332  )
       146           C   tau( 146) = (   0.8336431   1.7289233   2.3933667  )
       147           C   tau( 147) = (   0.8333701   2.1138124   2.3854319  )

     number of k points=     6  gaussian smearing, width (Ry)=  0.1000
                       cart. coord. in units 2pi/alat
        k(    1) = (   0.0000000   0.0000000   0.0000000), wk =   0.2500000
        k(    2) = (   0.0000000  -0.2165064   0.0000000), wk =   0.2500000
        k(    3) = (   0.2500000   0.0000000   0.0000000), wk =   0.5000000
        k(    4) = (   0.2500000  -0.2165064   0.0000000), wk =   0.5000000
        k(    5) = (  -0.5000000   0.0000000   0.0000000), wk =   0.2500000
        k(    6) = (  -0.5000000  -0.2165064   0.0000000), wk =   0.2500000

     Dense  grid:  2050409 G-vectors     FFT dimensions: (  80, 192, 270)

     Largest allocated arrays     est. size (Mb)     dimensions
        Kohn-Sham Wavefunctions        54.30 Mb     (    4604,  773)
        NL pseudopotentials           129.75 Mb     (    4604, 1847)
        Each V/rho on FFT grid          1.17 Mb     (   76800)
        Each G-vector array             0.28 Mb     (   36616)
        G-vector shells                 0.14 Mb     (   17932)
     Largest temporary arrays     est. size (Mb)     dimensions
        Auxiliary wavefunctions       217.22 Mb     (    4604, 3092)
        Each subspace H/S matrix        5.83 Mb     (     618,  618)
        Each <psi_i|beta_j> matrix     21.79 Mb     (    1847,  773)
        Arrays for rho mixing           9.38 Mb     (   76800,    8)

     Initial potential from superposition of free atoms
     Check: negative starting charge=   -0.001847

     starting charge 1263.31751, renormalised to 1288.00000

     negative rho (up, down):  1.883E-03 0.000E+00
     Starting wfc are 1276 randomized atomic wfcs

     total cpu time spent up to now is      106.3 secs

     Self-consistent Calculation

     iteration #  1     ecut=    80.00 Ry     beta=0.70
     Davidson diagonalization with overlap
     c_bands:  5 eigenvalues not converged
     c_bands:  5 eigenvalues not converged
     c_bands:  3 eigenvalues not converged
     ethr =  1.00E-04,  avg # of iterations = 20.5

     negative rho (up, down):  2.704E+01 0.000E+00

     total cpu time spent up to now is     1787.7 secs

     total energy              =   -9583.11612523 Ry
     Harris-Foulkes estimate   =  -16856.44100086 Ry
     estimated scf accuracy    <  167702.71466583 Ry

     iteration #  2     ecut=    80.00 Ry     beta=0.70
     Davidson diagonalization with overlap
     ethr =  1.00E-02,  avg # of iterations =  9.8

     negative rho (up, down):  2.778E+01 0.000E+00

     total cpu time spent up to now is     2717.1 secs

     total energy              =  -12776.35900288 Ry
     Harris-Foulkes estimate   =  -13478.65136866 Ry
     estimated scf accuracy    <    8958.38591954 Ry

     iteration #  3     ecut=    80.00 Ry     beta=0.70
     Davidson diagonalization with overlap
     ethr =  1.00E-02,  avg # of iterations =  5.0

     negative rho (up, down):  2.844E+01 0.000E+00

     total cpu time spent up to now is     3112.5 secs

     total energy              =  -13062.49695545 Ry
     Harris-Foulkes estimate   =  -13160.28015894 Ry
     estimated scf accuracy    <   13278.31472011 Ry

     iteration #  4     ecut=    80.00 Ry     beta=0.70
     Davidson diagonalization with overlap
     ethr =  1.00E-02,  avg # of iterations =  3.2

     negative rho (up, down):  2.410E+01 0.000E+00

     total cpu time spent up to now is     3302.6 secs

     total energy              =  -12769.00497312 Ry
     Harris-Foulkes estimate   =  -13085.10039793 Ry
     estimated scf accuracy    <    4470.38700885 Ry

     iteration #  5     ecut=    80.00 Ry     beta=0.70
     Davidson diagonalization with overlap
     ethr =  1.00E-02,  avg # of iterations =  5.0

     negative rho (up, down):  1.678E+01 0.000E+00

     total cpu time spent up to now is     3774.6 secs

     total energy              =  -13071.27589939 Ry
     Harris-Foulkes estimate   =  -13176.14815006 Ry
     estimated scf accuracy    <    9052.59763441 Ry

     iteration #  6     ecut=    80.00 Ry     beta=0.70
     Davidson diagonalization with overlap
     ethr =  1.00E-02,  avg # of iterations =  4.2

     negative rho (up, down):  1.489E+01 0.000E+00

     total cpu time spent up to now is     4038.6 secs

     total energy              =  -13047.62736479 Ry
     Harris-Foulkes estimate   =  -13108.93569155 Ry
     estimated scf accuracy    <    6886.26141664 Ry

     iteration #  7     ecut=    80.00 Ry     beta=0.70
     Davidson diagonalization with overlap
     ethr =  1.00E-02,  avg # of iterations =  3.8

     negative rho (up, down):  1.284E+01 0.000E+00

     total cpu time spent up to now is     4242.9 secs

     total energy              =  -13013.33068987 Ry
     Harris-Foulkes estimate   =  -13064.93801754 Ry
     estimated scf accuracy    <    6620.26297777 Ry

     iteration #  8     ecut=    80.00 Ry     beta=0.70
     Davidson diagonalization with overlap
     ethr =  1.00E-02,  avg # of iterations =  3.2

     negative rho (up, down):  1.031E+01 0.000E+00

     total cpu time spent up to now is     4433.9 secs

     total energy              =  -12936.02061487 Ry
     Harris-Foulkes estimate   =  -13021.73856474 Ry
     estimated scf accuracy    <    5842.38138653 Ry

     iteration #  9     ecut=    80.00 Ry     beta=0.70
     Davidson diagonalization with overlap
     ethr =  1.00E-02,  avg # of iterations =  5.0

     negative rho (up, down):  9.416E+00 0.000E+00

     total cpu time spent up to now is     4683.8 secs

     total energy              =  -12911.29096764 Ry
     Harris-Foulkes estimate   =  -12953.76474672 Ry
     estimated scf accuracy    <    4627.06954821 Ry

     iteration # 10     ecut=    80.00 Ry     beta=0.70
     Davidson diagonalization with overlap
     ethr =  1.00E-02,  avg # of iterations =  2.0

     negative rho (up, down):  7.415E+00 0.000E+00

     total cpu time spent up to now is     4860.9 secs

     total energy              =  -12794.35653055 Ry
     Harris-Foulkes estimate   =  -12914.61953326 Ry
     estimated scf accuracy    <    4511.22511544 Ry

     iteration # 11     ecut=    80.00 Ry     beta=0.70
     Davidson diagonalization with overlap
     ethr =  1.00E-02,  avg # of iterations =  5.0

     negative rho (up, down):  7.520E+00 0.000E+00

     total cpu time spent up to now is     5133.9 secs

     total energy              =  -12802.18432570 Ry
     Harris-Foulkes estimate   =  -12819.43972199 Ry
     estimated scf accuracy    <    1837.39040889 Ry

     iteration # 12     ecut=    80.00 Ry     beta=0.70
     Davidson diagonalization with overlap
     ethr =  1.00E-02,  avg # of iterations =  5.3

     negative rho (up, down):  4.025E+00 0.000E+00

     total cpu time spent up to now is     5368.7 secs

     total energy              =  -12712.93250231 Ry
     Harris-Foulkes estimate   =  -12816.30565000 Ry
     estimated scf accuracy    <    1146.16897278 Ry

     iteration # 13     ecut=    80.00 Ry     beta=0.70
     Davidson diagonalization with overlap
     ethr =  1.00E-02,  avg # of iterations =  3.3

     negative rho (up, down):  3.327E+00 0.000E+00

     total cpu time spent up to now is     5588.3 secs

     total energy              =  -12756.73721528 Ry
     Harris-Foulkes estimate   =  -12770.54992266 Ry
     estimated scf accuracy    <     200.94500183 Ry

     iteration # 14     ecut=    80.00 Ry     beta=0.70
     Davidson diagonalization with overlap
     ethr =  1.00E-02,  avg # of iterations =  2.0

     negative rho (up, down):  1.999E+00 0.000E+00

     total cpu time spent up to now is     5765.3 secs

     total energy              =  -12742.64615026 Ry
     Harris-Foulkes estimate   =  -12761.23777061 Ry
     estimated scf accuracy    <     242.41648258 Ry

     iteration # 15     ecut=    80.00 Ry     beta=0.70
     Davidson diagonalization with overlap
     ethr =  1.00E-02,  avg # of iterations =  2.0

     negative rho (up, down):  7.925E-01 0.000E+00

     total cpu time spent up to now is     5942.8 secs

     total energy              =  -12733.01642025 Ry
     Harris-Foulkes estimate   =  -12751.90458181 Ry
     estimated scf accuracy    <     208.43519971 Ry

     iteration # 16     ecut=    80.00 Ry     beta=0.70
     Davidson diagonalization with overlap
     ethr =  1.00E-02,  avg # of iterations =  2.0

     negative rho (up, down):  5.794E-01 0.000E+00

     total cpu time spent up to now is     6121.1 secs

     total energy              =  -12720.32982502 Ry
     Harris-Foulkes estimate   =  -12739.26714476 Ry
     estimated scf accuracy    <     189.25928730 Ry

     iteration # 17     ecut=    80.00 Ry     beta=0.70
     Davidson diagonalization with overlap
     ethr =  1.00E-02,  avg # of iterations =  2.0

     negative rho (up, down):  7.318E-01 0.000E+00

     total cpu time spent up to now is     6299.5 secs

     total energy              =  -12718.24936319 Ry
     Harris-Foulkes estimate   =  -12728.76038076 Ry
     estimated scf accuracy    <     121.74236401 Ry

     iteration # 18     ecut=    80.00 Ry     beta=0.70
     Davidson diagonalization with overlap
     ethr =  9.45E-03,  avg # of iterations =  1.0

     negative rho (up, down):  8.776E-01 0.000E+00

     total cpu time spent up to now is     6465.5 secs

     total energy              =  -12711.56259005 Ry
     Harris-Foulkes estimate   =  -12719.31583269 Ry
     estimated scf accuracy    <      98.56185338 Ry

     iteration # 19     ecut=    80.00 Ry     beta=0.70
     Davidson diagonalization with overlap
     ethr =  7.65E-03,  avg # of iterations =  1.2

     negative rho (up, down):  1.229E+00 0.000E+00

     total cpu time spent up to now is     6632.5 secs

     total energy              =  -12698.34978030 Ry
     Harris-Foulkes estimate   =  -12713.54326926 Ry
     estimated scf accuracy    <      77.64065924 Ry

     iteration # 20     ecut=    80.00 Ry     beta=0.70
     Davidson diagonalization with overlap
     ethr =  6.03E-03,  avg # of iterations =  1.8

     negative rho (up, down):  1.065E+00 0.000E+00

     total cpu time spent up to now is     6807.1 secs

     total energy              =  -12696.11989413 Ry
     Harris-Foulkes estimate   =  -12701.51147935 Ry
     estimated scf accuracy    <      96.42075793 Ry

     iteration # 21     ecut=    80.00 Ry     beta=0.70
     Davidson diagonalization with overlap
     ethr =  6.03E-03,  avg # of iterations =  1.0

     negative rho (up, down):  1.018E+00 0.000E+00

     total cpu time spent up to now is     6972.3 secs

     total energy              =  -12696.24735392 Ry
     Harris-Foulkes estimate   =  -12698.94789861 Ry
     estimated scf accuracy    <      35.31212754 Ry

     iteration # 22     ecut=    80.00 Ry     beta=0.70
     Davidson diagonalization with overlap
     ethr =  2.74E-03,  avg # of iterations =  1.3

     negative rho (up, down):  4.854E-01 0.000E+00

     total cpu time spent up to now is     7141.9 secs

     total energy              =  -12694.95570398 Ry
     Harris-Foulkes estimate   =  -12697.52386286 Ry
     estimated scf accuracy    <      22.36613599 Ry

     iteration # 23     ecut=    80.00 Ry     beta=0.70
     Davidson diagonalization with overlap
     ethr =  1.74E-03,  avg # of iterations =  1.0

     negative rho (up, down):  6.743E-01 0.000E+00

     total cpu time spent up to now is     7307.5 secs

     total energy              =  -12693.11637783 Ry
     Harris-Foulkes estimate   =  -12695.33630704 Ry
     estimated scf accuracy    <      16.60980852 Ry

     iteration # 24     ecut=    80.00 Ry     beta=0.70
     Davidson diagonalization with overlap
     ethr =  1.29E-03,  avg # of iterations =  1.0

     negative rho (up, down):  4.820E-01 0.000E+00

     total cpu time spent up to now is     7473.2 secs

     total energy              =  -12692.84501636 Ry
     Harris-Foulkes estimate   =  -12693.68073091 Ry
     estimated scf accuracy    <      15.32253245 Ry

     iteration # 25     ecut=    80.00 Ry     beta=0.70
     Davidson diagonalization with overlap
     ethr =  1.19E-03,  avg # of iterations =  1.0

     negative rho (up, down):  1.630E+00 0.000E+00

     total cpu time spent up to now is     7637.8 secs

     total energy              =  -12690.22564865 Ry
     Harris-Foulkes estimate   =  -12693.11297441 Ry
     estimated scf accuracy    <      18.72021592 Ry

     iteration # 26     ecut=    80.00 Ry     beta=0.70
     Davidson diagonalization with overlap
     ethr =  1.19E-03,  avg # of iterations =  4.0

     negative rho (up, down):  6.808E-01 0.000E+00

     total cpu time spent up to now is     7841.6 secs

     total energy              =  -12689.87277541 Ry
     Harris-Foulkes estimate   =  -12691.37833935 Ry
     estimated scf accuracy    <      44.88543372 Ry

     iteration # 27     ecut=    80.00 Ry     beta=0.70
     Davidson diagonalization with overlap
     ethr =  1.19E-03,  avg # of iterations =  2.5

     negative rho (up, down):  2.846E-01 0.000E+00

     total cpu time spent up to now is     8023.4 secs

     total energy              =  -12688.87214795 Ry
     Harris-Foulkes estimate   =  -12690.85919301 Ry
     estimated scf accuracy    <      39.29039229 Ry

     iteration # 28     ecut=    80.00 Ry     beta=0.70
     Davidson diagonalization with overlap
     ethr =  1.19E-03,  avg # of iterations =  1.0

     negative rho (up, down):  3.029E-01 0.000E+00

     total cpu time spent up to now is     8188.8 secs

     total energy              =  -12688.33165530 Ry
     Harris-Foulkes estimate   =  -12689.66951090 Ry
     estimated scf accuracy    <       5.42904314 Ry

     iteration # 29     ecut=    80.00 Ry     beta=0.70
     Davidson diagonalization with overlap
     ethr =  4.22E-04,  avg # of iterations =  2.7

     negative rho (up, down):  2.509E-01 0.000E+00

     total cpu time spent up to now is     8375.0 secs

     total energy              =  -12687.85748596 Ry
     Harris-Foulkes estimate   =  -12688.66768762 Ry
     estimated scf accuracy    <       6.36907821 Ry

     iteration # 30     ecut=    80.00 Ry     beta=0.70
     Davidson diagonalization with overlap
     ethr =  4.22E-04,  avg # of iterations =  1.2

     negative rho (up, down):  6.068E-01 0.000E+00

     total cpu time spent up to now is     8541.7 secs

     total energy              =  -12687.37638095 Ry
     Harris-Foulkes estimate   =  -12688.06807072 Ry
     estimated scf accuracy    <       3.60372684 Ry

     iteration # 31     ecut=    80.00 Ry     beta=0.70
     Davidson diagonalization with overlap
     ethr =  2.80E-04,  avg # of iterations =  8.8

     negative rho (up, down):  8.867E-01 0.000E+00

     total cpu time spent up to now is     8807.7 secs

     total energy              =  -12687.14436454 Ry
     Harris-Foulkes estimate   =  -12687.52848608 Ry
     estimated scf accuracy    <       3.54449819 Ry

     iteration # 32     ecut=    80.00 Ry     beta=0.70
     Davidson diagonalization with overlap
     ethr =  2.75E-04,  avg # of iterations =  6.8

     negative rho (up, down):  1.105E+00 0.000E+00

     total cpu time spent up to now is     9047.8 secs

     total energy              =  -12687.21747577 Ry
     Harris-Foulkes estimate   =  -12687.34006376 Ry
     estimated scf accuracy    <       1.15511616 Ry

     iteration # 33     ecut=    80.00 Ry     beta=0.70
     Davidson diagonalization with overlap
     ethr =  8.97E-05,  avg # of iterations =  8.8

     negative rho (up, down):  5.260E-01 0.000E+00

     total cpu time spent up to now is     9325.8 secs

     total energy              =  -12687.11020069 Ry
     Harris-Foulkes estimate   =  -12687.25216484 Ry
     estimated scf accuracy    <       0.59766840 Ry

     iteration # 34     ecut=    80.00 Ry     beta=0.70
     Davidson diagonalization with overlap
     ethr =  4.64E-05,  avg # of iterations =  8.8

     negative rho (up, down):  4.649E-01 0.000E+00

     total cpu time spent up to now is     9596.3 secs

     total energy              =  -12687.13325696 Ry
     Harris-Foulkes estimate   =  -12687.15457923 Ry
     estimated scf accuracy    <       0.22234967 Ry

     iteration # 35     ecut=    80.00 Ry     beta=0.70
     Davidson diagonalization with overlap
     ethr =  1.73E-05,  avg # of iterations =  2.2

     negative rho (up, down):  1.522E-01 0.000E+00

     total cpu time spent up to now is     9777.4 secs

     total energy              =  -12687.12296435 Ry
     Harris-Foulkes estimate   =  -12687.14328720 Ry
     estimated scf accuracy    <       0.12034381 Ry

     iteration # 36     ecut=    80.00 Ry     beta=0.70
     Davidson diagonalization with overlap
     ethr =  9.34E-06,  avg # of iterations = 13.0

     negative rho (up, down):  1.358E-01 0.000E+00

     total cpu time spent up to now is    10115.3 secs

     total energy              =  -12687.12191853 Ry
     Harris-Foulkes estimate   =  -12687.13317095 Ry
     estimated scf accuracy    <       0.06654351 Ry

     iteration # 37     ecut=    80.00 Ry     beta=0.70
     Davidson diagonalization with overlap
     ethr =  5.17E-06,  avg # of iterations =  9.3

     negative rho (up, down):  2.000E-02 0.000E+00

     total cpu time spent up to now is    10399.7 secs

     total energy              =  -12687.12353387 Ry
     Harris-Foulkes estimate   =  -12687.12926017 Ry
     estimated scf accuracy    <       0.02971787 Ry

     iteration # 38     ecut=    80.00 Ry     beta=0.70
     Davidson diagonalization with overlap
     c_bands:  2 eigenvalues not converged
     c_bands:  1 eigenvalues not converged
     ethr =  2.31E-06,  avg # of iterations = 15.8

     negative rho (up, down):  8.383E-03 0.000E+00

     total cpu time spent up to now is    10782.7 secs

     total energy              =  -12687.12529777 Ry
     Harris-Foulkes estimate   =  -12687.12667521 Ry
     estimated scf accuracy    <       0.01171870 Ry

     iteration # 39     ecut=    80.00 Ry     beta=0.70
     Davidson diagonalization with overlap
     c_bands:  1 eigenvalues not converged
     c_bands:  1 eigenvalues not converged
     ethr =  9.10E-07,  avg # of iterations = 13.3

     negative rho (up, down):  2.576E-03 0.000E+00

     total cpu time spent up to now is    11119.7 secs

     total energy              =  -12687.12466535 Ry
     Harris-Foulkes estimate   =  -12687.12619062 Ry
     estimated scf accuracy    <       0.00900696 Ry

     iteration # 40     ecut=    80.00 Ry     beta=0.70
     Davidson diagonalization with overlap
     ethr =  6.99E-07,  avg # of iterations =  9.5

     negative rho (up, down):  8.848E-04 0.000E+00

     total cpu time spent up to now is    11408.6 secs

     total energy              =  -12687.12482598 Ry
     Harris-Foulkes estimate   =  -12687.12515164 Ry
     estimated scf accuracy    <       0.00279043 Ry

     iteration # 41     ecut=    80.00 Ry     beta=0.70
     Davidson diagonalization with overlap
     ethr =  2.17E-07,  avg # of iterations = 10.5

     negative rho (up, down):  1.179E-03 0.000E+00

     total cpu time spent up to now is    11723.6 secs

     total energy              =  -12687.12491611 Ry
     Harris-Foulkes estimate   =  -12687.12535264 Ry
     estimated scf accuracy    <       0.00197445 Ry

     iteration # 42     ecut=    80.00 Ry     beta=0.70
     Davidson diagonalization with overlap
     c_bands:  1 eigenvalues not converged
     ethr =  1.53E-07,  avg # of iterations =  9.8

     negative rho (up, down):  6.386E-04 0.000E+00

     total cpu time spent up to now is    12012.1 secs

     total energy              =  -12687.12523908 Ry
     Harris-Foulkes estimate   =  -12687.12510140 Ry
     estimated scf accuracy    <       0.00029647 Ry

     iteration # 43     ecut=    80.00 Ry     beta=0.70
     Davidson diagonalization with overlap
     ethr =  2.30E-08,  avg # of iterations =  5.5

     negative rho (up, down):  7.593E-04 0.000E+00

     total cpu time spent up to now is    12242.8 secs

     total energy              =  -12687.12549073 Ry
     Harris-Foulkes estimate   =  -12687.12525978 Ry
     estimated scf accuracy    <       0.00009665 Ry

     iteration # 44     ecut=    80.00 Ry     beta=0.70
     Davidson diagonalization with overlap
     c_bands:  1 eigenvalues not converged
     ethr =  7.50E-09,  avg # of iterations = 12.7

     negative rho (up, down):  1.472E-03 0.000E+00

     total cpu time spent up to now is    12571.8 secs

     total energy              =  -12687.12551949 Ry
     Harris-Foulkes estimate   =  -12687.12549979 Ry
     estimated scf accuracy    <       0.00003645 Ry

     iteration # 45     ecut=    80.00 Ry     beta=0.70
     Davidson diagonalization with overlap
     ethr =  2.83E-09,  avg # of iterations = 10.0

     negative rho (up, down):  1.783E-03 0.000E+00

     total cpu time spent up to now is    12853.8 secs

     total energy              =  -12687.12552293 Ry
     Harris-Foulkes estimate   =  -12687.12552139 Ry
     estimated scf accuracy    <       0.00000562 Ry

     iteration # 46     ecut=    80.00 Ry     beta=0.70
     Davidson diagonalization with overlap
     ethr =  4.36E-10,  avg # of iterations =  2.7

     negative rho (up, down):  1.859E-03 0.000E+00

     total cpu time spent up to now is    13046.9 secs

     total energy              =  -12687.12552365 Ry
     Harris-Foulkes estimate   =  -12687.12552342 Ry
     estimated scf accuracy    <       0.00000102 Ry

     iteration # 47     ecut=    80.00 Ry     beta=0.70
     Davidson diagonalization with overlap
     ethr =  7.95E-11,  avg # of iterations =  3.0

     negative rho (up, down):  2.013E-03 0.000E+00

     total cpu time spent up to now is    13255.5 secs

     total energy              =  -12687.12552369 Ry
     Harris-Foulkes estimate   =  -12687.12552379 Ry
     estimated scf accuracy    <       0.00000031 Ry

     iteration # 48     ecut=    80.00 Ry     beta=0.70
     Davidson diagonalization with overlap
     ethr =  2.44E-11,  avg # of iterations =  3.2

     negative rho (up, down):  1.927E-03 0.000E+00

     total cpu time spent up to now is    13471.9 secs

     total energy              =  -12687.12552375 Ry
     Harris-Foulkes estimate   =  -12687.12552374 Ry
     estimated scf accuracy    <       0.00000014 Ry

     iteration # 49     ecut=    80.00 Ry     beta=0.70
     Davidson diagonalization with overlap
     ethr =  1.06E-11,  avg # of iterations =  2.8

     negative rho (up, down):  1.954E-03 0.000E+00

     total cpu time spent up to now is    13669.6 secs

     total energy              =  -12687.12552362 Ry
     Harris-Foulkes estimate   =  -12687.12552377 Ry
     estimated scf accuracy    <       0.00000004 Ry

     iteration # 50     ecut=    80.00 Ry     beta=0.70
     Davidson diagonalization with overlap
     ethr =  3.43E-12,  avg # of iterations =  3.8

     negative rho (up, down):  1.951E-03 0.000E+00

     total cpu time spent up to now is    13890.6 secs

     total energy              =  -12687.12552362 Ry
     Harris-Foulkes estimate   =  -12687.12552363 Ry
     estimated scf accuracy    <       0.00000001 Ry

     iteration # 51     ecut=    80.00 Ry     beta=0.70
     Davidson diagonalization with overlap
     ethr =  9.76E-13,  avg # of iterations =  2.0

     negative rho (up, down):  1.937E-03 0.000E+00

     total cpu time spent up to now is    14068.2 secs

     End of self-consistent calculation

          k = 0.0000 0.0000 0.0000 (256287 PWs)   bands (ev):

   -16.0613 -15.7507 -15.5265 -14.6048 -14.5084 -14.1179 -14.0619 -13.8207
   -13.7890 -13.6387 -13.3811 -12.8229 -12.7834 -12.7376 -12.6017 -12.5726
   -11.8476 -11.0273 -10.9453 -10.9435 -10.7966 -10.2005  -9.6005  -9.1699
    -9.0733  -9.0423  -8.6283  -8.2883  -8.2303  -8.0715  -7.7150  -7.2699
    -7.2343  -7.2242  -7.1921  -7.1584  -6.8133  -6.7115  -6.1879  -5.7381
    -5.6598  -5.6211  -5.5600  -5.4831  -5.4816  -5.2060  -5.2013  -5.0695
    -5.0122  -4.8591  -4.6741  -4.4142  -4.3171  -4.2854  -4.1794  -4.1777
    -3.8968  -3.8510  -3.7414  -3.7039  -3.7013  -3.3090  -3.2359  -3.1913
    -3.1407  -3.1226  -3.1175  -3.0787  -3.0248  -2.9540  -2.9363  -2.8681
    -2.7557  -2.7412  -2.7239  -2.7227  -2.7150  -2.7143  -2.5925  -2.5798
    -2.5511  -2.4992  -2.4666  -2.4460  -2.4011  -2.3533  -2.3494  -2.2256
    -2.1797  -2.1559  -2.1167  -2.0871  -2.0225  -2.0145  -1.9269  -1.9160
    -1.9025  -1.8828  -1.8766  -1.8712  -1.8676  -1.8515  -1.8139  -1.8130
    -1.7523  -1.7490  -1.7242  -1.7183  -1.6873  -1.6853  -1.6556  -1.5830
    -1.5535  -1.5009  -1.4632  -1.4628  -1.4588  -1.4394  -1.4164  -1.4064
    -1.3983  -1.3816  -1.3657  -1.3417  -1.3409  -1.3109  -1.3073  -1.2781
    -1.2747  -1.2608  -1.2581  -1.2509  -1.2366  -1.2312  -1.2203  -1.2048
    -1.1732  -1.1573  -1.1535  -1.1398  -1.1222  -1.1024  -1.0973  -1.0638
    -1.0250  -1.0107  -0.9911  -0.9708  -0.9701  -0.9384  -0.9305  -0.9209
    -0.9113  -0.9025  -0.8967  -0.8874  -0.8724  -0.8714  -0.8446  -0.8156
    -0.7893  -0.7801  -0.7693  -0.7626  -0.7602  -0.7534  -0.7488  -0.7477
    -0.7445  -0.7427  -0.7388  -0.7379  -0.7176  -0.6970  -0.6905  -0.6829
    -0.6710  -0.6687  -0.6659  -0.6527  -0.6378  -0.6224  -0.6184  -0.6036
    -0.6008  -0.5938  -0.5926  -0.5883  -0.5845  -0.5794  -0.5774  -0.5754
    -0.5738  -0.5708  -0.5696  -0.5647  -0.5600  -0.5586  -0.5475  -0.5370
    -0.5309  -0.4958  -0.4844  -0.4542  -0.4408  -0.4228  -0.4166  -0.4159
    -0.4079  -0.4044  -0.3921  -0.3918  -0.3681  -0.3643  -0.3439  -0.3438
    -0.3423  -0.3295  -0.3183  -0.3167  -0.3046  -0.3006  -0.2967  -0.2889
    -0.2784  -0.2747  -0.2680  -0.2606  -0.2523  -0.2391  -0.2268  -0.2163
    -0.1948  -0.1749  -0.1688  -0.1618  -0.1587  -0.1505  -0.1475  -0.1448
    -0.1426  -0.1328  -0.1325  -0.1307  -0.1263  -0.1245  -0.1184  -0.1105
    -0.1086  -0.1029  -0.0993  -0.0941  -0.0810  -0.0688  -0.0560  -0.0550
    -0.0372  -0.0288  -0.0258  -0.0184  -0.0107  -0.0020  -0.0015   0.0022
     0.0082   0.0084   0.0146   0.0268   0.0300   0.0353   0.0392   0.0422
     0.0556   0.0572   0.0580   0.0604   0.0675   0.0692   0.0740   0.0747
     0.0869   0.0890   0.0995   0.1045   0.1237   0.1287   0.1338   0.1402
     0.1421   0.1583   0.1771   0.1776   0.1892   0.1914   0.1979   0.2066
     0.2078   0.2137   0.2147   0.2183   0.2267   0.2367   0.2401   0.2517
     0.2555   0.2652   0.2670   0.2713   0.2750   0.2810   0.2867   0.2874
     0.3009   0.3017   0.3095   0.3150   0.3177   0.3229   0.3314   0.3331
     0.3334   0.3375   0.3436   0.3440   0.3461   0.3682   0.3693   0.3823
     0.3841   0.3926   0.4054   0.4190   0.4231   0.4376   0.4384   0.4537
     0.4584   0.4699   0.4760   0.4871   0.4894   0.4984   0.5081   0.5096
     0.5150   0.5228   0.5393   0.5466   0.5474   0.5549   0.5647   0.5699
     0.5920   0.5948   0.5966   0.6066   0.6097   0.6108   0.6236   0.6274
     0.6365   0.6365   0.6449   0.6567   0.6644   0.6684   0.6775   0.6862
     0.6889   0.6912   0.6970   0.7131   0.7194   0.7219   0.7310   0.7323
     0.7451   0.7474   0.7489   0.7551   0.7556   0.7685   0.7712   0.7718
     0.7840   0.7855   0.7880   0.7919   0.7965   0.8043   0.8091   0.8115
     0.8175   0.8209   0.8272   0.8279   0.8335   0.8389   0.8442   0.8557
     0.8564   0.8575   0.8656   0.8785   0.8905   0.9000   0.9018   0.9085
     0.9085   0.9144   0.9189   0.9196   0.9228   0.9343   0.9373   0.9426
     0.9469   0.9483   0.9488   0.9547   0.9603   0.9608   0.9687   0.9713
     0.9841   0.9879   0.9920   0.9960   0.9965   0.9988   1.0056   1.0059
     1.0104   1.0152   1.0162   1.0231   1.0271   1.0329   1.0479   1.0480
     1.0637   1.0696   1.0724   1.0761   1.0797   1.0825   1.0877   1.0893
     1.1054   1.1169   1.1197   1.1250   1.1294   1.1341   1.1392   1.1407
     1.1464   1.1475   1.1563   1.1616   1.1621   1.1693   1.1742   1.1857
     1.1906   1.1970   1.2003   1.2081   1.2084   1.2107   1.2123   1.2224
     1.2227   1.2256   1.2346   1.2478   1.2538   1.2599   1.2641   1.2686
     1.2701   1.2730   1.2792   1.2817   1.2828   1.2867   1.2884   1.2941
     1.2950   1.3008   1.3044   1.3108   1.3193   1.3209   1.3256   1.3341
     1.3388   1.3433   1.3537   1.3604   1.3631   1.3649   1.3697   1.3726
     1.3766   1.3781   1.3786   1.3827   1.3850   1.3931   1.3971   1.4024
     1.4050   1.4195   1.4236   1.4243   1.4281   1.4283   1.4464   1.4543
     1.4620   1.4626   1.4664   1.4665   1.4706   1.4716   1.4836   1.4870
     1.4885   1.4937   1.5030   1.5061   1.5115   1.5130   1.5171   1.5189
     1.5209   1.5236   1.5283   1.5370   1.5376   1.5411   1.5472   1.5493
     1.5527   1.5595   1.5599   1.5624   1.5632   1.5676   1.5677   1.5726
     1.5747   1.5780   1.5795   1.5862   1.6007   1.6040   1.6135   1.6158
     1.6243   1.6271   1.6305   1.6319   1.6358   1.6390   1.6422   1.6422
     1.6525   1.6580   1.6628   1.6628   1.6679   1.6737   1.6750   1.6790
     1.6862   1.6907   1.6928   1.6960   1.6970   1.6995   1.7016   1.7064
     1.7070   1.7142   1.7143   1.7165   1.7228   1.7275   1.7316   1.7327
     1.7416   1.7484   1.7489   1.7644   1.7785   1.7806   1.7830   1.7983
     1.8115   1.8207   1.8335   1.8412   1.8450   1.8526   1.8546   1.8581
     1.8764   1.8818   1.8944   1.9004   1.9015   1.9030   1.9058   1.9135
     1.9298   2.0838   2.2147   2.2603   2.3740   2.3923   2.4444   2.4448
     2.4497   2.4693   2.4697   2.4757   2.4813   2.4990   2.5015   2.5570
     2.6571   2.6744   2.7146   2.7250   2.7301   2.7429   2.7438   2.8322
     2.9070   2.9116   2.9738   2.9929   3.2843   3.3258   3.4675   3.4710
     3.6487   3.7088   3.7944   3.8366   3.9266   4.0855   4.0977   4.1174
     4.1408   4.1946   4.2028   4.2178   4.2523   4.2603   4.2661   4.2870
     4.2906   4.3033   4.3781   4.4164   4.4445   4.5167   4.5463   4.7873
     4.8856   4.9234   5.0088   5.0972   5.2574   5.2673   5.3904   5.5449
     5.6775   5.6955   5.8073   5.9102   5.9974   6.0333   6.1231   6.2079
     6.2112   6.3479   6.6236   6.6484   6.6889   6.6997   6.7062   6.7259
     6.8088   6.8475   6.8663   6.9202   6.9568   6.9856   6.9995   7.0288
     7.0635   7.1051   7.1668   7.2804   7.3315   7.3494   7.3745   7.3926
     7.4211   7.5018   7.6295   7.7269   7.8675   7.8708   7.8890   7.9183
     7.9430   7.9572   7.9610   7.9832   7.9907   8.0536   8.4073   8.4529
     8.4594   8.4681   8.4815   8.5904   8.6001   8.6098   8.6238   8.6523
     8.6597   8.6992   8.7119   8.7417   8.7556   8.8037   8.8373   8.8885
     8.9584   8.9686   8.9887   9.0273   9.0837   9.1146   9.1317   9.2152
     9.2420   9.2500   9.3372   9.3489   9.3676   9.3897   9.4014   9.4419
     9.4956   9.5022   9.5809   9.6139   9.6638   9.7590   9.8503   9.9674
    10.0014  10.0024  10.0339  10.0531  10.0905

          k = 0.0000-0.2165 0.0000 (256176 PWs)   bands (ev):

   -16.0314 -15.8659 -15.2608 -15.0810 -14.0766 -14.0692 -13.9600 -13.9401
   -13.7566 -13.6387 -13.3614 -13.2953 -13.1828 -12.6928 -11.9546 -11.8567
   -11.8164 -11.8088 -11.5935 -10.8883 -10.0418  -9.9820  -9.9062  -9.4655
    -8.7734  -8.6515  -8.6202  -8.5098  -8.4936  -8.1025  -7.8154  -7.7426
    -7.5758  -7.0186  -6.6290  -6.5693  -6.5464  -6.4881  -6.4764  -6.2262
    -5.9105  -5.8504  -5.6215  -5.5896  -5.4998  -5.2066  -4.8323  -4.8253
    -4.7055  -4.6456  -4.5991  -4.5628  -4.5534  -4.3330  -4.2584  -4.2060
    -4.1190  -3.9979  -3.9629  -3.7532  -3.7375  -3.2913  -3.2622  -3.1020
    -3.0535  -3.0319  -3.0196  -2.9796  -2.9677  -2.9132  -2.8038  -2.7606
    -2.7566  -2.7330  -2.7110  -2.6986  -2.6439  -2.6102  -2.5488  -2.5241
    -2.4937  -2.4855  -2.4348  -2.3346  -2.3308  -2.3118  -2.3100  -2.2909
    -2.2891  -2.2533  -2.2430  -2.1742  -2.0674  -2.0291  -1.9891  -1.9854
    -1.9827  -1.9577  -1.8958  -1.8719  -1.8705  -1.8678  -1.8606  -1.7883
    -1.7435  -1.7352  -1.7019  -1.7017  -1.6831  -1.6826  -1.6293  -1.6112
    -1.5803  -1.5739  -1.5480  -1.4960  -1.4797  -1.4781  -1.4750  -1.4607
    -1.4586  -1.4579  -1.4312  -1.4062  -1.3804  -1.3697  -1.3475  -1.3317
    -1.2999  -1.2578  -1.2093  -1.1925  -1.1888  -1.1693  -1.1542  -1.1416
    -1.1358  -1.1083  -1.0936  -1.0490  -1.0348  -1.0247  -1.0095  -1.0094
    -1.0005  -0.9991  -0.9954  -0.9870  -0.9819  -0.9756  -0.9712  -0.9655
    -0.9598  -0.9302  -0.9272  -0.9158  -0.9113  -0.9049  -0.8695  -0.8549
    -0.8448  -0.8342  -0.8182  -0.8147  -0.8057  -0.7791  -0.7744  -0.7725
    -0.7622  -0.7608  -0.7279  -0.7200  -0.7148  -0.7122  -0.7030  -0.6934
    -0.6848  -0.6797  -0.6625  -0.6476  -0.6453  -0.6379  -0.6363  -0.6245
    -0.6171  -0.6166  -0.6045  -0.5970  -0.5808  -0.5608  -0.5562  -0.5510
    -0.5503  -0.5413  -0.5314  -0.5208  -0.5149  -0.5046  -0.4924  -0.4917
    -0.4893  -0.4780  -0.4700  -0.4507  -0.4380  -0.3939  -0.3913  -0.3647
    -0.3640  -0.3583  -0.3576  -0.3573  -0.3450  -0.3417  -0.3334  -0.3329
    -0.3289  -0.3233  -0.3154  -0.3098  -0.2990  -0.2878  -0.2774  -0.2677
    -0.2672  -0.2608  -0.2516  -0.2487  -0.2409  -0.2303  -0.2238  -0.2233
    -0.2092  -0.1970  -0.1934  -0.1893  -0.1765  -0.1755  -0.1673  -0.1662
    -0.1626  -0.1600  -0.1518  -0.1264  -0.1170  -0.1071  -0.0976  -0.0769
    -0.0727  -0.0594  -0.0558  -0.0540  -0.0420  -0.0358  -0.0318  -0.0297
    -0.0262  -0.0212  -0.0109  -0.0090  -0.0039  -0.0008   0.0018   0.0102
     0.0187   0.0219   0.0227   0.0354   0.0367   0.0407   0.0515   0.0518
     0.0553   0.0562   0.0611   0.0701   0.0833   0.0838   0.0950   0.0966
     0.1033   0.1133   0.1192   0.1212   0.1297   0.1340   0.1454   0.1477
     0.1515   0.1592   0.1654   0.1741   0.1768   0.1819   0.1846   0.1882
     0.1933   0.1945   0.1974   0.2051   0.2124   0.2181   0.2369   0.2435
     0.2480   0.2587   0.2621   0.2709   0.2734   0.2747   0.2832   0.2877
     0.2899   0.2924   0.2944   0.3042   0.3103   0.3161   0.3226   0.3299
     0.3329   0.3369   0.3371   0.3410   0.3577   0.3584   0.3620   0.3665
     0.3773   0.3843   0.3850   0.3913   0.4057   0.4073   0.4187   0.4271
     0.4345   0.4475   0.4512   0.4610   0.4678   0.4730   0.4760   0.4781
     0.4861   0.5001   0.5226   0.5286   0.5389   0.5435   0.5569   0.5650
     0.5709   0.5981   0.6156   0.6292   0.6370   0.6405   0.6470   0.6508
     0.6597   0.6661   0.6734   0.6735   0.6887   0.6967   0.6997   0.7109
     0.7111   0.7184   0.7201   0.7202   0.7270   0.7290   0.7334   0.7434
     0.7444   0.7454   0.7575   0.7608   0.7651   0.7708   0.7739   0.7804
     0.7804   0.7872   0.7893   0.7937   0.7939   0.7963   0.8011   0.8074
     0.8154   0.8174   0.8202   0.8286   0.8294   0.8309   0.8323   0.8345
     0.8370   0.8414   0.8421   0.8447   0.8499   0.8611   0.8663   0.8799
     0.8961   0.8984   0.9065   0.9090   0.9126   0.9165   0.9215   0.9219
     0.9325   0.9340   0.9378   0.9404   0.9415   0.9460   0.9493   0.9494
     0.9681   0.9744   0.9840   0.9901   0.9931   0.9937   1.0025   1.0039
     1.0071   1.0078   1.0103   1.0144   1.0225   1.0276   1.0371   1.0374
     1.0403   1.0413   1.0584   1.0835   1.0928   1.0950   1.1056   1.1156
     1.1241   1.1340   1.1516   1.1532   1.1572   1.1650   1.1685   1.1701
     1.1739   1.1744   1.1780   1.1822   1.1877   1.1942   1.1993   1.1993
     1.2042   1.2069   1.2097   1.2147   1.2169   1.2235   1.2244   1.2253
     1.2258   1.2268   1.2292   1.2306   1.2383   1.2398   1.2433   1.2469
     1.2479   1.2541   1.2541   1.2608   1.2630   1.2650   1.2675   1.2758
     1.2794   1.2833   1.2840   1.2863   1.2942   1.2990   1.3017   1.3030
     1.3103   1.3267   1.3281   1.3350   1.3507   1.3573   1.3680   1.3717
     1.3809   1.3873   1.3889   1.3902   1.3944   1.3956   1.4048   1.4143
     1.4161   1.4267   1.4388   1.4411   1.4427   1.4450   1.4532   1.4546
     1.4608   1.4612   1.4635   1.4679   1.4696   1.4732   1.4753   1.4764
     1.4820   1.4846   1.4868   1.4910   1.4944   1.4994   1.5030   1.5100
     1.5162   1.5197   1.5217   1.5247   1.5256   1.5356   1.5358   1.5409
     1.5478   1.5530   1.5569   1.5614   1.5657   1.5663   1.5695   1.5734
     1.5751   1.5798   1.5849   1.5883   1.5936   1.5961   1.6044   1.6052
     1.6109   1.6120   1.6207   1.6307   1.6359   1.6375   1.6397   1.6407
     1.6478   1.6523   1.6551   1.6574   1.6674   1.6734   1.6821   1.6832
     1.6896   1.6898   1.6910   1.7020   1.7035   1.7100   1.7134   1.7137
     1.7147   1.7222   1.7237   1.7356   1.7468   1.7476   1.7483   1.7627
     1.7704   1.7746   1.7792   1.7810   1.7830   1.7879   1.7942   1.8043
     1.8088   1.8282   1.8489   1.8500   1.8537   1.8655   1.8870   1.9414
     1.9569   1.9705   1.9819   1.9976   2.0056   2.0093   2.0440   2.0518
     2.0577   2.0670   2.0686   2.0706   2.0826   2.1088   2.1139   2.1683
     2.3833   2.4085   2.4941   2.6799   2.6805   2.7026   2.7143   2.7558
     2.7627   2.8157   2.8239   2.8333   2.8449   2.8481   2.8923   2.9584
     2.9607   3.0165   3.0297   3.0395   3.0787   3.1766   3.1774   3.2546
     3.2960   3.3361   3.4200   3.4203   3.6420   3.7899   3.7986   3.8676
     3.9391   4.0897   4.2701   4.2973   4.3216   4.3657   4.4675   4.4687
     4.5241   4.5950   4.6608   4.6702   4.7742   4.8348   4.9179   4.9421
     4.9476   4.9686   5.1091   5.3704   5.4253   5.4296   5.4468   5.5934
     5.6091   5.6300   5.6712   5.7144   5.7209   5.8489   5.8981   6.0219
     6.0853   6.1162   6.2035   6.6489   6.6765   6.6834   6.7358   6.7687
     6.7965   6.8001   6.8374   6.9340   7.0590   7.1072   7.1640   7.1774
     7.2953   7.3013   7.3181   7.3315   7.3347   7.3730   7.3783   7.4099
     7.4120   7.4667   7.4739   7.5437   7.6045   7.6404   7.6760   7.7084
     7.8521   7.8747   7.9436   7.9846   8.0324   8.0543   8.0730   8.3686
     8.4319   8.4587   8.5047   8.5177   8.6282   8.6486   8.6629   8.6820
     8.7065   8.8177   8.8658   8.8795   8.8926   8.9201   8.9377   8.9781
     8.9888   9.0268   9.0538   9.1113   9.1187   9.1713   9.2045   9.2206
     9.2760   9.2775   9.4076   9.4314   9.4507   9.4907   9.5264   9.6137
     9.6145   9.7072   9.7108   9.7555   9.7867   9.8102   9.8573   9.8838
     9.9843  10.0021  10.0610  10.0875  10.1106

          k = 0.2500 0.0000 0.0000 (256240 PWs)   bands (ev):

   -15.9393 -15.6278 -15.4287 -14.9452 -14.6494 -14.5490 -14.4653 -14.1412
   -13.5188 -13.2689 -13.0161 -12.7436 -12.6929 -12.6238 -12.2482 -11.7589
   -11.6552 -11.6092 -11.1342 -10.5951 -10.3866 -10.3728 -10.0348  -9.7291
    -9.4750  -9.2380  -9.1078  -8.7787  -8.6783  -8.2184  -7.8232  -7.2077
    -7.1858  -7.1439  -7.0419  -6.8898  -6.4044  -6.2551  -6.0612  -5.6737
    -5.5779  -5.5553  -5.4818  -5.1911  -5.0397  -5.0265  -4.9496  -4.7387
    -4.6484  -4.5171  -4.3185  -4.2088  -4.1869  -4.1800  -4.1519  -4.0108
    -3.9542  -3.8454  -3.7254  -3.7182  -3.7106  -3.6198  -3.5595  -3.5543
    -3.5101  -3.4315  -3.3355  -3.2702  -3.2299  -3.2079  -3.1543  -3.1239
    -3.0763  -3.0272  -3.0096  -2.9353  -2.8965  -2.7916  -2.7122  -2.6753
    -2.6278  -2.5397  -2.5193  -2.5148  -2.4996  -2.4441  -2.3713  -2.3087
    -2.2619  -2.1837  -2.1417  -2.1005  -2.0620  -2.0196  -1.8382  -1.8226
    -1.8179  -1.8164  -1.7962  -1.7868  -1.7208  -1.6831  -1.6784  -1.6237
    -1.6060  -1.5867  -1.5476  -1.5239  -1.5230  -1.5176  -1.5164  -1.4985
    -1.4873  -1.4711  -1.4390  -1.4335  -1.4259  -1.4223  -1.3821  -1.3587
    -1.3514  -1.3357  -1.3196  -1.3166  -1.3057  -1.2983  -1.2937  -1.2814
    -1.2537  -1.2480  -1.2323  -1.2259  -1.2188  -1.2082  -1.1836  -1.1020
    -1.0637  -1.0606  -1.0484  -1.0353  -1.0321  -1.0055  -0.9823  -0.9713
    -0.9681  -0.9659  -0.9477  -0.9427  -0.9364  -0.9253  -0.9197  -0.9084
    -0.9036  -0.8981  -0.8885  -0.8699  -0.8627  -0.8535  -0.8526  -0.8454
    -0.8403  -0.8381  -0.8289  -0.8261  -0.8134  -0.8013  -0.7866  -0.7848
    -0.7747  -0.7721  -0.7533  -0.7476  -0.7428  -0.7381  -0.7284  -0.7228
    -0.7202  -0.7170  -0.7163  -0.7112  -0.7088  -0.7054  -0.6928  -0.6886
    -0.6762  -0.6681  -0.6523  -0.6410  -0.6353  -0.6301  -0.6281  -0.6239
    -0.6069  -0.5855  -0.5708  -0.5565  -0.5520  -0.5362  -0.5295  -0.5238
    -0.5122  -0.5071  -0.4992  -0.4948  -0.4889  -0.4881  -0.4773  -0.4618
    -0.4548  -0.4419  -0.4169  -0.3973  -0.3746  -0.3503  -0.3319  -0.3173
    -0.3023  -0.3001  -0.2990  -0.2916  -0.2856  -0.2794  -0.2765  -0.2732
    -0.2610  -0.2593  -0.2569  -0.2451  -0.2422  -0.2366  -0.2234  -0.2153
    -0.2067  -0.2018  -0.1975  -0.1910  -0.1905  -0.1847  -0.1686  -0.1555
    -0.1417  -0.1353  -0.1321  -0.1275  -0.1200  -0.1125  -0.1067  -0.1048
    -0.0910  -0.0894  -0.0799  -0.0752  -0.0687  -0.0600  -0.0532  -0.0504
    -0.0367  -0.0320  -0.0288  -0.0183  -0.0163  -0.0089  -0.0033   0.0031
     0.0117   0.0144   0.0245   0.0255   0.0365   0.0417   0.0465   0.0498
     0.0588   0.0723   0.0739   0.0822   0.0888   0.0922   0.1023   0.1078
     0.1152   0.1190   0.1217   0.1259   0.1365   0.1430   0.1450   0.1544
     0.1652   0.1796   0.1935   0.2012   0.2065   0.2132   0.2223   0.2271
     0.2335   0.2384   0.2487   0.2515   0.2518   0.2591   0.2615   0.2646
     0.2674   0.2740   0.2807   0.2818   0.2871   0.2910   0.2941   0.2968
     0.3072   0.3097   0.3153   0.3181   0.3249   0.3412   0.3440   0.3456
     0.3677   0.3701   0.3746   0.3853   0.3883   0.3912   0.3974   0.4009
     0.4038   0.4121   0.4177   0.4229   0.4392   0.4449   0.4479   0.4579
     0.4855   0.4920   0.5067   0.5156   0.5228   0.5291   0.5308   0.5345
     0.5360   0.5406   0.5424   0.5459   0.5475   0.5550   0.5609   0.5656
     0.5662   0.5701   0.5751   0.5767   0.5806   0.5815   0.5888   0.5927
     0.5957   0.6020   0.6161   0.6177   0.6248   0.6405   0.6498   0.6565
     0.6646   0.6693   0.6816   0.6866   0.6920   0.6965   0.7027   0.7060
     0.7137   0.7197   0.7264   0.7287   0.7313   0.7365   0.7441   0.7481
     0.7496   0.7544   0.7559   0.7591   0.7685   0.7807   0.7818   0.7935
     0.7966   0.7996   0.8017   0.8046   0.8132   0.8133   0.8238   0.8284
     0.8314   0.8380   0.8414   0.8454   0.8531   0.8596   0.8628   0.8662
     0.8743   0.8767   0.8799   0.8931   0.8953   0.9024   0.9048   0.9055
     0.9206   0.9244   0.9290   0.9309   0.9444   0.9475   0.9495   0.9600
     0.9659   0.9735   0.9790   0.9849   0.9942   1.0010   1.0057   1.0098
     1.0137   1.0203   1.0267   1.0330   1.0351   1.0375   1.0408   1.0519
     1.0568   1.0604   1.0679   1.0724   1.0847   1.0925   1.1006   1.1033
     1.1124   1.1186   1.1201   1.1236   1.1257   1.1327   1.1346   1.1443
     1.1457   1.1520   1.1541   1.1581   1.1608   1.1669   1.1747   1.1867
     1.1979   1.1992   1.2023   1.2101   1.2163   1.2226   1.2285   1.2295
     1.2337   1.2376   1.2416   1.2449   1.2478   1.2571   1.2576   1.2652
     1.2685   1.2710   1.2757   1.2768   1.2827   1.2835   1.2853   1.2872
     1.2932   1.2951   1.3022   1.3053   1.3102   1.3146   1.3196   1.3236
     1.3247   1.3264   1.3313   1.3336   1.3351   1.3418   1.3455   1.3485
     1.3566   1.3583   1.3649   1.3687   1.3704   1.3837   1.3877   1.3930
     1.3934   1.3988   1.3999   1.4097   1.4128   1.4247   1.4288   1.4343
     1.4398   1.4435   1.4501   1.4584   1.4613   1.4664   1.4782   1.4827
     1.4866   1.4966   1.5032   1.5042   1.5101   1.5112   1.5122   1.5184
     1.5211   1.5302   1.5330   1.5361   1.5374   1.5445   1.5463   1.5495
     1.5537   1.5577   1.5596   1.5656   1.5680   1.5696   1.5748   1.5773
     1.5835   1.5866   1.5910   1.5950   1.5984   1.6005   1.6071   1.6115
     1.6142   1.6160   1.6178   1.6229   1.6262   1.6287   1.6371   1.6393
     1.6452   1.6461   1.6510   1.6611   1.6717   1.6730   1.6770   1.6796
     1.6825   1.6896   1.6901   1.6906   1.6942   1.6992   1.7001   1.7017
     1.7072   1.7111   1.7210   1.7251   1.7272   1.7292   1.7305   1.7316
     1.7410   1.7415   1.7456   1.7484   1.7585   1.7617   1.7690   1.7705
     1.7777   1.7866   1.7926   1.8052   1.8120   1.8199   1.8374   1.8510
     1.8649   1.8758   1.8842   1.8920   1.9153   1.9715   1.9873   1.9921
     2.0221   2.0337   2.0416   2.0618   2.0949   2.1283   2.2428   2.2880
     2.3270   2.3372   2.3625   2.3777   2.4403   2.4840   2.5550   2.5785
     2.7941   2.8149   2.8213   2.8457   3.0472   3.2324   3.2410   3.2814
     3.3327   3.3644   3.4375   3.4645   3.4801   3.4821   3.5780   3.6465
     3.7438   3.7719   3.8645   3.9015   3.9075   3.9126   3.9673   3.9886
     4.0289   4.1011   4.1153   4.1916   4.2022   4.3285   4.4182   4.4764
     4.5351   4.5499   4.5573   4.6640   4.6824   4.8451   4.9379   5.0867
     5.1062   5.1641   5.3041   5.4523   5.4943   5.5206   5.5310   5.6503
     5.6578   5.7513   5.7528   5.7779   5.8275   5.8721   5.8768   5.9368
     6.0009   6.0112   6.0373   6.0893   6.1147   6.2324   6.2563   6.2972
     6.3350   6.3631   6.4423   6.6503   6.8731   6.9412   6.9672   6.9820
     7.0241   7.0438   7.0917   7.1981   7.2353   7.2793   7.2917   7.3114
     7.3869   7.4335   7.5185   7.5346   7.5456   7.5979   7.6463   7.6785
     7.8011   7.8218   7.8704   7.8713   8.0176   8.0418   8.0456   8.0958
     8.1187   8.1441   8.2823   8.2963   8.3063   8.3355   8.3457   8.4199
     8.5283   8.5628   8.6072   8.6275   8.6357   8.6500   8.7082   8.7830
     8.8727   8.8923   8.9098   8.9163   8.9672   9.1849   9.2001   9.3569
     9.3802   9.4065   9.4211   9.4281   9.4351   9.4540   9.4641   9.4792
     9.4896   9.5043   9.5107   9.5423   9.5459   9.6250   9.6354   9.7415
     9.7595   9.7743   9.9142   9.9682   9.9759

          k = 0.2500-0.2165 0.0000 (256316 PWs)   bands (ev):

   -15.9074 -15.7511 -15.1415 -15.0323 -14.9210 -14.6682 -14.1652 -13.9499
   -13.6378 -13.4547 -12.9974 -12.8320 -12.6799 -12.4640 -12.2670 -11.9306
   -11.5309 -11.3538 -10.9578 -10.7593 -10.6263 -10.4583 -10.3572  -9.7181
    -9.2280  -8.9831  -8.7406  -8.6663  -8.5132  -8.3528  -8.1043  -7.9344
    -7.8536  -6.9623  -6.3385  -6.2815  -6.2209  -6.1841  -5.9676  -5.8909
    -5.7847  -5.6447  -5.4428  -5.4186  -5.3658  -5.0525  -4.7792  -4.5688
    -4.5441  -4.4810  -4.4012  -4.3954  -4.2944  -4.0874  -4.0740  -4.0549
    -4.0058  -3.9844  -3.8129  -3.8008  -3.6699  -3.6539  -3.5734  -3.4851
    -3.4576  -3.3754  -3.3002  -3.2077  -3.1930  -3.1808  -3.1605  -3.1505
    -3.0892  -2.8837  -2.8784  -2.8546  -2.7799  -2.7738  -2.7206  -2.6550
    -2.6368  -2.6263  -2.5841  -2.5500  -2.5286  -2.4384  -2.3795  -2.2329
    -2.2228  -2.1032  -2.0708  -2.0504  -2.0207  -1.9805  -1.8981  -1.8889
    -1.8882  -1.8850  -1.8186  -1.8004  -1.7346  -1.7235  -1.7011  -1.6993
    -1.6573  -1.6387  -1.5830  -1.5494  -1.5405  -1.5298  -1.5226  -1.5091
    -1.4782  -1.4535  -1.4465  -1.4422  -1.4282  -1.4249  -1.4099  -1.4054
    -1.4005  -1.3950  -1.3911  -1.3877  -1.3586  -1.3245  -1.3080  -1.2839
    -1.2222  -1.2039  -1.1884  -1.1803  -1.0944  -1.0872  -1.0694  -1.0603
    -1.0541  -1.0503  -1.0138  -1.0077  -0.9973  -0.9901  -0.9881  -0.9804
    -0.9741  -0.9655  -0.9642  -0.9587  -0.9554  -0.9503  -0.9388  -0.9322
    -0.9288  -0.9244  -0.9084  -0.9016  -0.8918  -0.8870  -0.8661  -0.8556
    -0.8516  -0.8445  -0.8442  -0.8400  -0.8339  -0.8195  -0.8104  -0.8025
    -0.7934  -0.7759  -0.7729  -0.7592  -0.7524  -0.7437  -0.7311  -0.7288
    -0.7214  -0.7180  -0.7014  -0.6975  -0.6944  -0.6800  -0.6788  -0.6757
    -0.6686  -0.6545  -0.6512  -0.6338  -0.6269  -0.6100  -0.5972  -0.5918
    -0.5908  -0.5817  -0.5726  -0.5535  -0.5315  -0.5153  -0.5136  -0.5111
    -0.4959  -0.4802  -0.4706  -0.4665  -0.4511  -0.4482  -0.4412  -0.4273
    -0.4214  -0.4202  -0.4133  -0.4060  -0.3786  -0.3740  -0.3681  -0.3611
    -0.3373  -0.3271  -0.3078  -0.3017  -0.2942  -0.2911  -0.2865  -0.2763
    -0.2742  -0.2664  -0.2545  -0.2508  -0.2336  -0.2328  -0.2259  -0.2203
    -0.2160  -0.1989  -0.1934  -0.1858  -0.1817  -0.1689  -0.1536  -0.1491
    -0.1383  -0.1328  -0.1285  -0.1251  -0.1189  -0.1116  -0.1064  -0.1025
    -0.1009  -0.0973  -0.0953  -0.0868  -0.0820  -0.0782  -0.0722  -0.0708
    -0.0648  -0.0502  -0.0460  -0.0387  -0.0270  -0.0252  -0.0174   0.0036
     0.0082   0.0153   0.0188   0.0228   0.0294   0.0404   0.0442   0.0554
     0.0590   0.0597   0.0678   0.0879   0.0968   0.1067   0.1124   0.1328
     0.1400   0.1509   0.1576   0.1599   0.1638   0.1683   0.1714   0.1807
     0.1851   0.1899   0.2007   0.2073   0.2107   0.2111   0.2168   0.2232
     0.2294   0.2397   0.2444   0.2486   0.2561   0.2577   0.2618   0.2641
     0.2680   0.2696   0.2760   0.2797   0.2853   0.2898   0.2911   0.2978
     0.2984   0.3041   0.3073   0.3142   0.3291   0.3411   0.3426   0.3527
     0.3631   0.3709   0.3783   0.3812   0.3861   0.3884   0.3927   0.4025
     0.4045   0.4163   0.4215   0.4241   0.4287   0.4341   0.4385   0.4464
     0.4569   0.4640   0.4754   0.4811   0.4950   0.5125   0.5262   0.5314
     0.5398   0.5403   0.5422   0.5493   0.5521   0.5584   0.5633   0.5666
     0.5701   0.5748   0.5785   0.5833   0.5874   0.5969   0.5995   0.6047
     0.6086   0.6126   0.6227   0.6342   0.6403   0.6474   0.6552   0.6625
     0.6668   0.6723   0.6754   0.6869   0.6988   0.7051   0.7067   0.7131
     0.7154   0.7177   0.7267   0.7275   0.7312   0.7328   0.7393   0.7458
     0.7502   0.7574   0.7650   0.7755   0.7813   0.7841   0.7846   0.7875
     0.7962   0.8049   0.8180   0.8213   0.8345   0.8393   0.8451   0.8469
     0.8578   0.8591   0.8646   0.8693   0.8737   0.8747   0.8766   0.8866
     0.8898   0.8918   0.8976   0.9095   0.9111   0.9162   0.9190   0.9207
     0.9249   0.9290   0.9370   0.9386   0.9416   0.9446   0.9475   0.9529
     0.9564   0.9587   0.9668   0.9679   0.9713   0.9717   0.9758   0.9813
     0.9836   0.9905   1.0062   1.0120   1.0227   1.0241   1.0276   1.0354
     1.0445   1.0532   1.0563   1.0667   1.0737   1.0823   1.0875   1.0920
     1.0984   1.0995   1.1082   1.1105   1.1120   1.1125   1.1205   1.1238
     1.1277   1.1312   1.1369   1.1444   1.1493   1.1574   1.1615   1.1659
     1.1687   1.1758   1.1843   1.1886   1.1919   1.2047   1.2115   1.2193
     1.2253   1.2264   1.2292   1.2366   1.2437   1.2451   1.2485   1.2548
     1.2573   1.2682   1.2711   1.2805   1.2830   1.2893   1.2896   1.3039
     1.3084   1.3125   1.3168   1.3267   1.3329   1.3404   1.3432   1.3469
     1.3473   1.3488   1.3501   1.3530   1.3558   1.3616   1.3672   1.3719
     1.3728   1.3793   1.3812   1.3923   1.3979   1.4108   1.4114   1.4208
     1.4258   1.4293   1.4335   1.4362   1.4376   1.4416   1.4446   1.4487
     1.4505   1.4508   1.4564   1.4580   1.4596   1.4613   1.4654   1.4682
     1.4749   1.4765   1.4822   1.4840   1.4915   1.4958   1.4992   1.5087
     1.5125   1.5166   1.5199   1.5299   1.5319   1.5347   1.5382   1.5434
     1.5455   1.5524   1.5599   1.5646   1.5668   1.5718   1.5778   1.5802
     1.5836   1.5843   1.5916   1.5937   1.6019   1.6041   1.6069   1.6099
     1.6174   1.6184   1.6220   1.6308   1.6341   1.6369   1.6394   1.6436
     1.6456   1.6467   1.6476   1.6522   1.6562   1.6599   1.6652   1.6719
     1.6786   1.6805   1.6852   1.6874   1.6893   1.6966   1.6981   1.6984
     1.7025   1.7047   1.7058   1.7118   1.7139   1.7173   1.7273   1.7317
     1.7345   1.7424   1.7444   1.7486   1.7622   1.7671   1.7688   1.7742
     1.7815   1.7925   1.8022   1.8082   1.8123   1.8176   1.8331   1.8480
     1.8532   1.9001   1.9143   1.9367   1.9472   1.9914   2.0088   2.0143
     2.0340   2.0437   2.0489   2.0502   2.0782   2.1085   2.1288   2.1662
     2.2344   2.3737   2.3831   2.4083   2.4233   2.5451   2.5671   2.8337
     2.8393   2.9047   2.9828   3.0296   3.0468   3.0538   3.0572   3.0924
     3.1178   3.1887   3.2261   3.2688   3.3436   3.4067   3.5256   3.5804
     3.8110   3.8284   3.9068   3.9375   3.9660   4.0777   4.0985   4.1298
     4.1678   4.1949   4.2985   4.3331   4.3550   4.3925   4.4684   4.4894
     4.6579   4.6748   4.6975   4.7633   4.8256   4.8633   4.9413   4.9646
     5.0642   5.0963   5.1562   5.1986   5.2128   5.2901   5.3578   5.5047
     5.5415   5.5676   5.6394   5.6729   5.7093   5.7164   5.7363   5.8359
     5.9050   6.0409   6.0598   6.0909   6.1649   6.2076   6.2722   6.3307
     6.3984   6.8137   6.8569   6.9199   6.9508   6.9849   7.0026   7.0048
     7.1788   7.2028   7.2337   7.2553   7.3089   7.3573   7.3602   7.4078
     7.4221   7.4884   7.5373   7.5620   7.5659   7.6233   7.6372   7.6660
     7.6785   7.6979   7.7156   7.7296   7.7618   7.9539   8.0231   8.0467
     8.0728   8.1887   8.2295   8.2508   8.3300   8.4394   8.4468   8.5084
     8.5495   8.5599   8.6353   8.6672   8.6843   8.8297   8.8694   8.9093
     8.9150   8.9439   8.9745   9.0139   9.0205   9.0394   9.0551   9.1023
     9.1939   9.2212   9.2700   9.2832   9.2949   9.3121   9.3412   9.4074
     9.4311   9.4658   9.4994   9.5099   9.5510   9.5745   9.6153   9.6267
     9.6553   9.6679   9.7070   9.7982   9.8401

          k =-0.5000 0.0000 0.0000 (256496 PWs)   bands (ev):

   -15.6182 -15.5348 -15.2831 -15.2395 -15.2047 -14.8302 -14.1731 -14.1250
   -14.0618 -13.5649 -12.4008 -12.3635 -12.2261 -12.0507 -11.7484 -11.7015
   -11.4886 -11.4844 -11.2727 -11.0723 -10.8020 -10.4879 -10.4124  -9.9980
    -9.6217  -9.4079  -9.3902  -8.9201  -8.5576  -8.4190  -8.2552  -7.7722
    -7.0961  -7.0747  -7.0058  -6.9510  -6.6583  -5.6451  -5.5075  -5.2480
    -5.0374  -5.0140  -4.7783  -4.7679  -4.5530  -4.5237  -4.5195  -4.5032
    -4.4995  -4.4336  -4.4229  -4.3774  -4.3334  -4.2700  -4.2573  -4.1752
    -4.1221  -4.1005  -4.0180  -3.8248  -3.8236  -3.7549  -3.6980  -3.6922
    -3.6402  -3.6181  -3.6142  -3.2861  -3.2752  -3.2607  -3.1865  -3.1719
    -3.1486  -3.1397  -3.1237  -3.1080  -3.0828  -3.0579  -3.0206  -2.9420
    -2.7583  -2.6581  -2.6009  -2.5160  -2.5151  -2.4462  -2.3887  -2.3130
    -2.3024  -2.2235  -2.1898  -2.1552  -2.1004  -2.0312  -2.0303  -1.9963
    -1.9821  -1.8811  -1.8733  -1.6132  -1.6112  -1.6009  -1.5970  -1.5960
    -1.5933  -1.5517  -1.4854  -1.4707  -1.4654  -1.4515  -1.4463  -1.3929
    -1.3765  -1.3762  -1.3663  -1.3589  -1.3354  -1.3202  -1.3193  -1.3064
    -1.2414  -1.2290  -1.2250  -1.2023  -1.1897  -1.1785  -1.1582  -1.1462
    -1.1437  -1.1377  -1.1296  -1.1292  -1.0992  -1.0923  -1.0881  -1.0788
    -1.0758  -1.0664  -1.0631  -1.0582  -1.0503  -1.0473  -1.0320  -1.0312
    -1.0158  -0.9990  -0.9935  -0.9934  -0.9883  -0.9729  -0.9440  -0.9376
    -0.9330  -0.9185  -0.9160  -0.9105  -0.9007  -0.8997  -0.8901  -0.8889
    -0.8811  -0.8615  -0.8596  -0.8481  -0.8408  -0.8404  -0.8359  -0.8211
    -0.8094  -0.8004  -0.7897  -0.7829  -0.7760  -0.7720  -0.7429  -0.7308
    -0.7157  -0.7126  -0.7073  -0.7005  -0.7004  -0.6935  -0.6923  -0.6856
    -0.6694  -0.6683  -0.6609  -0.6582  -0.6560  -0.6488  -0.6455  -0.6324
    -0.6298  -0.6261  -0.6218  -0.5688  -0.5655  -0.5571  -0.5538  -0.5372
    -0.5063  -0.5042  -0.4943  -0.4566  -0.4451  -0.4378  -0.4331  -0.4301
    -0.4094  -0.4068  -0.4046  -0.3918  -0.3875  -0.3831  -0.3778  -0.3770
    -0.3727  -0.3654  -0.3551  -0.3407  -0.3398  -0.3262  -0.3213  -0.3087
    -0.3063  -0.2942  -0.2886  -0.2821  -0.2299  -0.2273  -0.2162  -0.1879
    -0.1865  -0.1779  -0.1730  -0.1660  -0.1562  -0.1533  -0.1469  -0.1383
    -0.1364  -0.1324  -0.1264  -0.1148  -0.1147  -0.1113  -0.1093  -0.1061
    -0.1036  -0.0914  -0.0689  -0.0585  -0.0560  -0.0478  -0.0431  -0.0346
    -0.0272  -0.0220  -0.0182  -0.0141  -0.0066  -0.0002   0.0133   0.0170
     0.0207   0.0397   0.0427   0.0504   0.0587   0.0693   0.0736   0.0817
     0.0907   0.1192   0.1209   0.1252   0.1305   0.1383   0.1404   0.1481
     0.1503   0.1604   0.1674   0.1748   0.1755   0.1847   0.2118   0.2209
     0.2305   0.2326   0.2397   0.2413   0.2416   0.2417   0.2471   0.2476
     0.2548   0.2592   0.2705   0.2728   0.2728   0.2940   0.3159   0.3220
     0.3236   0.3277   0.3330   0.3366   0.3383   0.3404   0.3453   0.3479
     0.3561   0.3591   0.3604   0.3610   0.3700   0.3717   0.3742   0.3764
     0.3768   0.3784   0.3806   0.3848   0.3897   0.3901   0.3919   0.3960
     0.4013   0.4037   0.4048   0.4085   0.4111   0.4136   0.4160   0.4208
     0.4320   0.4388   0.4565   0.4642   0.4733   0.5097   0.5138   0.5184
     0.5365   0.5488   0.5526   0.5722   0.5759   0.5806   0.5848   0.5861
     0.5895   0.5918   0.5963   0.5986   0.6002   0.6021   0.6077   0.6096
     0.6125   0.6137   0.6209   0.6252   0.6255   0.6321   0.6335   0.6393
     0.6455   0.6485   0.6489   0.6529   0.6592   0.6598   0.6759   0.6814
     0.6829   0.6898   0.6985   0.7090   0.7127   0.7378   0.7492   0.7534
     0.7535   0.7597   0.7634   0.7635   0.7729   0.7760   0.7777   0.7785
     0.7815   0.7848   0.7879   0.7923   0.7950   0.7990   0.8027   0.8047
     0.8054   0.8148   0.8234   0.8287   0.8333   0.8371   0.8406   0.8482
     0.8552   0.8578   0.8595   0.8701   0.8721   0.8776   0.8845   0.8888
     0.8890   0.8929   0.8945   0.9032   0.9138   0.9142   0.9167   0.9183
     0.9191   0.9208   0.9287   0.9368   0.9391   0.9423   0.9507   0.9581
     0.9642   0.9695   0.9778   0.9779   0.9875   0.9971   1.0042   1.0107
     1.0188   1.0226   1.0307   1.0330   1.0477   1.0556   1.0645   1.0897
     1.0913   1.0925   1.0964   1.0981   1.0996   1.1001   1.1052   1.1122
     1.1127   1.1169   1.1246   1.1248   1.1311   1.1327   1.1379   1.1426
     1.1519   1.1534   1.1639   1.1673   1.1702   1.1765   1.1799   1.1918
     1.1963   1.2041   1.2054   1.2139   1.2144   1.2255   1.2290   1.2473
     1.2666   1.2748   1.2784   1.2812   1.2829   1.2915   1.3063   1.3130
     1.3131   1.3179   1.3193   1.3222   1.3282   1.3358   1.3442   1.3448
     1.3514   1.3571   1.3658   1.3670   1.3747   1.3751   1.3782   1.3790
     1.3817   1.3823   1.3867   1.3877   1.3908   1.3927   1.3960   1.3978
     1.4050   1.4079   1.4242   1.4330   1.4364   1.4387   1.4406   1.4460
     1.4490   1.4508   1.4666   1.4710   1.4750   1.4759   1.4835   1.4873
     1.4929   1.4935   1.5012   1.5040   1.5042   1.5061   1.5103   1.5138
     1.5168   1.5229   1.5249   1.5288   1.5402   1.5464   1.5488   1.5542
     1.5597   1.5657   1.5676   1.5738   1.5752   1.5752   1.5772   1.5804
     1.5811   1.5834   1.5852   1.5869   1.5884   1.5895   1.5926   1.5964
     1.5978   1.5999   1.6020   1.6050   1.6074   1.6110   1.6117   1.6213
     1.6221   1.6235   1.6253   1.6446   1.6457   1.6498   1.6596   1.6678
     1.6713   1.6794   1.6798   1.6822   1.6842   1.6865   1.6880   1.6898
     1.6974   1.6976   1.7051   1.7064   1.7073   1.7134   1.7139   1.7233
     1.7235   1.7277   1.7327   1.7345   1.7394   1.7454   1.7513   1.7591
     1.7642   1.7683   1.7693   1.7712   1.7723   1.7738   1.7777   1.7880
     1.8008   1.8203   1.8239   1.8301   1.8534   1.8552   1.8618   1.8676
     1.8756   1.8990   1.9122   2.2922   2.3052   2.3229   2.3264   2.4925
     2.5054   2.5273   2.5326   2.5386   2.5460   2.5527   2.5641   2.8209
     2.8554   2.9083   2.9316   3.0143   3.0299   3.0335   3.0784   3.2675
     3.2927   3.4035   3.4499   3.4611   3.5041   3.5520   3.7500   3.7871
     4.0431   4.0503   4.0518   4.0834   4.1702   4.2228   4.2306   4.3128
     4.3276   4.3514   4.4201   4.4749   4.5082   4.5245   4.6275   4.8918
     4.9287   4.9876   5.0051   5.0439   5.0729   5.0931   5.1117   5.1344
     5.1485   5.2067   5.2724   5.2734   5.2949   5.3084   5.3167   5.3556
     5.3654   5.3730   5.4259   5.4493   5.5271   5.5671   5.5777   5.7448
     5.8306   5.8514   5.9020   5.9558   6.0180   6.1257   6.1286   6.2128
     6.2539   6.2891   6.2946   6.3200   6.3448   6.3971   6.4787   6.5117
     6.5419   6.6699   6.6919   6.7390   6.9103   7.0107   7.1850   7.3177
     7.3361   7.3630   7.3801   7.4700   7.5035   7.7871   7.8350   7.8445
     7.8491   7.8544   7.8878   7.9135   7.9400   8.0428   8.0445   8.0939
     8.1179   8.1302   8.1405   8.1671   8.2183   8.2720   8.3146   8.3481
     8.3644   8.4060   8.4275   8.5178   8.5222   8.5444   8.5460   8.5585
     8.5846   8.6361   8.6494   8.9513   9.0604   9.1161   9.1198   9.1230
     9.1504   9.1533   9.1566   9.2225   9.3076   9.3095   9.3448   9.3819
     9.3850   9.4134   9.4281   9.5085   9.5176   9.6268   9.7119   9.7374
     9.7823   9.7938   9.8239   9.8622   9.8957

          k =-0.5000-0.2165 0.0000 (256328 PWs)   bands (ev):

   -15.5496 -15.5257 -15.4983 -15.2762 -14.8135 -14.7547 -14.7388 -14.2513
   -13.3618 -13.3260 -13.2136 -12.8167 -11.7287 -11.7269 -11.5848 -11.5561
   -11.3065 -11.2767 -11.1684 -11.1268 -11.0909 -11.0267 -10.9270  -9.9266
    -9.3930  -9.3349  -9.0329  -8.8201  -8.4624  -8.4192  -8.2232  -7.9011
    -7.6372  -7.4916  -7.4026  -6.4216  -5.6496  -5.6033  -5.4370  -5.1459
    -4.9656  -4.9421  -4.9259  -4.9126  -4.8808  -4.8799  -4.7952  -4.7563
    -4.7415  -4.5146  -4.4737  -4.2476  -4.1537  -4.0716  -4.0543  -4.0033
    -3.9303  -3.9234  -3.9212  -3.9021  -3.8947  -3.8089  -3.6521  -3.6446
    -3.6210  -3.5963  -3.5876  -3.4967  -3.4373  -3.3627  -3.3338  -3.3222
    -3.2966  -3.2383  -3.2149  -3.1783  -3.0649  -2.8524  -2.8109  -2.7790
    -2.6918  -2.6796  -2.5922  -2.3069  -2.3057  -2.2996  -2.2956  -2.2567
    -2.2529  -2.2318  -2.2205  -2.1310  -2.1060  -2.0683  -1.9373  -1.9008
    -1.8602  -1.8214  -1.7901  -1.7829  -1.7640  -1.7437  -1.7311  -1.7051
    -1.6750  -1.6238  -1.5592  -1.5357  -1.5322  -1.5097  -1.4997  -1.4296
    -1.4145  -1.3622  -1.3516  -1.2540  -1.2329  -1.2279  -1.2249  -1.2191
    -1.2155  -1.2139  -1.2058  -1.1841  -1.1803  -1.1796  -1.1682  -1.1666
    -1.1452  -1.1359  -1.1265  -1.1245  -1.1155  -1.1108  -1.1058  -1.1035
    -1.1009  -1.0938  -1.0885  -1.0866  -1.0731  -1.0656  -1.0599  -1.0463
    -1.0361  -1.0300  -1.0128  -0.9775  -0.9739  -0.9562  -0.9367  -0.9325
    -0.9265  -0.9243  -0.9139  -0.9107  -0.9074  -0.8895  -0.8861  -0.8808
    -0.8616  -0.8597  -0.8566  -0.8541  -0.8523  -0.8508  -0.8443  -0.8141
    -0.8134  -0.8029  -0.7973  -0.7938  -0.7929  -0.7874  -0.7803  -0.7752
    -0.7743  -0.7674  -0.7647  -0.7562  -0.7538  -0.7514  -0.7502  -0.7108
    -0.7096  -0.6617  -0.6394  -0.6246  -0.6052  -0.5974  -0.5877  -0.5817
    -0.5787  -0.5723  -0.5712  -0.5410  -0.5269  -0.5153  -0.5089  -0.5026
    -0.4936  -0.4883  -0.4821  -0.4815  -0.4806  -0.4684  -0.4446  -0.4346
    -0.4313  -0.4289  -0.4251  -0.4241  -0.4224  -0.4197  -0.4146  -0.4128
    -0.4047  -0.3902  -0.3801  -0.3406  -0.3360  -0.3098  -0.3073  -0.3058
    -0.3005  -0.2906  -0.2727  -0.2476  -0.2422  -0.2287  -0.2280  -0.2069
    -0.2065  -0.1924  -0.1830  -0.1781  -0.1726  -0.1672  -0.1603  -0.1565
    -0.1509  -0.1381  -0.1351  -0.1339  -0.1312  -0.1188  -0.1116  -0.1114
    -0.0917  -0.0848  -0.0751  -0.0651  -0.0446  -0.0264  -0.0146  -0.0136
     0.0030   0.0065   0.0068   0.0163   0.0178   0.0230   0.0255   0.0286
     0.0317   0.0533   0.0865   0.0923   0.1004   0.1082   0.1105   0.1108
     0.1137   0.1181   0.1218   0.1257   0.1275   0.1319   0.1468   0.1489
     0.1511   0.1557   0.1594   0.1639   0.1650   0.1719   0.1766   0.1791
     0.1882   0.1929   0.2026   0.2298   0.2320   0.2438   0.2566   0.2672
     0.2736   0.2832   0.2880   0.2960   0.3150   0.3158   0.3273   0.3292
     0.3357   0.3363   0.3372   0.3402   0.3459   0.3521   0.3526   0.3575
     0.3598   0.3606   0.3620   0.3655   0.3659   0.3681   0.3702   0.3751
     0.3791   0.3815   0.3869   0.3887   0.3927   0.3947   0.4023   0.4023
     0.4084   0.4089   0.4152   0.4174   0.4216   0.4339   0.4465   0.4526
     0.4631   0.4666   0.4790   0.4806   0.4857   0.4858   0.5096   0.5228
     0.5295   0.5459   0.5540   0.5640   0.5725   0.5732   0.5836   0.5845
     0.5868   0.5944   0.5991   0.6046   0.6050   0.6068   0.6089   0.6096
     0.6115   0.6152   0.6198   0.6254   0.6328   0.6353   0.6360   0.6387
     0.6443   0.6473   0.6496   0.6518   0.6702   0.6743   0.6866   0.6955
     0.6978   0.6986   0.7057   0.7143   0.7162   0.7172   0.7236   0.7241
     0.7321   0.7373   0.7404   0.7450   0.7483   0.7592   0.7619   0.7691
     0.7778   0.7783   0.7845   0.7956   0.8006   0.8019   0.8088   0.8119
     0.8150   0.8179   0.8274   0.8297   0.8315   0.8325   0.8363   0.8391
     0.8418   0.8421   0.8425   0.8490   0.8529   0.8617   0.8620   0.8664
     0.8808   0.8857   0.8903   0.8974   0.9171   0.9265   0.9297   0.9355
     0.9378   0.9394   0.9445   0.9527   0.9578   0.9607   0.9687   0.9688
     0.9706   0.9712   0.9771   0.9844   0.9844   0.9889   0.9905   0.9918
[...]
     atom   19 type  1   force =     0.00000000    0.00047441    0.00082880
     atom   20 type  1   force =    -0.00008302    0.00017501    0.00080134
     atom   21 type  1   force =     0.00000000    0.00019200    0.00044124
     atom   22 type  1   force =     0.00004053   -0.00036643    0.00004312
     atom   23 type  1   force =     0.00000000   -0.00050778   -0.00018147
     atom   24 type  1   force =    -0.00004053   -0.00036643    0.00004312
     atom   25 type  1   force =     0.00000000   -0.00020679    0.00006761
     atom   26 type  1   force =    -0.00015956    0.00002750    0.00066316
     atom   27 type  1   force =     0.00000000    0.00014543    0.00080301
     atom   28 type  1   force =     0.00015956    0.00002750    0.00066316
     atom   29 type  1   force =     0.00000000    0.00031339   -0.00019130
     atom   30 type  1   force =     0.00001091    0.00011284    0.00022520
     atom   31 type  1   force =     0.00000000    0.00043755   -0.00048082
     atom   32 type  1   force =    -0.00001091    0.00011284    0.00022520
     atom   33 type  1   force =     0.00000000    0.00069322   -0.00008855
     atom   34 type  1   force =     0.00003812    0.00046723   -0.00032122
     atom   35 type  1   force =     0.00000000    0.00088022    0.00003183
     atom   36 type  1   force =    -0.00003812    0.00046723   -0.00032122
     atom   37 type  1   force =     0.00000000    0.00027705    0.00008186
     atom   38 type  1   force =     0.00006069    0.00089778    0.00021030
     atom   39 type  1   force =     0.00000000    0.00026681    0.00037978
     atom   40 type  1   force =    -0.00006069    0.00089778    0.00021030
     atom   41 type  1   force =     0.00000000   -0.00056511    0.00004852
     atom   42 type  1   force =    -0.00008544   -0.00070668   -0.00055715
     atom   43 type  1   force =     0.00000000   -0.00048314    0.00014349
     atom   44 type  1   force =     0.00008544   -0.00070668   -0.00055715
     atom   45 type  1   force =     0.00000000    0.00048509    0.00073858
     atom   46 type  1   force =     0.00003539    0.00087441    0.00022498
     atom   47 type  1   force =     0.00000000    0.00036623    0.00012628
     atom   48 type  1   force =    -0.00003539    0.00087441    0.00022498
     atom   49 type  1   force =     0.00000000    0.00043528    0.00054792
     atom   50 type  1   force =    -0.00042373    0.00012347    0.00023125
     atom   51 type  1   force =     0.00000000    0.00077508    0.00058228
     atom   52 type  1   force =     0.00042373    0.00012347    0.00023125
     atom   53 type  1   force =     0.00000000    0.00046771   -0.00097804
     atom   54 type  1   force =     0.00023776    0.00046146   -0.00047494
     atom   55 type  1   force =     0.00000000    0.00008844    0.00039846
     atom   56 type  1   force =    -0.00023776    0.00046146   -0.00047494
     atom   57 type  1   force =     0.00000000    0.00097775   -0.00002522
     atom   58 type  1   force =    -0.00001045    0.00030889    0.00040642
     atom   59 type  1   force =     0.00000000    0.00066980    0.00013485
     atom   60 type  1   force =     0.00001045    0.00030889    0.00040642
     atom   61 type  1   force =     0.00000000   -0.00023556   -0.00031773
     atom   62 type  1   force =     0.00016891   -0.00011943    0.00077919
     atom   63 type  1   force =     0.00000000   -0.00084960   -0.00006914
     atom   64 type  1   force =    -0.00016891   -0.00011943    0.00077919
     atom   65 type  1   force =     0.00000000   -0.00025232    0.00088542
     atom   66 type  1   force =    -0.00000180   -0.00045503   -0.00177871
     atom   67 type  1   force =     0.00000000   -0.00094159   -0.00008922
     atom   68 type  1   force =     0.00000180   -0.00045503   -0.00177871
     atom   69 type  1   force =     0.00000000    0.00182446    0.00085199
     atom   70 type  1   force =    -0.00129879   -0.00078402   -0.00067608
     atom   71 type  1   force =     0.00000000    0.00075452   -0.00132476
     atom   72 type  1   force =     0.00129879   -0.00078402   -0.00067608
     atom   73 type  1   force =     0.00000000    0.00019185   -0.00081658
     atom   74 type  1   force =    -0.00013332    0.00002376    0.00063408
     atom   75 type  1   force =     0.00000000   -0.00007795   -0.00002598
     atom   76 type  1   force =     0.00013332    0.00002376    0.00063408
     atom   77 type  1   force =     0.00000000    0.00054957    0.00076315
     atom   78 type  1   force =    -0.00004317    0.00044988   -0.00029483
     atom   79 type  1   force =     0.00000000   -0.00005870    0.00074658
     atom   80 type  1   force =     0.00004317    0.00044988   -0.00029483
     atom   81 type  1   force =     0.00000000    0.00066914    0.00065873
     atom   82 type  1   force =     0.00035723    0.00073032   -0.00008491
     atom   83 type  1   force =     0.00000000   -0.00049695    0.00083816
     atom   84 type  1   force =    -0.00035723    0.00073032   -0.00008491
     atom   85 type  1   force =     0.00000000   -0.00224759   -0.00133401
     atom   86 type  1   force =    -0.00005316   -0.00038042    0.00083074
     atom   87 type  1   force =     0.00000000   -0.00080642   -0.00184489
     atom   88 type  1   force =     0.00005316   -0.00038042    0.00083074
     atom   89 type  1   force =     0.00000000    0.00218427    0.00068580
     atom   90 type  1   force =     0.00147977   -0.00083762   -0.00032091
     atom   91 type  1   force =     0.00000000    0.00381724   -0.00932177
     atom   92 type  1   force =    -0.00147977   -0.00083762   -0.00032091
     atom   93 type  1   force =     0.00000000   -0.00058043   -0.00085125
     atom   94 type  1   force =     0.00056827    0.00087095   -0.00027640
     atom   95 type  1   force =     0.00000000    0.00124188    0.00047223
     atom   96 type  1   force =    -0.00056827    0.00087095   -0.00027640
     atom   97 type  1   force =     0.00000000    0.00042086    0.00004622
     atom   98 type  1   force =    -0.00010570   -0.00026770    0.00084327
     atom   99 type  1   force =     0.00000000    0.00003811    0.00044931
     atom  100 type  1   force =     0.00010570   -0.00026770    0.00084327
     atom  101 type  2   force =     0.00000000    0.00143893    0.00224230
     atom  102 type  2   force =     0.00000000    0.00024943    0.00244671
     atom  103 type  2   force =     0.00067814    0.00150204    0.00126946
     atom  104 type  2   force =     0.00000771   -0.00196011   -0.00150435
     atom  105 type  2   force =     0.00088948    0.00097079    0.00126391
     atom  106 type  2   force =     0.00083136   -0.00101579   -0.00026645
     atom  107 type  2   force =     0.00000000   -0.00001713    0.00208426
     atom  108 type  2   force =     0.00000000    0.00073084   -0.00032551
     atom  109 type  2   force =    -0.00088948    0.00097079    0.00126391
     atom  110 type  2   force =    -0.00083136   -0.00101579   -0.00026645
     atom  111 type  2   force =    -0.00067814    0.00150204    0.00126946
     atom  112 type  2   force =    -0.00000771   -0.00196011   -0.00150435
     atom  113 type  2   force =     0.00000000   -0.00360453   -0.00040658
     atom  114 type  2   force =     0.00000000    0.00141399   -0.00018386
     atom  115 type  2   force =    -0.00124371   -0.00295057   -0.00113513
     atom  116 type  2   force =    -0.00032318   -0.00227132    0.00243326
     atom  117 type  2   force =    -0.00023870   -0.00645419    0.00040229
     atom  118 type  2   force =     0.00072983   -0.00300399    0.00416443
     atom  119 type  2   force =     0.00000000   -0.00349169   -0.00586183
     atom  120 type  2   force =     0.00023870   -0.00645419    0.00040229
     atom  121 type  2   force =    -0.00072983   -0.00300399    0.00416443
     atom  122 type  2   force =     0.00124371   -0.00295057   -0.00113513
     atom  123 type  2   force =     0.00032318   -0.00227132    0.00243326
     atom  124 type  2   force =     0.00000000   -0.00270973   -0.00158497
     atom  125 type  2   force =     0.00000000    0.00164227   -0.00127495
     atom  126 type  2   force =     0.00046973    0.00333228   -0.00396803
     atom  127 type  2   force =    -0.00072795   -0.00001387   -0.00115763
     atom  128 type  2   force =    -0.00069842    0.00224571   -0.00101301
     atom  129 type  2   force =     0.00043532    0.00148104   -0.00060617
     atom  130 type  2   force =     0.00000000    0.00631952   -0.00103949
     atom  131 type  2   force =     0.00000000    0.00207527    0.00136702
     atom  132 type  2   force =     0.00069842    0.00224571   -0.00101301
     atom  133 type  2   force =    -0.00043532    0.00148104   -0.00060617
     atom  134 type  2   force =    -0.00046973    0.00333228   -0.00396803
     atom  135 type  2   force =     0.00072795   -0.00001387   -0.00115763
     atom  136 type  2   force =     0.00000000   -0.00179553   -0.00103115
     atom  137 type  2   force =     0.00000000    0.00107699   -0.00095521
     atom  138 type  2   force =     0.00006885   -0.00179381    0.00169177
     atom  139 type  2   force =     0.00092478    0.00115142    0.00102086
     atom  140 type  2   force =    -0.00069571   -0.00006098    0.00099491
     atom  141 type  2   force =    -0.00129848   -0.00064644   -0.00110177
     atom  142 type  2   force =     0.00000000   -0.00249304    0.00233131
     atom  143 type  2   force =     0.00000000   -0.00070601   -0.00075124
     atom  144 type  2   force =     0.00069571   -0.00006098    0.00099491
     atom  145 type  2   force =     0.00129848   -0.00064644   -0.00110177
     atom  146 type  2   force =    -0.00006885   -0.00179381    0.00169177
     atom  147 type  2   force =    -0.00092478    0.00115142    0.00102086

     Total force =     0.025820     Total SCF correction =     0.000176

     number of scf cycles    =  13
     number of bfgs steps    =  12

     energy   old            =  -12687.1363928234 Ry
     energy   new            =  -12687.1374004017 Ry

     CASE: energy  _new < energy  _old

     new trust radius        =       0.0374446185 bohr
     new conv_thr            =       0.0000000100 Ry


ATOMIC_POSITIONS (angstrom)
Cu       0.000000000   0.036243859   7.419845710
Cu       1.844025305   1.722641547   7.402960840
Cu       3.689036991   0.041049987   7.424782890
Cu       5.534048678   1.722641547   7.402960840
Cu       0.000000000   3.411757122   7.385864241
Cu       1.843861692   5.107248928   7.377134126
Cu       3.689036991   3.408094463   7.381486730
Cu       5.534212291   5.107248928   7.377134126
Cu       0.000000000   6.810518471   7.382334349
Cu       1.845038517   8.513763883   7.383623662
Cu       3.689036991   6.809593917   7.379895337
Cu       5.533035466   8.513763883   7.383623662
Cu       0.000000000  10.217229687   7.387264363
Cu       1.843496851  11.930439359   7.396387780
Cu       3.689036991  10.219934592   7.387653178
Cu       5.534577132  11.930439359   7.396387780
Cu       0.000000000  13.657424242   7.407901064
Cu       1.844779928  15.377867325   7.421123410
Cu       3.689036991  13.653217968   7.407592206
Cu       5.533294055  15.377867325   7.421123410
Cu       0.000000000   1.742570427   9.253072603
Cu       1.845747633   0.055327249   9.267992605
Cu       3.689036991   1.750713782   9.263135910
Cu       5.532326350   0.055327249   9.267992605
Cu       0.000000000   5.112552983   9.219315152
Cu       1.845428233   3.426261403   9.232834951
Cu       3.689036991   5.108557038   9.216937390
Cu       5.532645750   3.426261403   9.232834951
Cu       0.000000000   8.513902513   9.210176112
Cu       1.846647361   6.806257324   9.211287948
Cu       3.689036991   8.511247662   9.211984368
Cu       5.531426622   6.806257324   9.211287948
Cu       0.000000000  11.927156682   9.213285022
Cu       1.846773300  10.217324194   9.217306822
Cu       3.689036991  11.926190117   9.220817755
Cu       5.531300683  10.217324194   9.217306822
Cu       0.000000000  15.376697364   9.245708056
Cu       1.844874344  13.648444689   9.220826437
Cu       3.689036991  15.373863503   9.240626258
Cu       5.533199639  13.648444689   9.220826437
Cu       0.000000000   0.062525617  11.102500587
Cu       1.848915749   1.779327202  11.134774168
Cu       3.689036991   0.053490117  11.097455465
Cu       5.529158234   1.779327202  11.134774168
Cu       0.000000000   3.440571280  11.097230811
Cu       1.845270439   5.120583033  11.081752176
Cu       3.689036991   3.459312259  11.118136174
Cu       5.532803544   5.120583033  11.081752176
Cu       0.000000000   6.821219428  11.038516004
Cu       1.852456562   8.512831869  11.049766899
Cu       3.689036991   6.813314569  11.056496891
Cu       5.525617421   8.512831869  11.049766899
Cu       0.000000000  10.222485233  11.049218319
Cu       1.846800368  11.936269493  11.044021462
Cu       3.689036991  10.205240083  11.064234192
Cu       5.531273615  11.936269493  11.044021462
Cu       0.000000000  13.644933832  11.043230560
Cu       1.842992533  15.366569666  11.067274778
Cu       3.689036991  13.654286259  11.049552045
Cu       5.535081450  15.366569666  11.067274778
Cu       0.000000000   1.787972451  12.965265782
Cu       1.840610481   0.034640451  12.919124947
Cu       3.689036991   1.761915961  12.961089017
Cu       5.537463502   0.034640451  12.919124947
Cu       0.000000000   5.153247117  12.891885089
Cu       1.868139333   3.512800774  13.031488077
Cu       3.689036991   5.203611353  12.982804496
Cu       5.509934650   3.512800774  13.031488077
Cu       0.000000000   8.529445493  12.876050152
Cu       1.860978148   6.838921711  12.901442521
Cu       3.689036991   8.454942753  12.971464626
Cu       5.517095835   6.838921711  12.901442521
Cu       0.000000000  11.953510967  12.867839126
Cu       1.852213255  10.233958555  12.862162329
Cu       3.689036991  11.951875076  12.866988354
Cu       5.525860728  10.233958555  12.862162329
Cu       0.000000000  15.342667541  12.887874044
Cu       1.846550383  13.649520472  12.884868283
Cu       3.689036991  15.362975036  12.901738054
Cu       5.531523600  13.649520472  12.884868283
Cu       0.000000000  -0.028159328  14.717356122
Cu       1.781800173   1.720185643  14.755400209
Cu       3.689036991   0.039465133  14.736211613
Cu       5.596273810   1.720185643  14.755400209
Cu       0.000000000   3.584729882  14.756044730
Cu       2.021547672   5.304552971  14.836659656
Cu       3.689036991   3.370739055  14.834140397
Cu       5.356526311   5.304552971  14.836659656
Cu       0.000000000   6.806001759  14.644354009
Cu       1.806835864   8.574453099  14.679368090
Cu       3.689036991   7.104670377  15.665780822
Cu       5.571238119   8.574453099  14.679368090
Cu       0.000000000  10.290087140  14.670367102
Cu       1.843359438  11.948149466  14.692908888
Cu       3.689036991  10.258399456  14.645201465
Cu       5.534714545  11.948149466  14.692908888
Cu       0.000000000  13.646531362  14.719457214
Cu       1.860351641  15.341187521  14.713167581
Cu       3.689036991  13.631884583  14.705651054
Cu       5.517722342  15.341187521  14.713167581
C        0.000000000   0.662155988  17.706944149
C        0.000000000   2.083243215  17.736210060
C        1.226646992  -0.054162769  17.688623360
C        1.231111475   2.791826331  17.684307525
C        2.456728471   0.653883232  17.659289315
C        2.456984810   2.074027748  17.621062561
C        3.689036991  -0.057211936  17.641350874
C        3.689036991   2.784805639  17.514660735
C        4.921345511   0.653883232  17.659289315
C        4.921089172   2.074027748  17.621062561
C        6.151426991  -0.054162769  17.688623360
C        6.146962508   2.791826331  17.684307525
C        0.000000000   4.912795246  17.545336366
C        0.000000000   6.329095233  17.412420530
C        1.229889151   4.204554417  17.565037106
C        1.213344667   7.031096913  17.173300049
C        2.431698912   4.892773208  17.192438022
C        2.319318632   6.239497605  16.745507922
C        3.689036991   4.186764045  17.251763791
C        4.946375070   4.892773208  17.192438022
C        5.058755350   6.239497605  16.745507922
C        6.148184832   4.204554417  17.565037106
C        6.164729316   7.031096913  17.173300049
C        0.000000000   9.170394304  17.412911669
C        0.000000000  10.587514028  17.574218628
C        1.225493484   8.464145561  17.245006575
C        1.230719953  11.297051109  17.642483024
C        2.463308134   9.187613075  17.284085725
C        2.457764296  10.588313822  17.572199439
C        3.689036991   8.579871419  16.956116129
C        3.689036991  11.295716524  17.628470576
C        4.914765848   9.187613075  17.284085725
C        4.920309686  10.588313822  17.572199439
C        6.152580499   8.464145561  17.245006575
C        6.147354030  11.297051109  17.642483024
C        0.000000000  13.427612597  17.692450341
C        0.000000000  14.848798629  17.695140461
C        1.231581099  12.718333693  17.690575168
C        1.227147699  15.562664515  17.683988482
C        2.459974165  13.430037346  17.692953837
C        2.458650676  14.851816413  17.685422497
C        3.689036991  12.716691098  17.686026795
C        3.689036991  15.561588338  17.676389756
C        4.918099817  13.430037346  17.692953837
C        4.919423306  14.851816413  17.685422497
C        6.146492884  12.718333693  17.690575168
C        6.150926284  15.562664515  17.683988482



     Writing output data file gc.save
     Check: negative starting charge=   -0.001845
     NEW-OLD atomic charge density approx. for the potential
     Check: negative starting charge=   -0.001842

     negative rho (up, down):  1.933E-03 0.000E+00

     total cpu time spent up to now is    50895.2 secs

     Self-consistent Calculation

     iteration #  1     ecut=    80.00 Ry     beta=0.70
     Davidson diagonalization with overlap
     ethr =  1.00E-06,  avg # of iterations =  6.8

     negative rho (up, down):  1.428E-03 0.000E+00

     total cpu time spent up to now is    51459.4 secs

     total energy              =  -12687.13716057 Ry
     Harris-Foulkes estimate   =  -12687.14417421 Ry
     estimated scf accuracy    <       0.05749142 Ry

     iteration #  2     ecut=    80.00 Ry     beta=0.70
     Davidson diagonalization with overlap
     ethr =  4.46E-06,  avg # of iterations =  2.8

     negative rho (up, down):  1.271E-03 0.000E+00

     total cpu time spent up to now is    51658.7 secs

     total energy              =  -12687.13743695 Ry
     Harris-Foulkes estimate   =  -12687.14020910 Ry
     estimated scf accuracy    <       0.01282277 Ry

     iteration #  3     ecut=    80.00 Ry     beta=0.70
     Davidson diagonalization with overlap
     ethr =  9.96E-07,  avg # of iterations =  3.5

     negative rho (up, down):  1.090E-03 0.000E+00

     total cpu time spent up to now is    51862.3 secs

     total energy              =  -12687.13773389 Ry
     Harris-Foulkes estimate   =  -12687.13922980 Ry
     estimated scf accuracy    <       0.01349514 Ry

     iteration #  4     ecut=    80.00 Ry     beta=0.70
     Davidson diagonalization with overlap
     ethr =  9.96E-07,  avg # of iterations =  5.2

     negative rho (up, down):  1.048E-03 0.000E+00

     total cpu time spent up to now is    52090.0 secs

     total energy              =  -12687.13839222 Ry
     Harris-Foulkes estimate   =  -12687.13843873 Ry
     estimated scf accuracy    <       0.00071017 Ry

     iteration #  5     ecut=    80.00 Ry     beta=0.70
     Davidson diagonalization with overlap
     ethr =  5.51E-08,  avg # of iterations =  4.7

     negative rho (up, down):  1.034E-03 0.000E+00

     total cpu time spent up to now is    52324.8 secs

     total energy              =  -12687.13839285 Ry
     Harris-Foulkes estimate   =  -12687.13843276 Ry
     estimated scf accuracy    <       0.00052620 Ry

     iteration #  6     ecut=    80.00 Ry     beta=0.70
     Davidson diagonalization with overlap
