
     Program PWSCF v.5.4.0 starts on 14Mar2017 at  9:50:49 

     This program is part of the open-source Quantum ESPRESSO suite
     for quantum simulation of materials; please cite
         "P. Giannozzi et al., J. Phys.:Condens. Matter 21 395502 (2009);
          URL http://www.quantum-espresso.org", 
     in publications or presentations arising from this work. More details at
     http://www.quantum-espresso.org/quote

     Parallel version (MPI & OpenMP), running on      56 processor cores
     Number of MPI processes:                56
     Threads/MPI process:                     1
     R & G space division:  proc/nbgrp/npool/nimage =      56
     Waiting for input...
     Reading input from standard input

     Current dimensions of program PWSCF are:
     Max number of different atomic species (ntypx) = 10
     Max number of k-points (npk) =  40000
     Max angular momentum in pseudopotentials (lmaxx) =  3

     -------------------------------------
     Parameters for Dispersion Correction:
     -------------------------------------
       atom      VdW radius       C_6     

        Cu         2.952        374.666
        C          2.744         60.710

     Subspace diagonalization in iterative solution of the eigenvalue problem:
     one sub-group per band group will be used
     scalapack distributed-memory algorithm (size of sub-group:  5*  5 procs)

 
     Parallelization info
     --------------------
     sticks:   dense  smooth     PW     G-vecs:    dense   smooth      PW
     Min         204     204     54                36612    36612    4962
     Max         205     205     55                36617    36617    4968
     Sum       11433   11433   3039              2050409  2050409  278033
 


     bravais-lattice index     =            0
     lattice parameter (alat)  =      13.9425  a.u.
     unit-cell volume          =   21209.0878 (a.u.)^3
     number of atoms/cell      =          147
     number of atomic types    =            2
     number of electrons       =      1288.00
     number of Kohn-Sham states=          773
     kinetic-energy cutoff     =      80.0000  Ry
     charge density cutoff     =     320.0000  Ry
     convergence threshold     =      1.0E-08
     mixing beta               =       0.7000
     number of iterations used =            8  local-TF  mixing
     Exchange-correlation      =  SLA  PW   PBX  PBC ( 1  4  3  4 0 0)
     nstep                     =           50


     celldm(1)=  13.942539  celldm(2)=   0.000000  celldm(3)=   0.000000
     celldm(4)=   0.000000  celldm(5)=   0.000000  celldm(6)=   0.000000

     crystal axes: (cart. coord. in units of alat)
               a(1) = (   1.000000   0.000000   0.000000 )  
               a(2) = (   0.000000   2.309401   0.000000 )  
               a(3) = (   0.000000   0.000000   3.388418 )  

     reciprocal axes: (cart. coord. in units 2 pi/alat)
               b(1) = (  1.000000  0.000000  0.000000 )  
               b(2) = (  0.000000  0.433013  0.000000 )  
               b(3) = (  0.000000  0.000000  0.295123 )  


     PseudoPot. # 1 for Cu read from file:
     /home/549/hxw549/Short/pseudopotentials/Cu.pbe-n-van_ak.UPF
     MD5 check sum: 601f7c30f7467666bec936e0661ce3e1
     Pseudo is Ultrasoft + core correction, Zval = 11.0
     Generated by new atomic code, or converted to UPF format
     Using radial grid of  867 points,  6 beta functions with: 
                l(1) =   0
                l(2) =   0
                l(3) =   1
                l(4) =   1
                l(5) =   2
                l(6) =   2
     Q(r) pseudized with  8 coefficients,  rinner =    1.400   1.400   1.400
                                                       1.400   1.400

     PseudoPot. # 2 for C  read from file:
     /home/549/hxw549/Short/pseudopotentials/C.pbe-mt_gipaw.UPF
     MD5 check sum: 5ac2f21f2c440b14befe521540822c15
     Pseudo is Norm-conserving, Zval =  4.0
     Generated by new atomic code, or converted to UPF format
     Using radial grid of 1073 points,  1 beta functions with: 
                l(1) =   0

     atomic species   valence    mass     pseudopotential
        Cu            11.00    63.54600     Cu( 1.00)
        C              4.00    12.01070     C ( 1.00)

      2 Sym. Ops. (no inversion) found



   Cartesian axes

     site n.     atom                  positions (alat units)
         1           Cu  tau(   1) = (   0.0000000   0.0013898   1.0008484  )
         2           Cu  tau(   2) = (   0.2499347   0.2328267   1.0008930  )
         3           Cu  tau(   3) = (   0.5000000   0.0019889   1.0009947  )
         4           Cu  tau(   4) = (   0.7500653   0.2328267   1.0008930  )
         5           Cu  tau(   5) = (   0.0000000   0.4629586   1.0000229  )
         6           Cu  tau(   6) = (   0.2501160   0.6932546   0.9990809  )
         7           Cu  tau(   7) = (   0.5000000   0.4632588   1.0002592  )
         8           Cu  tau(   8) = (   0.7498840   0.6932546   0.9990809  )
         9           Cu  tau(   9) = (   0.0000000   0.9238146   0.9989408  )
        10           Cu  tau(  10) = (   0.2501062   1.1544044   0.9989922  )
        11           Cu  tau(  11) = (   0.5000000   0.9237501   0.9983650  )
        12           Cu  tau(  12) = (   0.7498938   1.1544044   0.9989922  )
        13           Cu  tau(  13) = (   0.0000000   1.3846896   0.9998539  )
        14           Cu  tau(  14) = (   0.2499524   1.6148727   1.0006747  )
        15           Cu  tau(  15) = (   0.5000000   1.3845564   1.0000438  )
        16           Cu  tau(  16) = (   0.7500476   1.6148727   1.0006747  )
        17           Cu  tau(  17) = (   0.0000000   1.8466131   1.0004338  )
        18           Cu  tau(  18) = (   0.2501992   2.0787364   1.0007067  )
        19           Cu  tau(  19) = (   0.5000000   1.8457624   1.0008126  )
        20           Cu  tau(  20) = (   0.7498008   2.0787364   1.0007067  )
        21           Cu  tau(  21) = (   0.0000000   0.2338105   1.2499089  )
        22           Cu  tau(  22) = (   0.2499385   0.0023322   1.2491364  )
        23           Cu  tau(  23) = (   0.5000000   0.2339380   1.2501452  )
        24           Cu  tau(  24) = (   0.7500615   0.0023322   1.2491364  )
        25           Cu  tau(  25) = (   0.0000000   0.6940277   1.2476497  )
        26           Cu  tau(  26) = (   0.2502066   0.4641606   1.2491985  )
        27           Cu  tau(  27) = (   0.5000000   0.6944536   1.2488228  )
        28           Cu  tau(  28) = (   0.7497934   0.4641606   1.2491985  )
        29           Cu  tau(  29) = (   0.0000000   1.1533560   1.2475890  )
        30           Cu  tau(  30) = (   0.2503935   0.9237606   1.2477362  )
        31           Cu  tau(  31) = (   0.5000000   1.1529367   1.2485434  )
        32           Cu  tau(  32) = (   0.7496065   0.9237606   1.2477362  )
        33           Cu  tau(  33) = (   0.0000000   1.6147436   1.2482100  )
        34           Cu  tau(  34) = (   0.2503529   1.3833636   1.2488156  )
        35           Cu  tau(  35) = (   0.5000000   1.6142141   1.2493613  )
        36           Cu  tau(  36) = (   0.7496471   1.3833636   1.2488156  )
        37           Cu  tau(  37) = (   0.0000000   2.0789699   1.2479793  )
        38           Cu  tau(  38) = (   0.2500897   1.8463840   1.2479657  )
        39           Cu  tau(  39) = (   0.5000000   2.0788054   1.2472577  )
        40           Cu  tau(  40) = (   0.7499103   1.8463840   1.2479657  )
        41           Cu  tau(  41) = (   0.0000000   0.0028224   1.4979242  )
        42           Cu  tau(  42) = (   0.2502669   0.2362622   1.5013623  )
        43           Cu  tau(  43) = (   0.5000000   0.0011875   1.4969693  )
        44           Cu  tau(  44) = (   0.7497331   0.2362622   1.5013623  )
        45           Cu  tau(  45) = (   0.0000000   0.4661653   1.5009762  )
        46           Cu  tau(  46) = (   0.2499867   0.6939580   1.4995282  )
        47           Cu  tau(  47) = (   0.5000000   0.4671264   1.5025476  )
        48           Cu  tau(  48) = (   0.7500133   0.6939580   1.4995282  )
        49           Cu  tau(  49) = (   0.0000000   0.9230621   1.4982710  )
        50           Cu  tau(  50) = (   0.2500290   1.1525282   1.4994307  )
        51           Cu  tau(  51) = (   0.5000000   0.9229324   1.4991254  )
        52           Cu  tau(  52) = (   0.7499710   1.1525282   1.4994307  )
        53           Cu  tau(  53) = (   0.0000000   1.3838115   1.4971330  )
        54           Cu  tau(  54) = (   0.2504929   1.6153325   1.4967922  )
        55           Cu  tau(  55) = (   0.5000000   1.3814519   1.5000674  )
        56           Cu  tau(  56) = (   0.7495071   1.6153325   1.4967922  )
        57           Cu  tau(  57) = (   0.0000000   1.8467760   1.4960790  )
        58           Cu  tau(  58) = (   0.2495600   2.0789320   1.4961664  )
        59           Cu  tau(  59) = (   0.5000000   1.8479224   1.4965127  )
        60           Cu  tau(  60) = (   0.7504400   2.0789320   1.4961664  )
        61           Cu  tau(  61) = (   0.0000000   0.2376266   1.7483645  )
        62           Cu  tau(  62) = (   0.2496235   0.0009067   1.7454562  )
        63           Cu  tau(  63) = (   0.5000000   0.2333389   1.7466557  )
        64           Cu  tau(  64) = (   0.7503765   0.0009067   1.7454562  )
        65           Cu  tau(  65) = (   0.0000000   0.6963220   1.7531721  )
        66           Cu  tau(  66) = (   0.2526702   0.4739177   1.7591394  )
        67           Cu  tau(  67) = (   0.5000000   0.7043803   1.7624446  )
        68           Cu  tau(  68) = (   0.7473298   0.4739177   1.7591394  )
        69           Cu  tau(  69) = (   0.0000000   1.1536394   1.7473914  )
        70           Cu  tau(  70) = (   0.2511400   0.9213810   1.7510753  )
        71           Cu  tau(  71) = (   0.5000000   1.1432581   1.7575682  )
        72           Cu  tau(  72) = (   0.7488600   0.9213810   1.7510753  )
        73           Cu  tau(  73) = (   0.0000000   1.6164900   1.7445581  )
        74           Cu  tau(  74) = (   0.2517212   1.3850083   1.7457316  )
        75           Cu  tau(  75) = (   0.5000000   1.6171777   1.7448070  )
        76           Cu  tau(  76) = (   0.7482788   1.3850083   1.7457316  )
        77           Cu  tau(  77) = (   0.0000000   2.0783938   1.7451070  )
        78           Cu  tau(  78) = (   0.2497020   1.8479106   1.7448069  )
        79           Cu  tau(  79) = (   0.5000000   2.0792243   1.7460571  )
        80           Cu  tau(  80) = (   0.7502980   1.8479106   1.7448069  )
        81           Cu  tau(  81) = (   0.0000000  -0.0002710   1.9903846  )
        82           Cu  tau(  82) = (   0.2456873   0.2310728   1.9923953  )
        83           Cu  tau(  83) = (   0.5000000   0.0022691   1.9926299  )
        84           Cu  tau(  84) = (   0.7543127   0.2310728   1.9923953  )
        85           Cu  tau(  85) = (   0.0000000   0.4749141   1.9979933  )
        86           Cu  tau(  86) = (   0.2783803   0.7206548   2.0224415  )
        87           Cu  tau(  87) = (   0.5000000   0.4559110   1.9973507  )
        88           Cu  tau(  88) = (   0.7216197   0.7206548   2.0224415  )
        89           Cu  tau(  89) = (   0.0000000   0.9222278   1.9890500  )
        90           Cu  tau(  90) = (   0.2511462   1.1542434   1.9884264  )
        91           Cu  tau(  91) = (   0.5000000   0.9655625   2.1437579  )
        92           Cu  tau(  92) = (   0.7488538   1.1542434   1.9884264  )
        93           Cu  tau(  93) = (   0.0000000   1.3879561   1.9923375  )
        94           Cu  tau(  94) = (   0.2488817   1.6179614   1.9914821  )
        95           Cu  tau(  95) = (   0.5000000   1.3878309   1.9891169  )
        96           Cu  tau(  96) = (   0.7511183   1.6179614   1.9914821  )
        97           Cu  tau(  97) = (   0.0000000   1.8477032   1.9922062  )
        98           Cu  tau(  98) = (   0.2504603   2.0784565   1.9913018  )
        99           Cu  tau(  99) = (   0.5000000   1.8464232   1.9909817  )
       100           Cu  tau( 100) = (   0.7495397   2.0784565   1.9913018  )
       101           C   tau( 101) = (   0.0000000   0.0918300   2.3987906  )
       102           C   tau( 102) = (   0.0000000   0.2830517   2.4069116  )
       103           C   tau( 103) = (   0.1669648  -0.0031547   2.3917409  )
       104           C   tau( 104) = (   0.1658940   0.3800131   2.3999865  )
       105           C   tau( 105) = (   0.3334842   0.0935884   2.3900958  )
       106           C   tau( 106) = (   0.3332652   0.2856599   2.3895679  )
       107           C   tau( 107) = (   0.5000000  -0.0034013   2.3848819  )
       108           C   tau( 108) = (   0.5000000   0.3824445   2.3769323  )
       109           C   tau( 109) = (   0.6665158   0.0935884   2.3900958  )
       110           C   tau( 110) = (   0.6667348   0.2856599   2.3895679  )
       111           C   tau( 111) = (   0.8330352  -0.0031547   2.3917409  )
       112           C   tau( 112) = (   0.8341060   0.3800131   2.3999865  )
       113           C   tau( 113) = (   0.0000000   0.6693391   2.3888852  )
       114           C   tau( 114) = (   0.0000000   0.8628808   2.3797350  )
       115           C   tau( 115) = (   0.1651676   0.5710724   2.3886289  )
       116           C   tau( 116) = (   0.1653666   0.9583033   2.3501594  )
       117           C   tau( 117) = (   0.3283052   0.6655027   2.3418595  )
       118           C   tau( 118) = (   0.3128483   0.8499831   2.2896233  )
       119           C   tau( 119) = (   0.5000000   0.5713859   2.3445169  )
       120           C   tau( 120) = (   0.6716948   0.6655027   2.3418595  )
       121           C   tau( 121) = (   0.6871517   0.8499831   2.2896233  )
       122           C   tau( 122) = (   0.8348324   0.5710724   2.3886289  )
       123           C   tau( 123) = (   0.8346334   0.9583033   2.3501594  )
       124           C   tau( 124) = (   0.0000000   1.2481409   2.3741239  )
       125           C   tau( 125) = (   0.0000000   1.4401593   2.3867115  )
       126           C   tau( 126) = (   0.1666687   1.1528874   2.3548049  )
       127           C   tau( 127) = (   0.1661398   1.5368556   2.3930457  )
       128           C   tau( 128) = (   0.3336002   1.2527937   2.3565831  )
       129           C   tau( 129) = (   0.3328667   1.4424847   2.3901885  )
       130           C   tau( 130) = (   0.5000000   1.1721495   2.3105982  )
       131           C   tau( 131) = (   0.5000000   1.5375802   2.3955949  )
       132           C   tau( 132) = (   0.6663998   1.2527937   2.3565831  )
       133           C   tau( 133) = (   0.6671333   1.4424847   2.3901885  )
       134           C   tau( 134) = (   0.8333313   1.1528874   2.3548049  )
       135           C   tau( 135) = (   0.8338602   1.5368556   2.3930457  )
       136           C   tau( 136) = (   0.0000000   1.8248880   2.3892598  )
       137           C   tau( 137) = (   0.0000000   2.0173887   2.3857774  )
       138           C   tau( 138) = (   0.1663569   1.7289233   2.3933667  )
       139           C   tau( 139) = (   0.1666299   2.1138124   2.3854319  )
       140           C   tau( 140) = (   0.3330366   1.8244623   2.3912079  )
       141           C   tau( 141) = (   0.3331453   2.0169431   2.3853332  )
       142           C   tau( 142) = (   0.5000000   1.7293269   2.3950679  )
       143           C   tau( 143) = (   0.5000000   2.1131912   2.3848575  )
       144           C   tau( 144) = (   0.6669634   1.8244623   2.3912079  )
       145           C   tau( 145) = (   0.6668547   2.0169431   2.3853332  )
       146           C   tau( 146) = (   0.8336431   1.7289233   2.3933667  )
       147           C   tau( 147) = (   0.8333701   2.1138124   2.3854319  )

     number of k points=     6  gaussian smearing, width (Ry)=  0.1000
                       cart. coord. in units 2pi/alat
        k(    1) = (   0.0000000   0.0000000   0.0000000), wk =   0.2500000
        k(    2) = (   0.0000000  -0.2165064   0.0000000), wk =   0.2500000
        k(    3) = (   0.2500000   0.0000000   0.0000000), wk =   0.5000000
        k(    4) = (   0.2500000  -0.2165064   0.0000000), wk =   0.5000000
        k(    5) = (  -0.5000000   0.0000000   0.0000000), wk =   0.2500000
        k(    6) = (  -0.5000000  -0.2165064   0.0000000), wk =   0.2500000

     Dense  grid:  2050409 G-vectors     FFT dimensions: (  80, 192, 270)

     Largest allocated arrays     est. size (Mb)     dimensions
        Kohn-Sham Wavefunctions        54.30 Mb     (    4604,  773)
        NL pseudopotentials           129.75 Mb     (    4604, 1847)
        Each V/rho on FFT grid          1.17 Mb     (   76800)
        Each G-vector array             0.28 Mb     (   36616)
        G-vector shells                 0.14 Mb     (   17932)
     Largest temporary arrays     est. size (Mb)     dimensions
        Auxiliary wavefunctions       217.22 Mb     (    4604, 3092)
        Each subspace H/S matrix        5.83 Mb     (     618,  618)
        Each <psi_i|beta_j> matrix     21.79 Mb     (    1847,  773)
        Arrays for rho mixing           9.38 Mb     (   76800,    8)

     Initial potential from superposition of free atoms
     Check: negative starting charge=   -0.001847

     starting charge 1263.31751, renormalised to 1288.00000

     negative rho (up, down):  1.883E-03 0.000E+00
     Starting wfc are 1276 randomized atomic wfcs

     total cpu time spent up to now is      104.9 secs

     Self-consistent Calculation

     iteration #  1     ecut=    80.00 Ry     beta=0.70
     Davidson diagonalization with overlap
     c_bands:  5 eigenvalues not converged
     c_bands:  5 eigenvalues not converged
     c_bands:  3 eigenvalues not converged
     ethr =  1.00E-04,  avg # of iterations = 20.5

     negative rho (up, down):  2.704E+01 0.000E+00

     total cpu time spent up to now is     1768.7 secs

     total energy              =   -9583.39710332 Ry
     Harris-Foulkes estimate   =  -16856.44100086 Ry
     estimated scf accuracy    <  167702.71466583 Ry

     iteration #  2     ecut=    80.00 Ry     beta=0.70
     Davidson diagonalization with overlap
     ethr =  1.00E-02,  avg # of iterations =  9.8

     negative rho (up, down):  2.778E+01 0.000E+00

     total cpu time spent up to now is     2686.8 secs

     total energy              =  -12776.03732122 Ry
     Harris-Foulkes estimate   =  -13478.68400621 Ry
     estimated scf accuracy    <    8963.20403228 Ry

     iteration #  3     ecut=    80.00 Ry     beta=0.70
     Davidson diagonalization with overlap
     ethr =  1.00E-02,  avg # of iterations =  5.0

     negative rho (up, down):  2.845E+01 0.000E+00

     total cpu time spent up to now is     3077.5 secs

     total energy              =  -13060.82224319 Ry
     Harris-Foulkes estimate   =  -13160.28680787 Ry
     estimated scf accuracy    <   13261.35700861 Ry

     iteration #  4     ecut=    80.00 Ry     beta=0.70
     Davidson diagonalization with overlap
     ethr =  1.00E-02,  avg # of iterations =  3.0

     negative rho (up, down):  2.408E+01 0.000E+00

     total cpu time spent up to now is     3264.0 secs

     total energy              =  -12767.64631274 Ry
     Harris-Foulkes estimate   =  -13084.17949939 Ry
     estimated scf accuracy    <    4377.15165895 Ry

     iteration #  5     ecut=    80.00 Ry     beta=0.70
     Davidson diagonalization with overlap
     ethr =  1.00E-02,  avg # of iterations =  5.3

     negative rho (up, down):  1.678E+01 0.000E+00

     total cpu time spent up to now is     3749.2 secs

     total energy              =  -13069.90287618 Ry
     Harris-Foulkes estimate   =  -13175.37543455 Ry
     estimated scf accuracy    <    9057.78992368 Ry

     iteration #  6     ecut=    80.00 Ry     beta=0.70
     Davidson diagonalization with overlap
     ethr =  1.00E-02,  avg # of iterations =  4.2

     negative rho (up, down):  1.489E+01 0.000E+00

     total cpu time spent up to now is     4013.3 secs

     total energy              =  -13045.87727365 Ry
     Harris-Foulkes estimate   =  -13107.38497305 Ry
     estimated scf accuracy    <    6880.51353952 Ry

     iteration #  7     ecut=    80.00 Ry     beta=0.70
     Davidson diagonalization with overlap
     ethr =  1.00E-02,  avg # of iterations =  3.8

     negative rho (up, down):  1.282E+01 0.000E+00

     total cpu time spent up to now is     4214.3 secs

     total energy              =  -13010.92741154 Ry
     Harris-Foulkes estimate   =  -13063.21720969 Ry
     estimated scf accuracy    <    6632.17149184 Ry

     iteration #  8     ecut=    80.00 Ry     beta=0.70
     Davidson diagonalization with overlap
     ethr =  1.00E-02,  avg # of iterations =  3.5

     negative rho (up, down):  1.030E+01 0.000E+00

     total cpu time spent up to now is     4406.8 secs

     total energy              =  -12933.24103966 Ry
     Harris-Foulkes estimate   =  -13019.32307360 Ry
     estimated scf accuracy    <    5823.93805082 Ry

     iteration #  9     ecut=    80.00 Ry     beta=0.70
     Davidson diagonalization with overlap
     ethr =  1.00E-02,  avg # of iterations =  5.0

     negative rho (up, down):  9.412E+00 0.000E+00

     total cpu time spent up to now is     4655.4 secs

     total energy              =  -12909.09814291 Ry
     Harris-Foulkes estimate   =  -12951.18396437 Ry
     estimated scf accuracy    <    4573.96588995 Ry

     iteration # 10     ecut=    80.00 Ry     beta=0.70
     Davidson diagonalization with overlap
     ethr =  1.00E-02,  avg # of iterations =  2.0

     negative rho (up, down):  7.419E+00 0.000E+00

     total cpu time spent up to now is     4830.6 secs

     total energy              =  -12792.20210087 Ry
     Harris-Foulkes estimate   =  -12912.29150271 Ry
     estimated scf accuracy    <    4492.25375802 Ry

     iteration # 11     ecut=    80.00 Ry     beta=0.70
     Davidson diagonalization with overlap
     ethr =  1.00E-02,  avg # of iterations =  5.0

     negative rho (up, down):  7.417E+00 0.000E+00

     total cpu time spent up to now is     5104.9 secs

     total energy              =  -12797.28057201 Ry
     Harris-Foulkes estimate   =  -12818.13505275 Ry
     estimated scf accuracy    <    1790.63858551 Ry

     iteration # 12     ecut=    80.00 Ry     beta=0.70
     Davidson diagonalization with overlap
     ethr =  1.00E-02,  avg # of iterations =  4.7

     negative rho (up, down):  3.971E+00 0.000E+00

     total cpu time spent up to now is     5334.2 secs

     total energy              =  -12717.06986777 Ry
     Harris-Foulkes estimate   =  -12813.71047118 Ry
     estimated scf accuracy    <    1039.14868086 Ry

     iteration # 13     ecut=    80.00 Ry     beta=0.70
     Davidson diagonalization with overlap
     ethr =  1.00E-02,  avg # of iterations =  3.2

     negative rho (up, down):  3.263E+00 0.000E+00

     total cpu time spent up to now is     5546.1 secs

     total energy              =  -12755.59106692 Ry
     Harris-Foulkes estimate   =  -12769.09627432 Ry
     estimated scf accuracy    <     202.50214641 Ry

     iteration # 14     ecut=    80.00 Ry     beta=0.70
     Davidson diagonalization with overlap
     ethr =  1.00E-02,  avg # of iterations =  1.7

     negative rho (up, down):  2.336E+00 0.000E+00

     total cpu time spent up to now is     5717.2 secs

     total energy              =  -12744.73933521 Ry
     Harris-Foulkes estimate   =  -12760.46129876 Ry
     estimated scf accuracy    <     251.21945501 Ry

     iteration # 15     ecut=    80.00 Ry     beta=0.70
     Davidson diagonalization with overlap
     ethr =  1.00E-02,  avg # of iterations =  1.8

     negative rho (up, down):  9.868E-01 0.000E+00

     total cpu time spent up to now is     5890.7 secs

     total energy              =  -12735.24430184 Ry
     Harris-Foulkes estimate   =  -12753.34425069 Ry
     estimated scf accuracy    <     205.16969278 Ry

     iteration # 16     ecut=    80.00 Ry     beta=0.70
     Davidson diagonalization with overlap
     ethr =  1.00E-02,  avg # of iterations =  1.0

     negative rho (up, down):  7.924E-01 0.000E+00

     total cpu time spent up to now is     6055.3 secs

     total energy              =  -12724.43305657 Ry
     Harris-Foulkes estimate   =  -12740.58256649 Ry
     estimated scf accuracy    <     189.99164238 Ry

     iteration # 17     ecut=    80.00 Ry     beta=0.70
     Davidson diagonalization with overlap
     ethr =  1.00E-02,  avg # of iterations =  2.0

     negative rho (up, down):  7.079E-01 0.000E+00

     total cpu time spent up to now is     6232.7 secs

     total energy              =  -12718.58915847 Ry
     Harris-Foulkes estimate   =  -12733.73479315 Ry
     estimated scf accuracy    <     132.81490339 Ry

     iteration # 18     ecut=    80.00 Ry     beta=0.70
     Davidson diagonalization with overlap
     ethr =  1.00E-02,  avg # of iterations =  1.3

     negative rho (up, down):  5.675E-01 0.000E+00

     total cpu time spent up to now is     6400.3 secs

     total energy              =  -12719.62980877 Ry
     Harris-Foulkes estimate   =  -12722.52721120 Ry
     estimated scf accuracy    <     125.14075595 Ry

     iteration # 19     ecut=    80.00 Ry     beta=0.70
     Davidson diagonalization with overlap
     ethr =  9.72E-03,  avg # of iterations =  2.0

     negative rho (up, down):  8.703E-01 0.000E+00

     total cpu time spent up to now is     6577.6 secs

     total energy              =  -12712.40155343 Ry
     Harris-Foulkes estimate   =  -12725.29374466 Ry
     estimated scf accuracy    <     109.68677925 Ry

     iteration # 20     ecut=    80.00 Ry     beta=0.70
     Davidson diagonalization with overlap
     ethr =  8.52E-03,  avg # of iterations =  1.0

     negative rho (up, down):  1.295E+00 0.000E+00

     total cpu time spent up to now is     6742.0 secs

     total energy              =  -12698.27486791 Ry
     Harris-Foulkes estimate   =  -12713.58571288 Ry
     estimated scf accuracy    <      77.71745745 Ry

     iteration # 21     ecut=    80.00 Ry     beta=0.70
     Davidson diagonalization with overlap
     ethr =  6.03E-03,  avg # of iterations =  1.2

     negative rho (up, down):  7.288E-01 0.000E+00

     total cpu time spent up to now is     6907.9 secs

     total energy              =  -12692.29688447 Ry
     Harris-Foulkes estimate   =  -12701.94957527 Ry
     estimated scf accuracy    <     110.23625493 Ry

     iteration # 22     ecut=    80.00 Ry     beta=0.70
     Davidson diagonalization with overlap
     ethr =  6.03E-03,  avg # of iterations =  2.0

     negative rho (up, down):  7.921E-01 0.000E+00

     total cpu time spent up to now is     7085.8 secs

     total energy              =  -12692.68077511 Ry
     Harris-Foulkes estimate   =  -12700.19087822 Ry
     estimated scf accuracy    <     126.21612610 Ry

     iteration # 23     ecut=    80.00 Ry     beta=0.70
     Davidson diagonalization with overlap
     ethr =  6.03E-03,  avg # of iterations =  1.0

     negative rho (up, down):  5.942E-01 0.000E+00

     total cpu time spent up to now is     7250.6 secs

     total energy              =  -12696.02491242 Ry
     Harris-Foulkes estimate   =  -12697.20802627 Ry
     estimated scf accuracy    <      24.28858050 Ry

     iteration # 24     ecut=    80.00 Ry     beta=0.70
     Davidson diagonalization with overlap
     ethr =  1.89E-03,  avg # of iterations =  1.0

     negative rho (up, down):  8.687E-01 0.000E+00

     total cpu time spent up to now is     7414.3 secs

     total energy              =  -12694.22254265 Ry
     Harris-Foulkes estimate   =  -12696.65408643 Ry
     estimated scf accuracy    <      16.02086742 Ry

     iteration # 25     ecut=    80.00 Ry     beta=0.70
     Davidson diagonalization with overlap
     ethr =  1.24E-03,  avg # of iterations =  2.0

     negative rho (up, down):  2.543E+00 0.000E+00

     total cpu time spent up to now is     7590.4 secs

     total energy              =  -12692.91839744 Ry
     Harris-Foulkes estimate   =  -12695.07843955 Ry
     estimated scf accuracy    <      17.91299598 Ry

     iteration # 26     ecut=    80.00 Ry     beta=0.70
     Davidson diagonalization with overlap
     ethr =  1.24E-03,  avg # of iterations =  4.0

     negative rho (up, down):  2.496E+00 0.000E+00

     total cpu time spent up to now is     7792.4 secs

     total energy              =  -12691.89543080 Ry
     Harris-Foulkes estimate   =  -12693.59856708 Ry
     estimated scf accuracy    <      48.74081226 Ry

     iteration # 27     ecut=    80.00 Ry     beta=0.70
     Davidson diagonalization with overlap
     ethr =  1.24E-03,  avg # of iterations =  2.0

     negative rho (up, down):  1.773E+00 0.000E+00

     total cpu time spent up to now is     7968.6 secs

     total energy              =  -12690.75825082 Ry
     Harris-Foulkes estimate   =  -12693.04503082 Ry
     estimated scf accuracy    <      55.15702308 Ry

     iteration # 28     ecut=    80.00 Ry     beta=0.70
     Davidson diagonalization with overlap
     ethr =  1.24E-03,  avg # of iterations =  1.0

     negative rho (up, down):  1.559E+00 0.000E+00

     total cpu time spent up to now is     8133.6 secs

     total energy              =  -12690.63194081 Ry
     Harris-Foulkes estimate   =  -12691.25975355 Ry
     estimated scf accuracy    <      20.27665499 Ry

     iteration # 29     ecut=    80.00 Ry     beta=0.70
     Davidson diagonalization with overlap
     ethr =  1.24E-03,  avg # of iterations =  1.0

     negative rho (up, down):  7.453E-01 0.000E+00

     total cpu time spent up to now is     8298.5 secs

     total energy              =  -12689.62330989 Ry
     Harris-Foulkes estimate   =  -12690.82847268 Ry
     estimated scf accuracy    <      19.54452980 Ry

     iteration # 30     ecut=    80.00 Ry     beta=0.70
     Davidson diagonalization with overlap
     ethr =  1.24E-03,  avg # of iterations =  1.0

     total cpu time spent up to now is     8462.1 secs

     total energy              =  -12689.09345629 Ry
     Harris-Foulkes estimate   =  -12690.31141537 Ry
     estimated scf accuracy    <      32.62233684 Ry

     iteration # 31     ecut=    80.00 Ry     beta=0.70
     Davidson diagonalization with overlap
     ethr =  1.24E-03,  avg # of iterations =  7.0

     negative rho (up, down):  3.651E-01 0.000E+00

     total cpu time spent up to now is     8697.1 secs

     total energy              =  -12688.37555624 Ry
     Harris-Foulkes estimate   =  -12690.33717856 Ry
     estimated scf accuracy    <      17.58056724 Ry

     iteration # 32     ecut=    80.00 Ry     beta=0.70
     Davidson diagonalization with overlap
     ethr =  1.24E-03,  avg # of iterations =  2.0

     negative rho (up, down):  5.093E-01 0.000E+00

     total cpu time spent up to now is     8872.2 secs

     total energy              =  -12687.87157168 Ry
     Harris-Foulkes estimate   =  -12688.57362465 Ry
     estimated scf accuracy    <      11.46575460 Ry

     iteration # 33     ecut=    80.00 Ry     beta=0.70
     Davidson diagonalization with overlap
     ethr =  8.90E-04,  avg # of iterations =  1.8

     negative rho (up, down):  8.834E-01 0.000E+00

     total cpu time spent up to now is     9045.8 secs

     total energy              =  -12687.42202094 Ry
     Harris-Foulkes estimate   =  -12688.05564155 Ry
     estimated scf accuracy    <       9.04363572 Ry

     iteration # 34     ecut=    80.00 Ry     beta=0.70
     Davidson diagonalization with overlap
     ethr =  7.02E-04,  avg # of iterations =  5.3

     negative rho (up, down):  1.890E+00 0.000E+00

     total cpu time spent up to now is     9259.1 secs

     total energy              =  -12687.34423729 Ry
     Harris-Foulkes estimate   =  -12687.61333587 Ry
     estimated scf accuracy    <       2.82714845 Ry

     iteration # 35     ecut=    80.00 Ry     beta=0.70
     Davidson diagonalization with overlap
     ethr =  2.19E-04,  avg # of iterations =  8.8

     negative rho (up, down):  5.493E-01 0.000E+00

     total cpu time spent up to now is     9587.6 secs

     total energy              =  -12687.08467220 Ry
     Harris-Foulkes estimate   =  -12687.45379431 Ry
     estimated scf accuracy    <       1.18997018 Ry

     iteration # 36     ecut=    80.00 Ry     beta=0.70
     Davidson diagonalization with overlap
     c_bands:  1 eigenvalues not converged
     ethr =  9.24E-05,  avg # of iterations = 14.8

     negative rho (up, down):  2.981E-01 0.000E+00

     total cpu time spent up to now is     9945.2 secs

     total energy              =  -12687.12839808 Ry
     Harris-Foulkes estimate   =  -12687.24465074 Ry
     estimated scf accuracy    <       0.71373088 Ry

     iteration # 37     ecut=    80.00 Ry     beta=0.70
     Davidson diagonalization with overlap
     ethr =  5.54E-05,  avg # of iterations =  6.7

     negative rho (up, down):  3.386E-02 0.000E+00

     total cpu time spent up to now is    10178.7 secs

     total energy              =  -12687.11123986 Ry
     Harris-Foulkes estimate   =  -12687.16216082 Ry
     estimated scf accuracy    <       0.34814340 Ry

     iteration # 38     ecut=    80.00 Ry     beta=0.70
     Davidson diagonalization with overlap
     ethr =  2.70E-05,  avg # of iterations =  8.7

     negative rho (up, down):  1.798E-01 0.000E+00

     total cpu time spent up to now is    10450.7 secs

     total energy              =  -12687.12497671 Ry
     Harris-Foulkes estimate   =  -12687.13198781 Ry
     estimated scf accuracy    <       0.10108107 Ry

     iteration # 39     ecut=    80.00 Ry     beta=0.70
     Davidson diagonalization with overlap
     ethr =  7.85E-06,  avg # of iterations =  9.0

     negative rho (up, down):  1.031E-01 0.000E+00

     total cpu time spent up to now is    10749.3 secs

     total energy              =  -12687.12614289 Ry
     Harris-Foulkes estimate   =  -12687.13424191 Ry
     estimated scf accuracy    <       0.03026839 Ry

     iteration # 40     ecut=    80.00 Ry     beta=0.70
     Davidson diagonalization with overlap
     ethr =  2.35E-06,  avg # of iterations = 12.5

     negative rho (up, down):  6.858E-02 0.000E+00

     total cpu time spent up to now is    11075.2 secs

     total energy              =  -12687.12626783 Ry
     Harris-Foulkes estimate   =  -12687.12868808 Ry
     estimated scf accuracy    <       0.00873042 Ry

     iteration # 41     ecut=    80.00 Ry     beta=0.70
     Davidson diagonalization with overlap
     ethr =  6.78E-07,  avg # of iterations = 11.3

     negative rho (up, down):  5.511E-02 0.000E+00

     total cpu time spent up to now is    11381.0 secs

     total energy              =  -12687.12630733 Ry
     Harris-Foulkes estimate   =  -12687.12689365 Ry
     estimated scf accuracy    <       0.00245836 Ry

     iteration # 42     ecut=    80.00 Ry     beta=0.70
     Davidson diagonalization with overlap
     c_bands:  1 eigenvalues not converged
     c_bands:  1 eigenvalues not converged
     ethr =  1.91E-07,  avg # of iterations = 11.3

     negative rho (up, down):  1.797E-02 0.000E+00

     total cpu time spent up to now is    11668.5 secs

     total energy              =  -12687.12574518 Ry
     Harris-Foulkes estimate   =  -12687.12643575 Ry
     estimated scf accuracy    <       0.00065449 Ry

     iteration # 43     ecut=    80.00 Ry     beta=0.70
     Davidson diagonalization with overlap
     ethr =  5.08E-08,  avg # of iterations = 14.0

     negative rho (up, down):  1.385E-02 0.000E+00

     total cpu time spent up to now is    12015.2 secs

     total energy              =  -12687.12566750 Ry
     Harris-Foulkes estimate   =  -12687.12578030 Ry
     estimated scf accuracy    <       0.00024319 Ry

     iteration # 44     ecut=    80.00 Ry     beta=0.70
     Davidson diagonalization with overlap
     ethr =  1.89E-08,  avg # of iterations =  7.2

     negative rho (up, down):  2.395E-03 0.000E+00

     total cpu time spent up to now is    12278.2 secs

     total energy              =  -12687.12551002 Ry
     Harris-Foulkes estimate   =  -12687.12570222 Ry
     estimated scf accuracy    <       0.00016029 Ry

     iteration # 45     ecut=    80.00 Ry     beta=0.70
     Davidson diagonalization with overlap
     c_bands:  1 eigenvalues not converged
     c_bands:  1 eigenvalues not converged
     ethr =  1.24E-08,  avg # of iterations = 16.5

     negative rho (up, down):  2.069E-03 0.000E+00

     total cpu time spent up to now is    12658.3 secs

     total energy              =  -12687.12551885 Ry
     Harris-Foulkes estimate   =  -12687.12552493 Ry
     estimated scf accuracy    <       0.00002312 Ry

     iteration # 46     ecut=    80.00 Ry     beta=0.70
     Davidson diagonalization with overlap
     ethr =  1.80E-09,  avg # of iterations =  3.7

     negative rho (up, down):  2.271E-03 0.000E+00

     total cpu time spent up to now is    12867.1 secs

     total energy              =  -12687.12552249 Ry
     Harris-Foulkes estimate   =  -12687.12552150 Ry
     estimated scf accuracy    <       0.00000919 Ry

     iteration # 47     ecut=    80.00 Ry     beta=0.70
     Davidson diagonalization with overlap
     ethr =  7.13E-10,  avg # of iterations =  2.0

     negative rho (up, down):  2.204E-03 0.000E+00

     total cpu time spent up to now is    13057.9 secs

     total energy              =  -12687.12552307 Ry
     Harris-Foulkes estimate   =  -12687.12552348 Ry
     estimated scf accuracy    <       0.00000207 Ry

     iteration # 48     ecut=    80.00 Ry     beta=0.70
     Davidson diagonalization with overlap
     ethr =  1.60E-10,  avg # of iterations =  2.3

     negative rho (up, down):  2.141E-03 0.000E+00

     total cpu time spent up to now is    13262.1 secs

     total energy              =  -12687.12552326 Ry
     Harris-Foulkes estimate   =  -12687.12552339 Ry
     estimated scf accuracy    <       0.00000055 Ry

     iteration # 49     ecut=    80.00 Ry     beta=0.70
     Davidson diagonalization with overlap
     ethr =  4.29E-11,  avg # of iterations =  2.8

     negative rho (up, down):  2.030E-03 0.000E+00

     total cpu time spent up to now is    13470.0 secs

     total energy              =  -12687.12552341 Ry
     Harris-Foulkes estimate   =  -12687.12552335 Ry
     estimated scf accuracy    <       0.00000027 Ry

     iteration # 50     ecut=    80.00 Ry     beta=0.70
     Davidson diagonalization with overlap
     ethr =  2.08E-11,  avg # of iterations =  2.7

     negative rho (up, down):  1.961E-03 0.000E+00

     total cpu time spent up to now is    13666.9 secs

     total energy              =  -12687.12552354 Ry
     Harris-Foulkes estimate   =  -12687.12552345 Ry
     estimated scf accuracy    <       0.00000009 Ry

     iteration # 51     ecut=    80.00 Ry     beta=0.70
     Davidson diagonalization with overlap
     ethr =  7.03E-12,  avg # of iterations =  3.0

     negative rho (up, down):  1.982E-03 0.000E+00

     total cpu time spent up to now is    13868.3 secs

     total energy              =  -12687.12552353 Ry
     Harris-Foulkes estimate   =  -12687.12552356 Ry
     estimated scf accuracy    <       0.00000004 Ry

     iteration # 52     ecut=    80.00 Ry     beta=0.70
     Davidson diagonalization with overlap
     ethr =  3.41E-12,  avg # of iterations =  2.8

     negative rho (up, down):  1.936E-03 0.000E+00

     total cpu time spent up to now is    14071.9 secs

     total energy              =  -12687.12552359 Ry
     Harris-Foulkes estimate   =  -12687.12552353 Ry
     estimated scf accuracy    <       0.00000002 Ry

     iteration # 53     ecut=    80.00 Ry     beta=0.70
     Davidson diagonalization with overlap
     ethr =  1.68E-12,  avg # of iterations =  3.0

     negative rho (up, down):  1.937E-03 0.000E+00

     total cpu time spent up to now is    14259.7 secs

     End of self-consistent calculation

          k = 0.0000 0.0000 0.0000 (256287 PWs)   bands (ev):

   -16.0612 -15.7507 -15.5264 -14.6047 -14.5084 -14.1179 -14.0619 -13.8206
   -13.7889 -13.6387 -13.3811 -12.8229 -12.7834 -12.7376 -12.6016 -12.5726
   -11.8475 -11.0273 -10.9453 -10.9435 -10.7965 -10.2005  -9.6004  -9.1699
    -9.0733  -9.0423  -8.6282  -8.2883  -8.2302  -8.0714  -7.7150  -7.2699
    -7.2343  -7.2241  -7.1921  -7.1584  -6.8132  -6.7115  -6.1879  -5.7381
    -5.6597  -5.6210  -5.5600  -5.4831  -5.4816  -5.2060  -5.2013  -5.0695
    -5.0122  -4.8590  -4.6740  -4.4142  -4.3170  -4.2853  -4.1794  -4.1777
    -3.8967  -3.8510  -3.7414  -3.7039  -3.7013  -3.3090  -3.2359  -3.1913
    -3.1406  -3.1225  -3.1174  -3.0786  -3.0248  -2.9539  -2.9363  -2.8680
    -2.7557  -2.7411  -2.7239  -2.7227  -2.7150  -2.7142  -2.5924  -2.5798
    -2.5510  -2.4992  -2.4665  -2.4460  -2.4010  -2.3533  -2.3493  -2.2255
    -2.1797  -2.1559  -2.1166  -2.0871  -2.0224  -2.0145  -1.9269  -1.9159
    -1.9024  -1.8828  -1.8766  -1.8711  -1.8676  -1.8514  -1.8139  -1.8130
    -1.7522  -1.7489  -1.7241  -1.7183  -1.6872  -1.6853  -1.6556  -1.5830
    -1.5535  -1.5008  -1.4632  -1.4627  -1.4587  -1.4393  -1.4164  -1.4064
    -1.3982  -1.3816  -1.3656  -1.3416  -1.3408  -1.3109  -1.3073  -1.2780
    -1.2747  -1.2607  -1.2581  -1.2509  -1.2366  -1.2312  -1.2203  -1.2048
    -1.1731  -1.1573  -1.1535  -1.1398  -1.1222  -1.1024  -1.0973  -1.0637
    -1.0250  -1.0106  -0.9911  -0.9708  -0.9700  -0.9383  -0.9304  -0.9209
    -0.9113  -0.9025  -0.8967  -0.8873  -0.8723  -0.8713  -0.8446  -0.8156
    -0.7892  -0.7801  -0.7692  -0.7626  -0.7601  -0.7533  -0.7488  -0.7477
    -0.7444  -0.7427  -0.7388  -0.7379  -0.7176  -0.6970  -0.6905  -0.6828
    -0.6710  -0.6686  -0.6659  -0.6526  -0.6378  -0.6224  -0.6184  -0.6035
    -0.6008  -0.5938  -0.5925  -0.5882  -0.5845  -0.5794  -0.5773  -0.5754
    -0.5738  -0.5708  -0.5695  -0.5647  -0.5599  -0.5586  -0.5475  -0.5369
    -0.5309  -0.4958  -0.4843  -0.4541  -0.4408  -0.4227  -0.4165  -0.4159
    -0.4079  -0.4044  -0.3921  -0.3917  -0.3681  -0.3643  -0.3439  -0.3437
    -0.3423  -0.3295  -0.3182  -0.3167  -0.3045  -0.3006  -0.2967  -0.2888
    -0.2783  -0.2747  -0.2679  -0.2606  -0.2523  -0.2391  -0.2268  -0.2163
    -0.1947  -0.1748  -0.1687  -0.1617  -0.1587  -0.1505  -0.1474  -0.1447
    -0.1426  -0.1328  -0.1325  -0.1306  -0.1263  -0.1244  -0.1183  -0.1104
    -0.1086  -0.1028  -0.0992  -0.0940  -0.0810  -0.0688  -0.0560  -0.0549
    -0.0371  -0.0288  -0.0258  -0.0184  -0.0106  -0.0020  -0.0015   0.0022
     0.0083   0.0085   0.0147   0.0268   0.0300   0.0353   0.0393   0.0423
     0.0557   0.0573   0.0581   0.0604   0.0676   0.0692   0.0740   0.0747
     0.0870   0.0891   0.0996   0.1045   0.1237   0.1287   0.1339   0.1403
     0.1422   0.1583   0.1771   0.1777   0.1892   0.1914   0.1979   0.2067
     0.2079   0.2138   0.2147   0.2183   0.2268   0.2367   0.2401   0.2517
     0.2555   0.2652   0.2671   0.2714   0.2750   0.2811   0.2868   0.2875
     0.3010   0.3018   0.3095   0.3150   0.3178   0.3230   0.3315   0.3331
     0.3335   0.3376   0.3437   0.3440   0.3461   0.3683   0.3693   0.3824
     0.3842   0.3927   0.4054   0.4190   0.4232   0.4376   0.4384   0.4537
     0.4585   0.4700   0.4761   0.4871   0.4894   0.4985   0.5082   0.5097
     0.5150   0.5228   0.5393   0.5467   0.5475   0.5550   0.5648   0.5699
     0.5921   0.5948   0.5966   0.6067   0.6098   0.6108   0.6236   0.6275
     0.6365   0.6366   0.6449   0.6567   0.6644   0.6685   0.6776   0.6863
     0.6889   0.6912   0.6971   0.7131   0.7195   0.7219   0.7311   0.7323
     0.7451   0.7475   0.7490   0.7551   0.7557   0.7685   0.7712   0.7718
     0.7840   0.7855   0.7880   0.7920   0.7966   0.8043   0.8092   0.8115
     0.8176   0.8209   0.8273   0.8279   0.8335   0.8389   0.8442   0.8558
     0.8565   0.8576   0.8657   0.8785   0.8906   0.9000   0.9018   0.9086
     0.9086   0.9145   0.9189   0.9197   0.9228   0.9344   0.9373   0.9426
     0.9469   0.9484   0.9488   0.9548   0.9604   0.9608   0.9688   0.9713
     0.9841   0.9879   0.9921   0.9961   0.9965   0.9989   1.0056   1.0059
     1.0104   1.0152   1.0163   1.0232   1.0272   1.0329   1.0480   1.0481
     1.0637   1.0697   1.0724   1.0762   1.0798   1.0826   1.0877   1.0893
     1.1055   1.1169   1.1197   1.1251   1.1295   1.1341   1.1392   1.1407
     1.1464   1.1476   1.1563   1.1616   1.1621   1.1693   1.1742   1.1857
     1.1907   1.1970   1.2004   1.2082   1.2085   1.2107   1.2124   1.2225
     1.2227   1.2257   1.2346   1.2479   1.2538   1.2599   1.2641   1.2686
     1.2701   1.2730   1.2792   1.2817   1.2829   1.2867   1.2884   1.2941
     1.2950   1.3009   1.3045   1.3108   1.3194   1.3209   1.3257   1.3342
     1.3388   1.3433   1.3538   1.3604   1.3631   1.3650   1.3698   1.3727
     1.3766   1.3781   1.3786   1.3827   1.3851   1.3931   1.3972   1.4025
     1.4050   1.4195   1.4237   1.4244   1.4281   1.4284   1.4465   1.4544
     1.4620   1.4627   1.4665   1.4666   1.4707   1.4716   1.4836   1.4870
     1.4885   1.4937   1.5030   1.5061   1.5115   1.5130   1.5172   1.5190
     1.5210   1.5237   1.5283   1.5371   1.5376   1.5411   1.5473   1.5493
     1.5527   1.5595   1.5599   1.5625   1.5632   1.5676   1.5678   1.5726
     1.5747   1.5781   1.5796   1.5862   1.6007   1.6040   1.6136   1.6158
     1.6243   1.6271   1.6305   1.6320   1.6358   1.6391   1.6422   1.6422
     1.6526   1.6581   1.6628   1.6628   1.6679   1.6738   1.6750   1.6790
     1.6862   1.6907   1.6929   1.6961   1.6970   1.6996   1.7016   1.7064
     1.7071   1.7143   1.7143   1.7165   1.7229   1.7275   1.7316   1.7328
     1.7417   1.7484   1.7490   1.7644   1.7786   1.7806   1.7830   1.7984
     1.8116   1.8207   1.8335   1.8413   1.8450   1.8526   1.8547   1.8582
     1.8764   1.8818   1.8944   1.9004   1.9015   1.9031   1.9059   1.9136
     1.9299   2.0838   2.2148   2.2603   2.3740   2.3923   2.4444   2.4449
     2.4497   2.4694   2.4698   2.4757   2.4813   2.4990   2.5015   2.5570
     2.6572   2.6744   2.7147   2.7250   2.7302   2.7429   2.7439   2.8323
     2.9071   2.9116   2.9739   2.9930   3.2844   3.3258   3.4676   3.4710
     3.6488   3.7088   3.7944   3.8367   3.9266   4.0855   4.0977   4.1174
     4.1409   4.1947   4.2028   4.2178   4.2523   4.2604   4.2661   4.2871
     4.2906   4.3034   4.3782   4.4165   4.4445   4.5168   4.5463   4.7873
     4.8856   4.9234   5.0088   5.0972   5.2574   5.2673   5.3905   5.5450
     5.6775   5.6955   5.8074   5.9103   5.9975   6.0334   6.1231   6.2079
     6.2113   6.3480   6.6236   6.6484   6.6889   6.6997   6.7063   6.7259
     6.8089   6.8476   6.8664   6.9202   6.9568   6.9857   6.9996   7.0289
     7.0636   7.1051   7.1668   7.2804   7.3316   7.3495   7.3745   7.3928
     7.4212   7.5018   7.6296   7.7269   7.8677   7.8710   7.8892   7.9185
     7.9431   7.9573   7.9610   7.9833   7.9907   8.0536   8.4074   8.4532
     8.4597   8.4681   8.4815   8.5904   8.6001   8.6098   8.6238   8.6524
     8.6597   8.6992   8.7119   8.7417   8.7556   8.8038   8.8373   8.8885
     8.9584   8.9687   8.9888   9.0274   9.0837   9.1147   9.1318   9.2152
     9.2421   9.2501   9.3374   9.3490   9.3677   9.3899   9.4014   9.4419
     9.4957   9.5023   9.5810   9.6140   9.6638   9.7590   9.8504   9.9674
    10.0015  10.0026  10.0342  10.0533  10.0914

          k = 0.0000-0.2165 0.0000 (256176 PWs)   bands (ev):

   -16.0313 -15.8658 -15.2607 -15.0810 -14.0766 -14.0691 -13.9600 -13.9401
   -13.7566 -13.6387 -13.3614 -13.2953 -13.1827 -12.6928 -11.9545 -11.8566
   -11.8164 -11.8087 -11.5934 -10.8883 -10.0417  -9.9820  -9.9062  -9.4655
    -8.7734  -8.6515  -8.6202  -8.5098  -8.4936  -8.1025  -7.8153  -7.7426
    -7.5758  -7.0186  -6.6290  -6.5693  -6.5464  -6.4881  -6.4764  -6.2262
    -5.9104  -5.8504  -5.6214  -5.5895  -5.4998  -5.2066  -4.8323  -4.8253
    -4.7054  -4.6455  -4.5991  -4.5628  -4.5534  -4.3330  -4.2584  -4.2059
    -4.1190  -3.9978  -3.9628  -3.7532  -3.7375  -3.2912  -3.2622  -3.1020
    -3.0534  -3.0318  -3.0196  -2.9796  -2.9676  -2.9132  -2.8038  -2.7606
    -2.7566  -2.7329  -2.7109  -2.6986  -2.6439  -2.6101  -2.5488  -2.5240
    -2.4937  -2.4854  -2.4348  -2.3346  -2.3307  -2.3117  -2.3100  -2.2909
    -2.2890  -2.2533  -2.2430  -2.1742  -2.0673  -2.0291  -1.9890  -1.9854
    -1.9827  -1.9577  -1.8957  -1.8719  -1.8705  -1.8678  -1.8605  -1.7882
    -1.7435  -1.7351  -1.7018  -1.7016  -1.6830  -1.6825  -1.6293  -1.6112
    -1.5803  -1.5738  -1.5480  -1.4960  -1.4796  -1.4781  -1.4750  -1.4606
    -1.4586  -1.4579  -1.4312  -1.4061  -1.3804  -1.3697  -1.3475  -1.3316
    -1.2999  -1.2577  -1.2092  -1.1924  -1.1887  -1.1692  -1.1542  -1.1415
    -1.1357  -1.1083  -1.0935  -1.0490  -1.0348  -1.0247  -1.0094  -1.0094
    -1.0005  -0.9991  -0.9954  -0.9870  -0.9819  -0.9755  -0.9711  -0.9654
    -0.9598  -0.9302  -0.9272  -0.9157  -0.9113  -0.9049  -0.8695  -0.8548
    -0.8448  -0.8341  -0.8182  -0.8146  -0.8057  -0.7791  -0.7744  -0.7725
    -0.7622  -0.7607  -0.7278  -0.7200  -0.7147  -0.7122  -0.7029  -0.6933
    -0.6847  -0.6797  -0.6624  -0.6476  -0.6453  -0.6379  -0.6363  -0.6245
    -0.6171  -0.6166  -0.6044  -0.5970  -0.5808  -0.5608  -0.5561  -0.5509
    -0.5502  -0.5412  -0.5313  -0.5208  -0.5148  -0.5045  -0.4923  -0.4917
    -0.4892  -0.4779  -0.4700  -0.4507  -0.4380  -0.3938  -0.3913  -0.3646
    -0.3639  -0.3582  -0.3576  -0.3573  -0.3449  -0.3417  -0.3334  -0.3328
    -0.3289  -0.3232  -0.3154  -0.3097  -0.2990  -0.2877  -0.2774  -0.2676
    -0.2671  -0.2608  -0.2516  -0.2487  -0.2409  -0.2303  -0.2237  -0.2232
    -0.2091  -0.1970  -0.1933  -0.1893  -0.1764  -0.1755  -0.1673  -0.1661
    -0.1626  -0.1600  -0.1517  -0.1263  -0.1170  -0.1070  -0.0976  -0.0768
    -0.0727  -0.0594  -0.0558  -0.0540  -0.0419  -0.0357  -0.0318  -0.0296
    -0.0261  -0.0212  -0.0108  -0.0090  -0.0039  -0.0008   0.0019   0.0102
     0.0187   0.0219   0.0227   0.0355   0.0368   0.0407   0.0515   0.0519
     0.0553   0.0563   0.0611   0.0702   0.0833   0.0838   0.0951   0.0967
     0.1034   0.1134   0.1192   0.1213   0.1297   0.1340   0.1455   0.1477
     0.1515   0.1592   0.1654   0.1741   0.1769   0.1819   0.1846   0.1882
     0.1933   0.1945   0.1975   0.2051   0.2124   0.2181   0.2369   0.2436
     0.2480   0.2587   0.2621   0.2710   0.2735   0.2748   0.2832   0.2878
     0.2899   0.2925   0.2944   0.3042   0.3103   0.3161   0.3226   0.3300
     0.3329   0.3369   0.3371   0.3411   0.3577   0.3585   0.3620   0.3665
     0.3773   0.3843   0.3850   0.3913   0.4058   0.4074   0.4187   0.4271
     0.4345   0.4476   0.4512   0.4610   0.4679   0.4730   0.4761   0.4781
     0.4861   0.5002   0.5226   0.5286   0.5389   0.5436   0.5569   0.5650
     0.5709   0.5981   0.6156   0.6293   0.6370   0.6405   0.6470   0.6508
     0.6597   0.6661   0.6734   0.6736   0.6887   0.6967   0.6997   0.7109
     0.7112   0.7185   0.7201   0.7202   0.7270   0.7290   0.7335   0.7435
     0.7444   0.7454   0.7575   0.7608   0.7651   0.7709   0.7740   0.7804
     0.7804   0.7872   0.7893   0.7937   0.7939   0.7964   0.8011   0.8075
     0.8154   0.8174   0.8202   0.8286   0.8294   0.8309   0.8323   0.8346
     0.8371   0.8415   0.8421   0.8447   0.8499   0.8611   0.8663   0.8799
     0.8962   0.8985   0.9065   0.9090   0.9126   0.9166   0.9216   0.9219
     0.9325   0.9340   0.9378   0.9404   0.9416   0.9461   0.9493   0.9494
     0.9682   0.9745   0.9840   0.9901   0.9932   0.9937   1.0025   1.0040
     1.0072   1.0078   1.0104   1.0144   1.0225   1.0276   1.0371   1.0374
     1.0403   1.0413   1.0585   1.0836   1.0928   1.0951   1.1056   1.1157
     1.1242   1.1341   1.1516   1.1533   1.1572   1.1651   1.1685   1.1701
     1.1740   1.1745   1.1780   1.1822   1.1877   1.1942   1.1993   1.1994
     1.2042   1.2069   1.2098   1.2147   1.2169   1.2235   1.2245   1.2254
     1.2258   1.2269   1.2292   1.2306   1.2383   1.2399   1.2434   1.2469
     1.2480   1.2541   1.2542   1.2608   1.2630   1.2651   1.2675   1.2758
     1.2795   1.2833   1.2840   1.2864   1.2943   1.2990   1.3018   1.3031
     1.3103   1.3267   1.3281   1.3350   1.3507   1.3573   1.3680   1.3718
     1.3810   1.3874   1.3889   1.3902   1.3945   1.3957   1.4048   1.4143
     1.4162   1.4267   1.4388   1.4411   1.4427   1.4450   1.4533   1.4546
     1.4609   1.4613   1.4635   1.4680   1.4697   1.4732   1.4753   1.4765
     1.4820   1.4846   1.4868   1.4910   1.4945   1.4995   1.5030   1.5101
     1.5163   1.5198   1.5218   1.5248   1.5256   1.5357   1.5359   1.5409
     1.5478   1.5531   1.5569   1.5614   1.5657   1.5663   1.5696   1.5734
     1.5751   1.5798   1.5850   1.5884   1.5936   1.5962   1.6045   1.6052
     1.6109   1.6120   1.6207   1.6307   1.6360   1.6375   1.6397   1.6407
     1.6478   1.6524   1.6551   1.6574   1.6675   1.6734   1.6821   1.6832
     1.6897   1.6899   1.6910   1.7020   1.7036   1.7101   1.7135   1.7137
     1.7147   1.7223   1.7238   1.7357   1.7469   1.7477   1.7484   1.7628
     1.7705   1.7747   1.7793   1.7811   1.7831   1.7880   1.7942   1.8043
     1.8089   1.8282   1.8489   1.8501   1.8538   1.8656   1.8871   1.9414
     1.9569   1.9706   1.9819   1.9976   2.0056   2.0094   2.0441   2.0518
     2.0577   2.0671   2.0686   2.0707   2.0827   2.1088   2.1139   2.1684
     2.3833   2.4085   2.4941   2.6799   2.6805   2.7026   2.7143   2.7558
     2.7627   2.8158   2.8239   2.8334   2.8449   2.8481   2.8923   2.9584
     2.9607   3.0166   3.0298   3.0395   3.0787   3.1766   3.1774   3.2547
     3.2961   3.3361   3.4201   3.4203   3.6420   3.7900   3.7986   3.8676
     3.9391   4.0897   4.2702   4.2973   4.3217   4.3658   4.4675   4.4687
     4.5241   4.5951   4.6609   4.6703   4.7742   4.8348   4.9180   4.9421
     4.9476   4.9686   5.1092   5.3704   5.4253   5.4296   5.4469   5.5934
     5.6091   5.6300   5.6713   5.7144   5.7209   5.8489   5.8981   6.0219
     6.0853   6.1163   6.2035   6.6489   6.6765   6.6835   6.7358   6.7687
     6.7966   6.8001   6.8375   6.9340   7.0591   7.1072   7.1640   7.1775
     7.2953   7.3013   7.3181   7.3315   7.3347   7.3731   7.3784   7.4099
     7.4121   7.4669   7.4740   7.5440   7.6046   7.6405   7.6760   7.7085
     7.8521   7.8748   7.9436   7.9846   8.0324   8.0545   8.0734   8.3687
     8.4319   8.4588   8.5050   8.5180   8.6282   8.6487   8.6629   8.6821
     8.7066   8.8177   8.8659   8.8796   8.8926   8.9202   8.9378   8.9782
     8.9889   9.0269   9.0539   9.1117   9.1190   9.1714   9.2045   9.2206
     9.2761   9.2775   9.4077   9.4314   9.4508   9.4907   9.5264   9.6138
     9.6146   9.7073   9.7108   9.7555   9.7868   9.8103   9.8573   9.8838
     9.9842  10.0021  10.0610  10.0875  10.1089

          k = 0.2500 0.0000 0.0000 (256240 PWs)   bands (ev):

   -15.9393 -15.6278 -15.4287 -14.9451 -14.6494 -14.5490 -14.4652 -14.1411
   -13.5188 -13.2689 -13.0161 -12.7436 -12.6929 -12.6237 -12.2482 -11.7589
   -11.6552 -11.6092 -11.1341 -10.5951 -10.3865 -10.3728 -10.0348  -9.7290
    -9.4750  -9.2380  -9.1078  -8.7787  -8.6782  -8.2184  -7.8232  -7.2076
    -7.1857  -7.1439  -7.0418  -6.8897  -6.4044  -6.2551  -6.0612  -5.6737
    -5.5779  -5.5553  -5.4818  -5.1911  -5.0397  -5.0264  -4.9496  -4.7386
    -4.6483  -4.5170  -4.3184  -4.2088  -4.1868  -4.1800  -4.1519  -4.0107
    -3.9541  -3.8453  -3.7253  -3.7181  -3.7105  -3.6198  -3.5594  -3.5543
    -3.5100  -3.4314  -3.3355  -3.2702  -3.2299  -3.2078  -3.1543  -3.1239
    -3.0762  -3.0272  -3.0096  -2.9353  -2.8964  -2.7915  -2.7121  -2.6753
    -2.6278  -2.5397  -2.5192  -2.5147  -2.4996  -2.4440  -2.3713  -2.3087
    -2.2619  -2.1837  -2.1417  -2.1005  -2.0619  -2.0195  -1.8382  -1.8226
    -1.8179  -1.8163  -1.7961  -1.7868  -1.7207  -1.6831  -1.6784  -1.6237
    -1.6059  -1.5867  -1.5475  -1.5239  -1.5229  -1.5176  -1.5164  -1.4985
    -1.4873  -1.4711  -1.4390  -1.4335  -1.4259  -1.4223  -1.3821  -1.3587
    -1.3514  -1.3357  -1.3196  -1.3165  -1.3056  -1.2982  -1.2937  -1.2814
    -1.2537  -1.2479  -1.2322  -1.2258  -1.2188  -1.2081  -1.1836  -1.1019
    -1.0636  -1.0605  -1.0483  -1.0353  -1.0321  -1.0055  -0.9823  -0.9713
    -0.9680  -0.9659  -0.9477  -0.9427  -0.9364  -0.9253  -0.9196  -0.9084
    -0.9035  -0.8981  -0.8885  -0.8699  -0.8626  -0.8534  -0.8525  -0.8453
    -0.8403  -0.8381  -0.8289  -0.8261  -0.8134  -0.8013  -0.7865  -0.7847
    -0.7746  -0.7720  -0.7532  -0.7476  -0.7427  -0.7380  -0.7284  -0.7228
    -0.7202  -0.7169  -0.7162  -0.7111  -0.7088  -0.7054  -0.6928  -0.6886
    -0.6761  -0.6681  -0.6523  -0.6410  -0.6353  -0.6301  -0.6280  -0.6239
    -0.6069  -0.5855  -0.5707  -0.5565  -0.5519  -0.5362  -0.5294  -0.5237
    -0.5121  -0.5071  -0.4991  -0.4948  -0.4888  -0.4881  -0.4773  -0.4617
    -0.4547  -0.4419  -0.4169  -0.3973  -0.3746  -0.3503  -0.3319  -0.3173
    -0.3022  -0.3000  -0.2989  -0.2916  -0.2856  -0.2793  -0.2764  -0.2732
    -0.2610  -0.2592  -0.2569  -0.2451  -0.2422  -0.2366  -0.2233  -0.2153
    -0.2067  -0.2018  -0.1975  -0.1909  -0.1905  -0.1847  -0.1685  -0.1555
    -0.1417  -0.1353  -0.1321  -0.1275  -0.1199  -0.1125  -0.1067  -0.1047
    -0.0910  -0.0894  -0.0798  -0.0752  -0.0686  -0.0599  -0.0532  -0.0503
    -0.0367  -0.0320  -0.0288  -0.0183  -0.0162  -0.0088  -0.0033   0.0032
     0.0118   0.0145   0.0245   0.0255   0.0366   0.0417   0.0466   0.0498
     0.0588   0.0723   0.0740   0.0822   0.0889   0.0922   0.1023   0.1078
     0.1153   0.1191   0.1217   0.1259   0.1365   0.1430   0.1450   0.1545
     0.1653   0.1797   0.1935   0.2012   0.2066   0.2133   0.2224   0.2271
     0.2335   0.2385   0.2487   0.2515   0.2518   0.2592   0.2615   0.2646
     0.2675   0.2740   0.2808   0.2818   0.2871   0.2910   0.2941   0.2968
     0.3072   0.3098   0.3154   0.3182   0.3249   0.3412   0.3441   0.3457
     0.3677   0.3701   0.3747   0.3853   0.3883   0.3912   0.3974   0.4009
     0.4039   0.4121   0.4178   0.4229   0.4392   0.4449   0.4479   0.4580
     0.4856   0.4920   0.5067   0.5156   0.5229   0.5292   0.5309   0.5345
     0.5360   0.5407   0.5424   0.5459   0.5476   0.5551   0.5610   0.5657
     0.5663   0.5701   0.5751   0.5768   0.5807   0.5816   0.5889   0.5928
     0.5958   0.6020   0.6161   0.6177   0.6249   0.6405   0.6498   0.6565
     0.6647   0.6694   0.6816   0.6866   0.6921   0.6965   0.7027   0.7061
     0.7137   0.7198   0.7265   0.7287   0.7314   0.7365   0.7442   0.7482
     0.7496   0.7544   0.7560   0.7591   0.7685   0.7807   0.7819   0.7936
     0.7966   0.7997   0.8018   0.8046   0.8133   0.8133   0.8239   0.8284
     0.8314   0.8381   0.8415   0.8454   0.8532   0.8597   0.8629   0.8662
     0.8743   0.8767   0.8799   0.8931   0.8953   0.9024   0.9048   0.9055
     0.9206   0.9244   0.9290   0.9309   0.9444   0.9475   0.9496   0.9601
     0.9659   0.9735   0.9791   0.9850   0.9943   1.0011   1.0057   1.0098
     1.0138   1.0204   1.0267   1.0331   1.0351   1.0376   1.0408   1.0520
     1.0569   1.0604   1.0680   1.0725   1.0847   1.0926   1.1006   1.1033
     1.1124   1.1186   1.1201   1.1237   1.1257   1.1328   1.1347   1.1444
     1.1458   1.1520   1.1542   1.1581   1.1609   1.1670   1.1748   1.1868
     1.1979   1.1992   1.2024   1.2102   1.2163   1.2226   1.2285   1.2295
     1.2337   1.2377   1.2416   1.2449   1.2478   1.2572   1.2576   1.2652
     1.2686   1.2710   1.2758   1.2768   1.2828   1.2835   1.2854   1.2872
     1.2932   1.2952   1.3023   1.3053   1.3103   1.3146   1.3196   1.3237
     1.3248   1.3265   1.3313   1.3336   1.3352   1.3418   1.3456   1.3486
     1.3567   1.3584   1.3649   1.3687   1.3704   1.3837   1.3877   1.3930
     1.3934   1.3988   1.3999   1.4098   1.4128   1.4247   1.4288   1.4343
     1.4398   1.4435   1.4501   1.4584   1.4614   1.4665   1.4782   1.4828
     1.4867   1.4966   1.5032   1.5043   1.5102   1.5112   1.5122   1.5184
     1.5211   1.5302   1.5330   1.5361   1.5375   1.5446   1.5463   1.5495
     1.5537   1.5577   1.5597   1.5657   1.5681   1.5696   1.5748   1.5773
     1.5835   1.5866   1.5910   1.5951   1.5984   1.6005   1.6072   1.6115
     1.6142   1.6160   1.6179   1.6229   1.6263   1.6288   1.6372   1.6394
     1.6452   1.6461   1.6511   1.6611   1.6717   1.6730   1.6771   1.6796
     1.6826   1.6897   1.6901   1.6906   1.6942   1.6993   1.7002   1.7017
     1.7072   1.7111   1.7211   1.7251   1.7272   1.7292   1.7306   1.7316
     1.7410   1.7415   1.7456   1.7484   1.7585   1.7617   1.7690   1.7706
     1.7777   1.7866   1.7927   1.8052   1.8120   1.8199   1.8374   1.8510
     1.8650   1.8758   1.8842   1.8920   1.9154   1.9716   1.9873   1.9921
     2.0222   2.0338   2.0416   2.0618   2.0950   2.1283   2.2428   2.2880
     2.3271   2.3372   2.3625   2.3778   2.4404   2.4840   2.5550   2.5786
     2.7942   2.8149   2.8213   2.8458   3.0472   3.2324   3.2410   3.2814
     3.3327   3.3644   3.4376   3.4645   3.4801   3.4822   3.5780   3.6466
     3.7439   3.7719   3.8646   3.9015   3.9075   3.9127   3.9674   3.9887
     4.0289   4.1012   4.1153   4.1917   4.2022   4.3286   4.4182   4.4765
     4.5351   4.5499   4.5573   4.6641   4.6825   4.8452   4.9379   5.0867
     5.1062   5.1641   5.3042   5.4524   5.4944   5.5207   5.5310   5.6503
     5.6578   5.7514   5.7528   5.7779   5.8276   5.8722   5.8769   5.9369
     6.0010   6.0113   6.0373   6.0893   6.1147   6.2324   6.2564   6.2972
     6.3350   6.3631   6.4423   6.6503   6.8731   6.9413   6.9672   6.9820
     7.0242   7.0438   7.0917   7.1981   7.2353   7.2794   7.2917   7.3115
     7.3869   7.4335   7.5186   7.5348   7.5457   7.5979   7.6464   7.6785
     7.8011   7.8219   7.8705   7.8713   8.0176   8.0421   8.0459   8.0960
     8.1189   8.1441   8.2823   8.2964   8.3064   8.3355   8.3457   8.4200
     8.5283   8.5629   8.6072   8.6278   8.6358   8.6503   8.7082   8.7830
     8.8730   8.8924   8.9099   8.9164   8.9672   9.1849   9.2002   9.3571
     9.3803   9.4066   9.4213   9.4282   9.4351   9.4541   9.4641   9.4793
     9.4898   9.5044   9.5109   9.5425   9.5460   9.6251   9.6355   9.7416
     9.7596   9.7743   9.9141   9.9681   9.9755

          k = 0.2500-0.2165 0.0000 (256316 PWs)   bands (ev):

   -15.9074 -15.7510 -15.1415 -15.0323 -14.9209 -14.6682 -14.1652 -13.9498
   -13.6378 -13.4547 -12.9974 -12.8319 -12.6799 -12.4640 -12.2670 -11.9306
   -11.5308 -11.3538 -10.9577 -10.7593 -10.6263 -10.4583 -10.3571  -9.7181
    -9.2280  -8.9831  -8.7405  -8.6662  -8.5132  -8.3528  -8.1043  -7.9344
    -7.8536  -6.9623  -6.3385  -6.2814  -6.2209  -6.1840  -5.9675  -5.8909
    -5.7847  -5.6447  -5.4428  -5.4186  -5.3657  -5.0525  -4.7792  -4.5687
    -4.5441  -4.4809  -4.4011  -4.3954  -4.2943  -4.0873  -4.0739  -4.0549
    -4.0057  -3.9844  -3.8129  -3.8008  -3.6699  -3.6539  -3.5734  -3.4850
    -3.4575  -3.3754  -3.3002  -3.2077  -3.1930  -3.1808  -3.1605  -3.1504
    -3.0891  -2.8837  -2.8784  -2.8545  -2.7799  -2.7737  -2.7206  -2.6549
    -2.6367  -2.6263  -2.5840  -2.5500  -2.5285  -2.4384  -2.3794  -2.2328
    -2.2228  -2.1031  -2.0708  -2.0503  -2.0207  -1.9805  -1.8981  -1.8888
    -1.8881  -1.8850  -1.8186  -1.8004  -1.7346  -1.7234  -1.7011  -1.6993
    -1.6573  -1.6387  -1.5830  -1.5494  -1.5404  -1.5297  -1.5226  -1.5091
    -1.4782  -1.4534  -1.4464  -1.4421  -1.4281  -1.4249  -1.4098  -1.4053
    -1.4004  -1.3949  -1.3911  -1.3877  -1.3586  -1.3245  -1.3080  -1.2839
    -1.2221  -1.2039  -1.1884  -1.1802  -1.0943  -1.0872  -1.0694  -1.0603
    -1.0540  -1.0503  -1.0137  -1.0076  -0.9973  -0.9900  -0.9880  -0.9803
    -0.9741  -0.9654  -0.9642  -0.9587  -0.9553  -0.9503  -0.9387  -0.9321
    -0.9288  -0.9244  -0.9083  -0.9015  -0.8917  -0.8870  -0.8660  -0.8556
    -0.8516  -0.8445  -0.8442  -0.8400  -0.8338  -0.8195  -0.8104  -0.8024
    -0.7933  -0.7758  -0.7729  -0.7592  -0.7524  -0.7437  -0.7311  -0.7287
    -0.7214  -0.7179  -0.7013  -0.6975  -0.6944  -0.6799  -0.6788  -0.6757
    -0.6686  -0.6544  -0.6512  -0.6337  -0.6269  -0.6100  -0.5972  -0.5918
    -0.5908  -0.5817  -0.5725  -0.5535  -0.5315  -0.5153  -0.5135  -0.5111
    -0.4959  -0.4801  -0.4705  -0.4665  -0.4511  -0.4481  -0.4412  -0.4273
    -0.4213  -0.4202  -0.4132  -0.4059  -0.3786  -0.3740  -0.3681  -0.3611
    -0.3373  -0.3271  -0.3078  -0.3016  -0.2942  -0.2910  -0.2864  -0.2763
    -0.2742  -0.2663  -0.2544  -0.2507  -0.2336  -0.2328  -0.2258  -0.2203
    -0.2160  -0.1988  -0.1933  -0.1858  -0.1817  -0.1689  -0.1535  -0.1490
    -0.1383  -0.1328  -0.1285  -0.1251  -0.1189  -0.1116  -0.1064  -0.1025
    -0.1008  -0.0972  -0.0952  -0.0867  -0.0820  -0.0782  -0.0722  -0.0708
    -0.0648  -0.0502  -0.0460  -0.0386  -0.0270  -0.0252  -0.0173   0.0037
     0.0082   0.0153   0.0188   0.0228   0.0294   0.0404   0.0442   0.0554
     0.0590   0.0598   0.0679   0.0880   0.0968   0.1068   0.1125   0.1328
     0.1401   0.1509   0.1577   0.1599   0.1638   0.1684   0.1714   0.1808
     0.1852   0.1900   0.2007   0.2074   0.2107   0.2112   0.2168   0.2233
     0.2294   0.2398   0.2445   0.2486   0.2562   0.2577   0.2618   0.2642
     0.2680   0.2696   0.2761   0.2797   0.2853   0.2898   0.2912   0.2979
     0.2985   0.3041   0.3073   0.3142   0.3292   0.3411   0.3427   0.3528
     0.3632   0.3709   0.3784   0.3812   0.3861   0.3884   0.3928   0.4026
     0.4045   0.4164   0.4216   0.4242   0.4287   0.4341   0.4386   0.4464
     0.4570   0.4640   0.4754   0.4811   0.4950   0.5126   0.5262   0.5315
     0.5398   0.5404   0.5422   0.5493   0.5521   0.5584   0.5633   0.5666
     0.5701   0.5748   0.5785   0.5834   0.5874   0.5969   0.5996   0.6047
     0.6086   0.6126   0.6228   0.6343   0.6404   0.6475   0.6553   0.6626
     0.6668   0.6724   0.6754   0.6869   0.6989   0.7052   0.7068   0.7132
     0.7154   0.7177   0.7268   0.7276   0.7312   0.7328   0.7393   0.7458
     0.7502   0.7575   0.7650   0.7755   0.7814   0.7841   0.7846   0.7875
     0.7962   0.8050   0.8181   0.8214   0.8346   0.8393   0.8452   0.8469
     0.8578   0.8591   0.8646   0.8693   0.8737   0.8747   0.8767   0.8866
     0.8898   0.8918   0.8977   0.9096   0.9111   0.9162   0.9190   0.9207
     0.9250   0.9290   0.9370   0.9386   0.9417   0.9447   0.9476   0.9530
     0.9564   0.9588   0.9669   0.9679   0.9714   0.9717   0.9758   0.9813
     0.9837   0.9905   1.0063   1.0121   1.0228   1.0241   1.0276   1.0355
     1.0445   1.0532   1.0564   1.0668   1.0737   1.0823   1.0876   1.0921
     1.0984   1.0996   1.1082   1.1105   1.1120   1.1126   1.1206   1.1239
     1.1277   1.1313   1.1370   1.1444   1.1493   1.1574   1.1616   1.1659
     1.1688   1.1758   1.1844   1.1886   1.1920   1.2047   1.2115   1.2193
     1.2253   1.2264   1.2293   1.2366   1.2437   1.2452   1.2486   1.2548
     1.2574   1.2682   1.2712   1.2805   1.2831   1.2894   1.2896   1.3040
     1.3084   1.3126   1.3168   1.3267   1.3329   1.3404   1.3433   1.3469
     1.3473   1.3488   1.3501   1.3530   1.3558   1.3616   1.3673   1.3719
     1.3729   1.3794   1.3813   1.3924   1.3980   1.4108   1.4114   1.4208
     1.4258   1.4293   1.4335   1.4362   1.4377   1.4417   1.4446   1.4487
     1.4505   1.4508   1.4565   1.4581   1.4596   1.4613   1.4655   1.4682
     1.4750   1.4766   1.4822   1.4840   1.4916   1.4958   1.4993   1.5087
     1.5126   1.5166   1.5200   1.5299   1.5319   1.5348   1.5383   1.5435
     1.5455   1.5524   1.5599   1.5647   1.5669   1.5718   1.5779   1.5803
     1.5836   1.5844   1.5916   1.5938   1.6020   1.6042   1.6070   1.6099
     1.6175   1.6184   1.6221   1.6309   1.6341   1.6370   1.6394   1.6437
     1.6456   1.6468   1.6476   1.6522   1.6562   1.6599   1.6653   1.6720
     1.6786   1.6805   1.6852   1.6875   1.6894   1.6966   1.6981   1.6984
     1.7025   1.7048   1.7058   1.7119   1.7139   1.7174   1.7274   1.7318
     1.7346   1.7424   1.7445   1.7486   1.7622   1.7671   1.7688   1.7742
     1.7815   1.7925   1.8022   1.8082   1.8123   1.8176   1.8331   1.8481
     1.8533   1.9001   1.9143   1.9367   1.9472   1.9914   2.0088   2.0143
     2.0340   2.0437   2.0490   2.0502   2.0782   2.1085   2.1288   2.1663
     2.2345   2.3738   2.3831   2.4083   2.4234   2.5451   2.5671   2.8337
     2.8394   2.9047   2.9828   3.0296   3.0469   3.0539   3.0573   3.0924
     3.1179   3.1887   3.2261   3.2688   3.3436   3.4068   3.5257   3.5804
     3.8110   3.8284   3.9068   3.9375   3.9660   4.0778   4.0985   4.1299
     4.1678   4.1949   4.2985   4.3331   4.3550   4.3926   4.4684   4.4895
     4.6579   4.6748   4.6975   4.7633   4.8256   4.8633   4.9413   4.9646
     5.0643   5.0963   5.1563   5.1986   5.2129   5.2901   5.3578   5.5047
     5.5415   5.5676   5.6394   5.6729   5.7094   5.7164   5.7363   5.8360
     5.9051   6.0410   6.0598   6.0909   6.1650   6.2077   6.2722   6.3307
     6.3984   6.8137   6.8570   6.9199   6.9508   6.9850   7.0026   7.0049
     7.1788   7.2029   7.2337   7.2554   7.3089   7.3574   7.3602   7.4078
     7.4221   7.4885   7.5374   7.5621   7.5660   7.6234   7.6374   7.6660
     7.6785   7.6979   7.7159   7.7297   7.7619   7.9540   8.0231   8.0467
     8.0729   8.1887   8.2297   8.2512   8.3301   8.4394   8.4469   8.5085
     8.5496   8.5599   8.6354   8.6675   8.6845   8.8297   8.8694   8.9094
     8.9151   8.9440   8.9748   9.0140   9.0206   9.0395   9.0553   9.1024
     9.1940   9.2212   9.2701   9.2835   9.2951   9.3122   9.3413   9.4075
     9.4312   9.4659   9.4994   9.5099   9.5511   9.5745   9.6153   9.6269
     9.6556   9.6680   9.7071   9.7983   9.8401

          k =-0.5000 0.0000 0.0000 (256496 PWs)   bands (ev):

   -15.6181 -15.5348 -15.2831 -15.2394 -15.2046 -14.8301 -14.1730 -14.1250
   -14.0618 -13.5649 -12.4007 -12.3635 -12.2261 -12.0506 -11.7483 -11.7015
   -11.4885 -11.4844 -11.2727 -11.0722 -10.8020 -10.4878 -10.4124  -9.9980
    -9.6216  -9.4078  -9.3902  -8.9200  -8.5576  -8.4189  -8.2551  -7.7722
    -7.0960  -7.0747  -7.0058  -6.9510  -6.6583  -5.6450  -5.5074  -5.2480
    -5.0373  -5.0140  -4.7783  -4.7678  -4.5529  -4.5236  -4.5195  -4.5032
    -4.4994  -4.4336  -4.4229  -4.3773  -4.3333  -4.2699  -4.2572  -4.1751
    -4.1221  -4.1005  -4.0179  -3.8247  -3.8236  -3.7549  -3.6980  -3.6922
    -3.6402  -3.6181  -3.6141  -3.2861  -3.2752  -3.2606  -3.1864  -3.1719
    -3.1485  -3.1396  -3.1237  -3.1080  -3.0828  -3.0579  -3.0205  -2.9420
    -2.7582  -2.6581  -2.6008  -2.5160  -2.5150  -2.4461  -2.3887  -2.3129
    -2.3024  -2.2234  -2.1898  -2.1552  -2.1004  -2.0312  -2.0302  -1.9962
    -1.9821  -1.8810  -1.8733  -1.6132  -1.6111  -1.6009  -1.5969  -1.5960
    -1.5933  -1.5516  -1.4853  -1.4707  -1.4653  -1.4515  -1.4462  -1.3929
    -1.3765  -1.3761  -1.3662  -1.3588  -1.3354  -1.3201  -1.3193  -1.3064
    -1.2414  -1.2290  -1.2249  -1.2022  -1.1897  -1.1784  -1.1582  -1.1462
    -1.1437  -1.1376  -1.1296  -1.1291  -1.0991  -1.0923  -1.0881  -1.0788
    -1.0758  -1.0664  -1.0631  -1.0582  -1.0503  -1.0472  -1.0320  -1.0312
    -1.0158  -0.9989  -0.9935  -0.9933  -0.9882  -0.9728  -0.9439  -0.9375
    -0.9330  -0.9184  -0.9160  -0.9105  -0.9006  -0.8997  -0.8901  -0.8889
    -0.8810  -0.8615  -0.8596  -0.8481  -0.8408  -0.8403  -0.8359  -0.8211
    -0.8094  -0.8004  -0.7896  -0.7828  -0.7760  -0.7720  -0.7429  -0.7308
    -0.7157  -0.7126  -0.7073  -0.7004  -0.7003  -0.6935  -0.6922  -0.6855
    -0.6693  -0.6683  -0.6608  -0.6581  -0.6560  -0.6488  -0.6455  -0.6323
    -0.6297  -0.6261  -0.6218  -0.5687  -0.5655  -0.5571  -0.5537  -0.5371
    -0.5063  -0.5042  -0.4942  -0.4566  -0.4451  -0.4377  -0.4331  -0.4301
    -0.4094  -0.4067  -0.4046  -0.3918  -0.3874  -0.3831  -0.3778  -0.3769
    -0.3727  -0.3654  -0.3550  -0.3406  -0.3398  -0.3261  -0.3213  -0.3087
    -0.3063  -0.2942  -0.2885  -0.2821  -0.2299  -0.2273  -0.2162  -0.1879
    -0.1865  -0.1779  -0.1729  -0.1660  -0.1561  -0.1533  -0.1469  -0.1383
    -0.1364  -0.1323  -0.1264  -0.1147  -0.1146  -0.1113  -0.1092  -0.1060
    -0.1036  -0.0914  -0.0688  -0.0585  -0.0560  -0.0477  -0.0431  -0.0346
    -0.0271  -0.0220  -0.0182  -0.0140  -0.0066  -0.0002   0.0133   0.0170
     0.0207   0.0398   0.0427   0.0505   0.0588   0.0694   0.0736   0.0818
     0.0908   0.1193   0.1209   0.1253   0.1305   0.1383   0.1404   0.1481
     0.1504   0.1605   0.1674   0.1748   0.1756   0.1847   0.2118   0.2210
     0.2305   0.2326   0.2398   0.2414   0.2416   0.2417   0.2471   0.2477
     0.2549   0.2593   0.2706   0.2729   0.2729   0.2941   0.3159   0.3221
     0.3236   0.3277   0.3330   0.3366   0.3384   0.3404   0.3453   0.3480
     0.3561   0.3591   0.3604   0.3610   0.3700   0.3717   0.3742   0.3765
     0.3769   0.3785   0.3806   0.3848   0.3898   0.3901   0.3920   0.3961
     0.4013   0.4038   0.4049   0.4085   0.4111   0.4137   0.4160   0.4208
     0.4320   0.4389   0.4566   0.4643   0.4733   0.5097   0.5138   0.5184
     0.5365   0.5488   0.5527   0.5722   0.5760   0.5807   0.5848   0.5861
     0.5895   0.5918   0.5964   0.5986   0.6002   0.6022   0.6077   0.6097
     0.6126   0.6138   0.6209   0.6252   0.6256   0.6321   0.6336   0.6393
     0.6455   0.6485   0.6490   0.6529   0.6593   0.6598   0.6760   0.6814
     0.6830   0.6898   0.6986   0.7091   0.7127   0.7378   0.7492   0.7534
     0.7535   0.7598   0.7635   0.7636   0.7730   0.7760   0.7777   0.7785
     0.7815   0.7848   0.7879   0.7923   0.7950   0.7990   0.8027   0.8047
     0.8054   0.8148   0.8234   0.8288   0.8333   0.8371   0.8407   0.8482
     0.8552   0.8579   0.8596   0.8702   0.8721   0.8776   0.8846   0.8888
     0.8891   0.8930   0.8946   0.9033   0.9139   0.9143   0.9167   0.9183
     0.9191   0.9209   0.9287   0.9369   0.9391   0.9423   0.9508   0.9581
     0.9643   0.9695   0.9779   0.9779   0.9876   0.9971   1.0043   1.0107
     1.0188   1.0226   1.0307   1.0330   1.0477   1.0557   1.0645   1.0897
     1.0913   1.0925   1.0964   1.0981   1.0996   1.1002   1.1052   1.1122
     1.1127   1.1169   1.1247   1.1249   1.1311   1.1327   1.1379   1.1427
     1.1520   1.1534   1.1639   1.1674   1.1703   1.1765   1.1800   1.1918
     1.1964   1.2041   1.2054   1.2139   1.2144   1.2255   1.2291   1.2473
     1.2666   1.2748   1.2784   1.2812   1.2830   1.2916   1.3063   1.3130
     1.3132   1.3179   1.3193   1.3222   1.3282   1.3359   1.3443   1.3449
     1.3514   1.3572   1.3658   1.3670   1.3747   1.3751   1.3782   1.3791
     1.3818   1.3824   1.3868   1.3878   1.3908   1.3928   1.3961   1.3978
     1.4050   1.4079   1.4243   1.4331   1.4365   1.4387   1.4406   1.4460
     1.4491   1.4508   1.4667   1.4710   1.4751   1.4760   1.4836   1.4874
     1.4929   1.4935   1.5012   1.5040   1.5042   1.5061   1.5103   1.5138
     1.5169   1.5229   1.5249   1.5288   1.5402   1.5464   1.5489   1.5543
     1.5598   1.5657   1.5676   1.5739   1.5752   1.5753   1.5773   1.5804
     1.5811   1.5834   1.5852   1.5870   1.5885   1.5895   1.5926   1.5964
     1.5979   1.5999   1.6020   1.6051   1.6075   1.6111   1.6118   1.6213
     1.6221   1.6236   1.6253   1.6446   1.6457   1.6498   1.6596   1.6679
     1.6714   1.6795   1.6799   1.6822   1.6842   1.6866   1.6881   1.6898
     1.6975   1.6976   1.7051   1.7064   1.7074   1.7134   1.7139   1.7233
     1.7235   1.7278   1.7327   1.7345   1.7394   1.7455   1.7513   1.7591
     1.7642   1.7683   1.7694   1.7712   1.7723   1.7738   1.7777   1.7880
     1.8008   1.8204   1.8240   1.8302   1.8535   1.8553   1.8619   1.8677
     1.8756   1.8991   1.9123   2.2923   2.3052   2.3230   2.3264   2.4926
     2.5055   2.5273   2.5327   2.5387   2.5460   2.5527   2.5641   2.8210
     2.8554   2.9083   2.9317   3.0143   3.0300   3.0336   3.0785   3.2676
     3.2927   3.4035   3.4500   3.4612   3.5041   3.5520   3.7501   3.7871
     4.0431   4.0503   4.0518   4.0835   4.1702   4.2228   4.2306   4.3128
     4.3277   4.3514   4.4201   4.4750   4.5083   4.5245   4.6276   4.8918
     4.9287   4.9876   5.0051   5.0439   5.0729   5.0932   5.1117   5.1344
     5.1485   5.2067   5.2724   5.2735   5.2949   5.3085   5.3167   5.3556
     5.3654   5.3730   5.4260   5.4494   5.5271   5.5671   5.5777   5.7448
     5.8306   5.8514   5.9021   5.9558   6.0180   6.1257   6.1287   6.2128
     6.2540   6.2892   6.2947   6.3200   6.3448   6.3971   6.4787   6.5118
     6.5420   6.6699   6.6919   6.7390   6.9103   7.0108   7.1850   7.3177
     7.3361   7.3630   7.3802   7.4701   7.5036   7.7872   7.8350   7.8445
     7.8491   7.8545   7.8878   7.9135   7.9400   8.0431   8.0448   8.0939
     8.1179   8.1303   8.1406   8.1671   8.2183   8.2721   8.3146   8.3481
     8.3644   8.4060   8.4276   8.5179   8.5223   8.5447   8.5463   8.5587
     8.5849   8.6364   8.6497   8.9513   9.0605   9.1162   9.1198   9.1232
     9.1507   9.1536   9.1570   9.2227   9.3077   9.3095   9.3449   9.3820
     9.3850   9.4134   9.4282   9.5086   9.5176   9.6268   9.7120   9.7375
     9.7823   9.7939   9.8240   9.8631   9.8976

          k =-0.5000-0.2165 0.0000 (256328 PWs)   bands (ev):

   -15.5496 -15.5256 -15.4983 -15.2761 -14.8134 -14.7547 -14.7387 -14.2513
   -13.3617 -13.3260 -13.2135 -12.8167 -11.7287 -11.7268 -11.5848 -11.5561
   -11.3065 -11.2767 -11.1684 -11.1268 -11.0909 -11.0267 -10.9270  -9.9265
    -9.3930  -9.3348  -9.0328  -8.8201  -8.4623  -8.4192  -8.2232  -7.9010
    -7.6371  -7.4915  -7.4026  -6.4215  -5.6495  -5.6033  -5.4370  -5.1459
    -4.9656  -4.9421  -4.9259  -4.9126  -4.8808  -4.8799  -4.7952  -4.7562
    -4.7415  -4.5146  -4.4737  -4.2476  -4.1537  -4.0715  -4.0542  -4.0033
    -3.9302  -3.9234  -3.9211  -3.9021  -3.8947  -3.8089  -3.6520  -3.6446
    -3.6210  -3.5962  -3.5876  -3.4967  -3.4372  -3.3627  -3.3337  -3.3221
    -3.2965  -3.2383  -3.2148  -3.1783  -3.0649  -2.8523  -2.8109  -2.7790
    -2.6917  -2.6795  -2.5922  -2.3069  -2.3056  -2.2996  -2.2955  -2.2566
    -2.2529  -2.2318  -2.2205  -2.1310  -2.1060  -2.0683  -1.9373  -1.9007
    -1.8602  -1.8214  -1.7901  -1.7829  -1.7639  -1.7437  -1.7310  -1.7051
    -1.6749  -1.6237  -1.5592  -1.5356  -1.5322  -1.5097  -1.4996  -1.4296
    -1.4144  -1.3621  -1.3516  -1.2539  -1.2329  -1.2278  -1.2249  -1.2190
    -1.2155  -1.2138  -1.2057  -1.1841  -1.1803  -1.1795  -1.1682  -1.1665
    -1.1451  -1.1358  -1.1264  -1.1244  -1.1154  -1.1107  -1.1057  -1.1035
    -1.1008  -1.0938  -1.0884  -1.0866  -1.0731  -1.0656  -1.0599  -1.0463
    -1.0361  -1.0299  -1.0127  -0.9775  -0.9739  -0.9562  -0.9366  -0.9324
    -0.9265  -0.9243  -0.9139  -0.9107  -0.9074  -0.8895  -0.8861  -0.8808
    -0.8616  -0.8597  -0.8566  -0.8540  -0.8523  -0.8508  -0.8443  -0.8141
    -0.8134  -0.8029  -0.7973  -0.7938  -0.7929  -0.7873  -0.7802  -0.7752
    -0.7743  -0.7674  -0.7646  -0.7562  -0.7537  -0.7513  -0.7501  -0.7108
    -0.7096  -0.6617  -0.6394  -0.6246  -0.6052  -0.5974  -0.5877  -0.5817
    -0.5786  -0.5722  -0.5711  -0.5409  -0.5269  -0.5153  -0.5088  -0.5026
    -0.4935  -0.4883  -0.4821  -0.4815  -0.4806  -0.4683  -0.4446  -0.4346
    -0.4313  -0.4289  -0.4251  -0.4241  -0.4223  -0.4196  -0.4145  -0.4128
    -0.4047  -0.3902  -0.3800  -0.3405  -0.3359  -0.3098  -0.3073  -0.3057
    -0.3004  -0.2905  -0.2726  -0.2475  -0.2422  -0.2286  -0.2279  -0.2068
    -0.2065  -0.1923  -0.1829  -0.1781  -0.1725  -0.1671  -0.1602  -0.1564
    -0.1509  -0.1380  -0.1350  -0.1338  -0.1311  -0.1187  -0.1116  -0.1113
    -0.0917  -0.0848  -0.0751  -0.0650  -0.0445  -0.0263  -0.0145  -0.0136
     0.0030   0.0065   0.0069   0.0163   0.0178   0.0230   0.0255   0.0286
     0.0317   0.0533   0.0866   0.0923   0.1005   0.1082   0.1106   0.1109
     0.1138   0.1181   0.1219   0.1257   0.1276   0.1320   0.1468   0.1490
     0.1511   0.1557   0.1594   0.1640   0.1650   0.1720   0.1766   0.1791
     0.1883   0.1930   0.2026   0.2299   0.2320   0.2439   0.2567   0.2673
     0.2737   0.2833   0.2881   0.2960   0.3150   0.3159   0.3273   0.3292
     0.3357   0.3364   0.3373   0.3403   0.3459   0.3522   0.3526   0.3576
     0.3599   0.3606   0.3620   0.3656   0.3660   0.3682   0.3702   0.3751
     0.3792   0.3815   0.3869   0.3887   0.3928   0.3947   0.4023   0.4023
     0.4085   0.4089   0.4152   0.4175   0.4216   0.4339   0.4465   0.4526
     0.4632   0.4666   0.4790   0.4806   0.4857   0.4858   0.5096   0.5228
     0.5295   0.5460   0.5540   0.5641   0.5725   0.5732   0.5837   0.5845
     0.5868   0.5944   0.5992   0.6046   0.6051   0.6069   0.6089   0.6096
[...]
     atom   41 type  1   force =     0.00000000   -0.00056299    0.00004488
     atom   42 type  1   force =    -0.00008572   -0.00070492   -0.00055908
     atom   43 type  1   force =     0.00000000   -0.00048465    0.00014066
     atom   44 type  1   force =     0.00008572   -0.00070492   -0.00055908
     atom   45 type  1   force =     0.00000000    0.00048645    0.00073386
     atom   46 type  1   force =     0.00003505    0.00087245    0.00022363
     atom   47 type  1   force =     0.00000000    0.00036468    0.00012670
     atom   48 type  1   force =    -0.00003505    0.00087245    0.00022363
     atom   49 type  1   force =     0.00000000    0.00043459    0.00055026
     atom   50 type  1   force =    -0.00042642    0.00011982    0.00023463
     atom   51 type  1   force =     0.00000000    0.00077260    0.00058275
     atom   52 type  1   force =     0.00042642    0.00011982    0.00023463
     atom   53 type  1   force =     0.00000000    0.00046275   -0.00097461
     atom   54 type  1   force =     0.00023824    0.00046136   -0.00047097
     atom   55 type  1   force =     0.00000000    0.00008995    0.00040449
     atom   56 type  1   force =    -0.00023824    0.00046136   -0.00047097
     atom   57 type  1   force =     0.00000000    0.00098039   -0.00001968
     atom   58 type  1   force =    -0.00000954    0.00031163    0.00040577
     atom   59 type  1   force =     0.00000000    0.00067266    0.00013994
     atom   60 type  1   force =     0.00000954    0.00031163    0.00040577
     atom   61 type  1   force =     0.00000000   -0.00023572   -0.00031671
     atom   62 type  1   force =     0.00016868   -0.00011961    0.00077942
     atom   63 type  1   force =     0.00000000   -0.00084773   -0.00006989
     atom   64 type  1   force =    -0.00016868   -0.00011961    0.00077942
     atom   65 type  1   force =     0.00000000   -0.00024975    0.00088558
     atom   66 type  1   force =    -0.00000074   -0.00045398   -0.00177776
     atom   67 type  1   force =     0.00000000   -0.00094200   -0.00009018
     atom   68 type  1   force =     0.00000074   -0.00045398   -0.00177776
     atom   69 type  1   force =     0.00000000    0.00182440    0.00085390
     atom   70 type  1   force =    -0.00130122   -0.00078033   -0.00067453
     atom   71 type  1   force =     0.00000000    0.00075555   -0.00132447
     atom   72 type  1   force =     0.00130122   -0.00078033   -0.00067453
     atom   73 type  1   force =     0.00000000    0.00018974   -0.00081460
     atom   74 type  1   force =    -0.00013393    0.00002367    0.00063516
     atom   75 type  1   force =     0.00000000   -0.00007891   -0.00002620
     atom   76 type  1   force =     0.00013393    0.00002367    0.00063516
     atom   77 type  1   force =     0.00000000    0.00054863    0.00076338
     atom   78 type  1   force =    -0.00004313    0.00044739   -0.00029429
     atom   79 type  1   force =     0.00000000   -0.00006002    0.00074644
     atom   80 type  1   force =     0.00004313    0.00044739   -0.00029429
     atom   81 type  1   force =     0.00000000    0.00066814    0.00065746
     atom   82 type  1   force =     0.00035766    0.00073097   -0.00008735
     atom   83 type  1   force =     0.00000000   -0.00049728    0.00083787
     atom   84 type  1   force =    -0.00035766    0.00073097   -0.00008735
     atom   85 type  1   force =     0.00000000   -0.00224778   -0.00133701
     atom   86 type  1   force =    -0.00005455   -0.00038084    0.00082367
     atom   87 type  1   force =     0.00000000   -0.00080765   -0.00184387
     atom   88 type  1   force =     0.00005455   -0.00038084    0.00082367
     atom   89 type  1   force =     0.00000000    0.00218509    0.00068469
     atom   90 type  1   force =     0.00147795   -0.00083569   -0.00032152
     atom   91 type  1   force =     0.00000000    0.00381449   -0.00932564
     atom   92 type  1   force =    -0.00147795   -0.00083569   -0.00032152
     atom   93 type  1   force =     0.00000000   -0.00058170   -0.00085212
     atom   94 type  1   force =     0.00056787    0.00086933   -0.00027774
     atom   95 type  1   force =     0.00000000    0.00124267    0.00047028
     atom   96 type  1   force =    -0.00056787    0.00086933   -0.00027774
     atom   97 type  1   force =     0.00000000    0.00041869    0.00004638
     atom   98 type  1   force =    -0.00010553   -0.00026925    0.00084357
     atom   99 type  1   force =     0.00000000    0.00003732    0.00044884
     atom  100 type  1   force =     0.00010553   -0.00026925    0.00084357
     atom  101 type  2   force =     0.00000000    0.00143248    0.00224611
     atom  102 type  2   force =     0.00000000    0.00024678    0.00244666
     atom  103 type  2   force =     0.00068528    0.00149771    0.00127001
     atom  104 type  2   force =     0.00001064   -0.00195250   -0.00150470
     atom  105 type  2   force =     0.00089348    0.00096860    0.00126368
     atom  106 type  2   force =     0.00083525   -0.00101733   -0.00026608
     atom  107 type  2   force =     0.00000000   -0.00001257    0.00208502
     atom  108 type  2   force =     0.00000000    0.00074206   -0.00032654
     atom  109 type  2   force =    -0.00089348    0.00096860    0.00126368
     atom  110 type  2   force =    -0.00083525   -0.00101733   -0.00026608
     atom  111 type  2   force =    -0.00068528    0.00149771    0.00127001
     atom  112 type  2   force =    -0.00001064   -0.00195250   -0.00150470
     atom  113 type  2   force =     0.00000000   -0.00359586   -0.00040792
     atom  114 type  2   force =     0.00000000    0.00141914   -0.00018394
     atom  115 type  2   force =    -0.00124192   -0.00294779   -0.00113208
     atom  116 type  2   force =    -0.00033075   -0.00226720    0.00243766
     atom  117 type  2   force =    -0.00023736   -0.00645443    0.00040717
     atom  118 type  2   force =     0.00072574   -0.00300689    0.00416898
     atom  119 type  2   force =     0.00000000   -0.00348590   -0.00586665
     atom  120 type  2   force =     0.00023736   -0.00645443    0.00040717
     atom  121 type  2   force =    -0.00072574   -0.00300689    0.00416898
     atom  122 type  2   force =     0.00124192   -0.00294779   -0.00113208
     atom  123 type  2   force =     0.00033075   -0.00226720    0.00243766
     atom  124 type  2   force =     0.00000000   -0.00272369   -0.00158780
     atom  125 type  2   force =     0.00000000    0.00162977   -0.00127339
     atom  126 type  2   force =     0.00047564    0.00332979   -0.00396799
     atom  127 type  2   force =    -0.00072586   -0.00001441   -0.00115949
     atom  128 type  2   force =    -0.00069262    0.00224641   -0.00101052
     atom  129 type  2   force =     0.00043899    0.00148217   -0.00060455
     atom  130 type  2   force =     0.00000000    0.00631628   -0.00104063
     atom  131 type  2   force =     0.00000000    0.00207999    0.00136809
     atom  132 type  2   force =     0.00069262    0.00224641   -0.00101052
     atom  133 type  2   force =    -0.00043899    0.00148217   -0.00060455
     atom  134 type  2   force =    -0.00047564    0.00332979   -0.00396799
     atom  135 type  2   force =     0.00072586   -0.00001441   -0.00115949
     atom  136 type  2   force =     0.00000000   -0.00179439   -0.00103095
     atom  137 type  2   force =     0.00000000    0.00108969   -0.00095620
     atom  138 type  2   force =     0.00007112   -0.00179280    0.00169172
     atom  139 type  2   force =     0.00093506    0.00114465    0.00102160
     atom  140 type  2   force =    -0.00069373   -0.00006188    0.00099649
     atom  141 type  2   force =    -0.00129308   -0.00064484   -0.00110134
     atom  142 type  2   force =     0.00000000   -0.00249094    0.00233201
     atom  143 type  2   force =     0.00000000   -0.00070759   -0.00075183
     atom  144 type  2   force =     0.00069373   -0.00006188    0.00099649
     atom  145 type  2   force =     0.00129308   -0.00064484   -0.00110134
     atom  146 type  2   force =    -0.00007112   -0.00179280    0.00169172
     atom  147 type  2   force =    -0.00093506    0.00114465    0.00102160

     Total force =     0.025820     Total SCF correction =     0.000177

     number of scf cycles    =  13
     number of bfgs steps    =  12

     energy   old            =  -12687.1363966716 Ry
     energy   new            =  -12687.1374041652 Ry

     CASE: energy  _new < energy  _old

     new trust radius        =       0.0374329817 bohr
     new conv_thr            =       0.0000000100 Ry


ATOMIC_POSITIONS (angstrom)
Cu       0.000000000   0.036258555   7.419868985
Cu       1.844015480   1.722644256   7.402979785
Cu       3.689036991   0.041059377   7.424810837
Cu       5.534058503   1.722644256   7.402979785
Cu       0.000000000   3.411751635   7.385898060
Cu       1.843864694   5.107236104   7.377163976
Cu       3.689036991   3.408076008   7.381538330
Cu       5.534209289   5.107236104   7.377163976
Cu       0.000000000   6.810503245   7.382400725
Cu       1.845032537   8.513760659   7.383666389
Cu       3.689036991   6.809574029   7.379939951
Cu       5.533041446   8.513760659   7.383666389
Cu       0.000000000  10.217235162   7.387338471
Cu       1.843505499  11.930456461   7.396418898
Cu       3.689036991  10.219940293   7.387694614
Cu       5.534568484  11.930456461   7.396418898
Cu       0.000000000  13.657434324   7.407923398
Cu       1.844777419  15.377877749   7.421173167
Cu       3.689036991  13.653230414   7.407641191
Cu       5.533296564  15.377877749   7.421173167
Cu       0.000000000   1.742572626   9.253090704
Cu       1.845752882   0.055339533   9.268023098
Cu       3.689036991   1.750703118   9.263158681
Cu       5.532321101   0.055339533   9.268023098
Cu       0.000000000   5.112546003   9.219334710
Cu       1.845423549   3.426238349   9.232850835
Cu       3.689036991   5.108533113   9.216959948
Cu       5.532650434   3.426238349   9.232850835
Cu       0.000000000   8.513903847   9.210181712
Cu       1.846633143   6.806250446   9.211303296
Cu       3.689036991   8.511269972   9.212007071
Cu       5.531440840   6.806250446   9.211303296
Cu       0.000000000  11.927184585   9.213321469
Cu       1.846775859  10.217326174   9.217323270
Cu       3.689036991  11.926219187   9.220850695
Cu       5.531298124  10.217326174   9.217323270
Cu       0.000000000  15.376703587   9.245734040
Cu       1.844875944  13.648469897   9.220845997
Cu       3.689036991  15.373861468   9.240635162
Cu       5.533198039  13.648469897   9.220845997
Cu       0.000000000   0.062515524  11.102548155
Cu       1.848917585   1.779315745  11.134817051
Cu       3.689036991   0.053484700  11.097499262
Cu       5.529156398   1.779315745  11.134817051
Cu       0.000000000   3.440563843  11.097281911
Cu       1.845269572   5.120586902  11.081779159
Cu       3.689036991   3.459312326  11.118167423
Cu       5.532804411   5.120586902  11.081779159
Cu       0.000000000   6.821231467  11.038533906
Cu       1.852459490   8.512851542  11.049776419
Cu       3.689036991   6.813326850  11.056512660
Cu       5.525614493   8.512851542  11.049776419
Cu       0.000000000  10.222510684  11.049217911
Cu       1.846802587  11.936277532  11.044024899
Cu       3.689036991  10.205257222  11.064233147
Cu       5.531271396  11.936277532  11.044024899
Cu       0.000000000  13.644931592  11.043240804
Cu       1.842994644  15.366562089  11.067306564
Cu       3.689036991  13.654280810  11.049559274
Cu       5.535079339  15.366562089  11.067306564
Cu       0.000000000   1.787968530  12.965310172
Cu       1.840613578   0.034639956  12.919170625
Cu       3.689036991   1.761911815  12.961128437
Cu       5.537460405   0.034639956  12.919170625
Cu       0.000000000   5.153244453  12.891920474
Cu       1.868134003   3.512794614  13.031508981
Cu       3.689036991   5.203606475  12.982828439
Cu       5.509939980   3.512794614  13.031508981
Cu       0.000000000   8.529448429  12.876047179
Cu       1.860978645   6.838910811  12.901447522
Cu       3.689036991   8.454947060  12.971458811
Cu       5.517095338   6.838910811  12.901447522
Cu       0.000000000  11.953522385  12.867846198
Cu       1.852215437  10.233966172  12.862167509
Cu       3.689036991  11.951878391  12.867006090
Cu       5.525858546  10.233966172  12.862167509
Cu       0.000000000  15.342666725  12.887911471
Cu       1.846553256  13.649526182  12.884889473
Cu       3.689036991  15.362973095  12.901772141
Cu       5.531520727  13.649526182  12.884889473
Cu       0.000000000  -0.028149815  14.717390334
Cu       1.781806407   1.720191623  14.755433677
Cu       3.689036991   0.039461681  14.736246781
Cu       5.596267576   1.720191623  14.755433677
Cu       0.000000000   3.584722532  14.756058520
Cu       2.021548050   5.304537569  14.836660075
Cu       3.689036991   3.370744149  14.834141956
Cu       5.356525933   5.304537569  14.836660075
Cu       0.000000000   6.806004317  14.644360561
Cu       1.806838454   8.574450812  14.679351396
Cu       3.689036991   7.104682697  15.665718226
Cu       5.571235529   8.574450812  14.679351396
Cu       0.000000000  10.290092063  14.670354435
Cu       1.843360673  11.948158974  14.692910237
Cu       3.689036991  10.258398354  14.645195705
Cu       5.534713310  11.948158974  14.692910237
Cu       0.000000000  13.646537751  14.719467059
Cu       1.860347328  15.341192001  14.713189542
Cu       3.689036991  13.631892616  14.705660659
Cu       5.517726655  15.341192001  14.713189542
C        0.000000000   0.662154776  17.706907435
C        0.000000000   2.083235997  17.736177851
C        1.226643409  -0.054159754  17.688588389
C        1.231109027   2.791811182  17.684262186
C        2.456727788   0.653876282  17.659258321
C        2.456984270   2.074019938  17.621024194
C        3.689036991  -0.057218018  17.641318593
C        3.689036991   2.784789650  17.514617105
C        4.921346194   0.653876282  17.659258321
C        4.921089712   2.074019938  17.621024194
C        6.151430574  -0.054159754  17.688588389
C        6.146964956   2.791811182  17.684262186
C        0.000000000   4.912779971  17.545277426
C        0.000000000   6.329086455  17.412361001
C        1.229886293   4.204536012  17.564976784
C        1.213350636   7.031092254  17.173247672
C        2.431696701   4.892754772  17.192378477
C        2.319330719   6.239490112  16.745468535
C        3.689036991   4.186742743  17.251700982
C        4.946377281   4.892754772  17.192378477
C        5.058743263   6.239490112  16.745468535
C        6.148187690   4.204536012  17.564976784
C        6.164723347   7.031092254  17.173247672
C        0.000000000   9.170406822  17.412854042
C        0.000000000  10.587524059  17.574166083
C        1.225490461   8.464151195  17.244940982
C        1.230718987  11.297054305  17.642439097
C        2.463302682   9.187621857  17.284030101
C        2.457761795  10.588317344  17.572150307
C        3.689036991   8.579891267  16.956058234
C        3.689036991  11.295716693  17.628425190
C        4.914771300   9.187621857  17.284030101
C        4.920312187  10.588317344  17.572150307
C        6.152583522   8.464151195  17.244940982
C        6.147354996  11.297054305  17.642439097
C        0.000000000  13.427605967  17.692410612
C        0.000000000  14.848791711  17.695099679
C        1.231580584  12.718329715  17.690538872
C        1.227141399  15.562663598  17.683950087
C        2.459971123  13.430034310  17.692909563
C        2.458645204  14.851813988  17.685379140
C        3.689036991  12.716687574  17.685981760
C        3.689036991  15.561579217  17.676350428
C        4.918102859  13.430034310  17.692909563
C        4.919428778  14.851813988  17.685379140
C        6.146493399  12.718329715  17.690538872
C        6.150932584  15.562663598  17.683950087



     Writing output data file gc.save
     Check: negative starting charge=   -0.001845
     NEW-OLD atomic charge density approx. for the potential
     Check: negative starting charge=   -0.001842

     negative rho (up, down):  1.933E-03 0.000E+00

     total cpu time spent up to now is    50856.9 secs

     Self-consistent Calculation

     iteration #  1     ecut=    80.00 Ry     beta=0.70
     Davidson diagonalization with overlap
     ethr =  1.00E-06,  avg # of iterations =  6.8

     negative rho (up, down):  1.428E-03 0.000E+00

     total cpu time spent up to now is    51418.5 secs

     total energy              =  -12687.13716618 Ry
     Harris-Foulkes estimate   =  -12687.14416954 Ry
     estimated scf accuracy    <       0.05739841 Ry

     iteration #  2     ecut=    80.00 Ry     beta=0.70
     Davidson diagonalization with overlap
     ethr =  4.46E-06,  avg # of iterations =  2.8

     negative rho (up, down):  1.271E-03 0.000E+00

     total cpu time spent up to now is    51624.1 secs

     total energy              =  -12687.13744214 Ry
     Harris-Foulkes estimate   =  -12687.14020962 Ry
     estimated scf accuracy    <       0.01280379 Ry

     iteration #  3     ecut=    80.00 Ry     beta=0.70
     Davidson diagonalization with overlap
     ethr =  9.94E-07,  avg # of iterations =  3.3

     negative rho (up, down):  1.090E-03 0.000E+00

     total cpu time spent up to now is    51832.5 secs

     total energy              =  -12687.13773835 Ry
     Harris-Foulkes estimate   =  -12687.13923178 Ry
     estimated scf accuracy    <       0.01347277 Ry

     iteration #  4     ecut=    80.00 Ry     beta=0.70
     Davidson diagonalization with overlap
     ethr =  9.94E-07,  avg # of iterations =  5.2

     negative rho (up, down):  1.048E-03 0.000E+00

     total cpu time spent up to now is    52058.6 secs

     total energy              =  -12687.13839545 Ry
     Harris-Foulkes estimate   =  -12687.13844190 Ry
     estimated scf accuracy    <       0.00070917 Ry

     iteration #  5     ecut=    80.00 Ry     beta=0.70
     Davidson diagonalization with overlap
     ethr =  5.51E-08,  avg # of iterations =  3.0

     negative rho (up, down):  1.034E-03 0.000E+00

     total cpu time spent up to now is    52263.5 secs

     total energy              =  -12687.13839610 Ry
     Harris-Foulkes estimate   =  -12687.13843595 Ry
     estimated scf accuracy    <       0.00052576 Ry

     iteration #  6     ecut=    80.00 Ry     beta=0.70
     Davidson diagonalization with overlap
     ethr =  4.08E-08,  avg # of iterations =  1.3

     negative rho (up, down):  1.098E-03 0.000E+00

     total cpu time spent up to now is    52442.8 secs

     total energy              =  -12687.13840249 Ry
     Harris-Foulkes estimate   =  -12687.13841430 Ry
     estimated scf accuracy    <       0.00022625 Ry

     iteration #  7     ecut=    80.00 Ry     beta=0.70
     Davidson diagonalization with overlap
     ethr =  1.76E-08,  avg # of iterations =  1.5

     negative rho (up, down):  1.199E-03 0.000E+00

     total cpu time spent up to now is    52616.5 secs

     total energy              =  -12687.13841285 Ry
     Harris-Foulkes estimate   =  -12687.13841174 Ry
     estimated scf accuracy    <       0.00003600 Ry

     iteration #  8     ecut=    80.00 Ry     beta=0.70
     Davidson diagonalization with overlap
     ethr =  2.80E-09,  avg # of iterations =  2.2

     negative rho (up, down):  1.334E-03 0.000E+00

     total cpu time spent up to now is    52798.5 secs

     total energy              =  -12687.13841702 Ry
     Harris-Foulkes estimate   =  -12687.13841518 Ry
     estimated scf accuracy    <       0.00000876 Ry

     iteration #  9     ecut=    80.00 Ry     beta=0.70
     Davidson diagonalization with overlap
     ethr =  6.80E-10,  avg # of iterations =  2.8

     negative rho (up, down):  1.561E-03 0.000E+00

     total cpu time spent up to now is    52991.6 secs

     total energy              =  -12687.13841818 Ry
     Harris-Foulkes estimate   =  -12687.13841764 Ry
     estimated scf accuracy    <       0.00000334 Ry

     iteration # 10     ecut=    80.00 Ry     beta=0.70
     Davidson diagonalization with overlap
