
     Program PWSCF v.5.4.0 starts on  8Mar2017 at 20:42:47 

     This program is part of the open-source Quantum ESPRESSO suite
     for quantum simulation of materials; please cite
         "P. Giannozzi et al., J. Phys.:Condens. Matter 21 395502 (2009);
          URL http://www.quantum-espresso.org", 
     in publications or presentations arising from this work. More details at
     http://www.quantum-espresso.org/quote

     Parallel version (MPI & OpenMP), running on      56 processor cores
     Number of MPI processes:                56
     Threads/MPI process:                     1
     R & G space division:  proc/nbgrp/npool/nimage =      56
     Waiting for input...
     Reading input from standard input

     Current dimensions of program PWSCF are:
     Max number of different atomic species (ntypx) = 10
     Max number of k-points (npk) =  40000
     Max angular momentum in pseudopotentials (lmaxx) =  3

     -------------------------------------
     Parameters for Dispersion Correction:
     -------------------------------------
       atom      VdW radius       C_6     

        Cu         2.952        374.666
        C          2.744         60.710

     Subspace diagonalization in iterative solution of the eigenvalue problem:
     one sub-group per band group will be used
     scalapack distributed-memory algorithm (size of sub-group:  5*  5 procs)

 
     Parallelization info
     --------------------
     sticks:   dense  smooth     PW     G-vecs:    dense   smooth      PW
     Min         204     204     54                36612    36612    4962
     Max         205     205     55                36617    36617    4968
     Sum       11433   11433   3039              2050409  2050409  278033
 


     bravais-lattice index     =            0
     lattice parameter (alat)  =      13.9425  a.u.
     unit-cell volume          =   21209.0878 (a.u.)^3
     number of atoms/cell      =          147
     number of atomic types    =            2
     number of electrons       =      1288.00
     number of Kohn-Sham states=          773
     kinetic-energy cutoff     =      80.0000  Ry
     charge density cutoff     =     320.0000  Ry
     convergence threshold     =      1.0E-08
     mixing beta               =       0.7000
     number of iterations used =            8  local-TF  mixing
     Exchange-correlation      =  SLA  PW   PBX  PBC ( 1  4  3  4 0 0)
     nstep                     =           50


     celldm(1)=  13.942539  celldm(2)=   0.000000  celldm(3)=   0.000000
     celldm(4)=   0.000000  celldm(5)=   0.000000  celldm(6)=   0.000000

     crystal axes: (cart. coord. in units of alat)
               a(1) = (   1.000000   0.000000   0.000000 )  
               a(2) = (   0.000000   2.309401   0.000000 )  
               a(3) = (   0.000000   0.000000   3.388418 )  

     reciprocal axes: (cart. coord. in units 2 pi/alat)
               b(1) = (  1.000000  0.000000  0.000000 )  
               b(2) = (  0.000000  0.433013  0.000000 )  
               b(3) = (  0.000000  0.000000  0.295123 )  


     PseudoPot. # 1 for Cu read from file:
     /home/549/hxw549/Short/pseudopotentials/Cu.pbe-n-van_ak.UPF
     MD5 check sum: 601f7c30f7467666bec936e0661ce3e1
     Pseudo is Ultrasoft + core correction, Zval = 11.0
     Generated by new atomic code, or converted to UPF format
     Using radial grid of  867 points,  6 beta functions with: 
                l(1) =   0
                l(2) =   0
                l(3) =   1
                l(4) =   1
                l(5) =   2
                l(6) =   2
     Q(r) pseudized with  8 coefficients,  rinner =    1.400   1.400   1.400
                                                       1.400   1.400

     PseudoPot. # 2 for C  read from file:
     /home/549/hxw549/Short/pseudopotentials/C.pbe-mt_gipaw.UPF
     MD5 check sum: 5ac2f21f2c440b14befe521540822c15
     Pseudo is Norm-conserving, Zval =  4.0
     Generated by new atomic code, or converted to UPF format
     Using radial grid of 1073 points,  1 beta functions with: 
                l(1) =   0

     atomic species   valence    mass     pseudopotential
        Cu            11.00    63.54600     Cu( 1.00)
        C              4.00    12.01070     C ( 1.00)

      2 Sym. Ops. (no inversion) found



   Cartesian axes

     site n.     atom                  positions (alat units)
         1           Cu  tau(   1) = (   0.0000000   0.0000567   0.9971194  )
         2           Cu  tau(   2) = (   0.2499927   0.2309760   0.9972946  )
         3           Cu  tau(   3) = (   0.5000000   0.0000313   0.9971490  )
         4           Cu  tau(   4) = (   0.7500073   0.2309760   0.9972946  )
         5           Cu  tau(   5) = (   0.0000000   0.4618437   0.9973425  )
         6           Cu  tau(   6) = (   0.2499840   0.6927701   0.9971914  )
         7           Cu  tau(   7) = (   0.5000000   0.4618722   0.9973119  )
         8           Cu  tau(   8) = (   0.7500160   0.6927701   0.9971914  )
         9           Cu  tau(   9) = (   0.0000000   0.9237521   0.9970621  )
        10           Cu  tau(  10) = (   0.2500157   1.1547420   0.9971373  )
        11           Cu  tau(  11) = (   0.5000000   0.9237453   0.9970727  )
        12           Cu  tau(  12) = (   0.7499843   1.1547420   0.9971373  )
        13           Cu  tau(  13) = (   0.0000000   1.3856555   0.9972830  )
        14           Cu  tau(  14) = (   0.2500029   1.6165618   0.9973242  )
        15           Cu  tau(  15) = (   0.5000000   1.3857014   0.9973005  )
        16           Cu  tau(  16) = (   0.7499971   1.6165618   0.9973242  )
        17           Cu  tau(  17) = (   0.0000000   1.8474941   0.9971969  )
        18           Cu  tau(  18) = (   0.2500043   2.0784518   0.9970745  )
        19           Cu  tau(  19) = (   0.5000000   1.8474499   0.9971773  )
        20           Cu  tau(  20) = (   0.7499957   2.0784518   0.9970745  )
        21           Cu  tau(  21) = (   0.0000000   0.2308065   1.2457643  )
        22           Cu  tau(  22) = (   0.2499892  -0.0001010   1.2455764  )
        23           Cu  tau(  23) = (   0.5000000   0.2308938   1.2456746  )
        24           Cu  tau(  24) = (   0.7500108  -0.0001010   1.2455764  )
        25           Cu  tau(  25) = (   0.0000000   0.6929786   1.2456406  )
        26           Cu  tau(  26) = (   0.2499874   0.4619293   1.2457459  )
        27           Cu  tau(  27) = (   0.5000000   0.6929012   1.2456074  )
        28           Cu  tau(  28) = (   0.7500126   0.4619293   1.2457459  )
        29           Cu  tau(  29) = (   0.0000000   1.1546142   1.2455676  )
        30           Cu  tau(  30) = (   0.2499981   0.9237849   1.2455149  )
        31           Cu  tau(  31) = (   0.5000000   1.1545763   1.2455800  )
        32           Cu  tau(  32) = (   0.7500019   0.9237849   1.2455149  )
        33           Cu  tau(  33) = (   0.0000000   1.6166029   1.2456910  )
        34           Cu  tau(  34) = (   0.2500161   1.3855492   1.2457134  )
        35           Cu  tau(  35) = (   0.5000000   1.6166555   1.2458019  )
        36           Cu  tau(  36) = (   0.7499839   1.3855492   1.2457134  )
        37           Cu  tau(  37) = (   0.0000000   2.0784993   1.2455162  )
        38           Cu  tau(  38) = (   0.2500161   1.8476387   1.2456210  )
        39           Cu  tau(  39) = (   0.5000000   2.0784755   1.2455152  )
        40           Cu  tau(  40) = (   0.7499839   1.8476387   1.2456210  )
        41           Cu  tau(  41) = (   0.0000000  -0.0003182   1.4954305  )
        42           Cu  tau(  42) = (   0.2500224   0.2307186   1.4951678  )
        43           Cu  tau(  43) = (   0.5000000  -0.0002059   1.4952775  )
        44           Cu  tau(  44) = (   0.7499776   0.2307186   1.4951678  )
        45           Cu  tau(  45) = (   0.0000000   0.4620254   1.4950571  )
        46           Cu  tau(  46) = (   0.2500339   0.6931225   1.4952807  )
        47           Cu  tau(  47) = (   0.5000000   0.4619896   1.4952144  )
        48           Cu  tau(  48) = (   0.7499661   0.6931225   1.4952807  )
        49           Cu  tau(  49) = (   0.0000000   0.9238798   1.4954544  )
        50           Cu  tau(  50) = (   0.2499708   1.1544329   1.4953374  )
        51           Cu  tau(  51) = (   0.5000000   0.9237633   1.4954072  )
        52           Cu  tau(  52) = (   0.7500292   1.1544329   1.4953374  )
        53           Cu  tau(  53) = (   0.0000000   1.3854453   1.4952066  )
        54           Cu  tau(  54) = (   0.2499861   1.6167017   1.4951298  )
        55           Cu  tau(  55) = (   0.5000000   1.3853760   1.4951346  )
        56           Cu  tau(  56) = (   0.7500139   1.6167017   1.4951298  )
        57           Cu  tau(  57) = (   0.0000000   1.8477718   1.4952308  )
        58           Cu  tau(  58) = (   0.2499930   2.0785254   1.4954090  )
        59           Cu  tau(  59) = (   0.5000000   1.8478762   1.4953503  )
        60           Cu  tau(  60) = (   0.7500070   2.0785254   1.4954090  )
        61           Cu  tau(  61) = (   0.0000000   0.2310733   1.7440777  )
        62           Cu  tau(  62) = (   0.2501089  -0.0001294   1.7450479  )
        63           Cu  tau(  63) = (   0.5000000   0.2306045   1.7445985  )
        64           Cu  tau(  64) = (   0.7498911  -0.0001294   1.7450479  )
        65           Cu  tau(  65) = (   0.0000000   0.6927994   1.7446059  )
        66           Cu  tau(  66) = (   0.2502918   0.4619532   1.7441197  )
        67           Cu  tau(  67) = (   0.5000000   0.6931011   1.7451318  )
        68           Cu  tau(  68) = (   0.7497082   0.4619532   1.7441197  )
        69           Cu  tau(  69) = (   0.0000000   1.1545789   1.7453503  )
        70           Cu  tau(  70) = (   0.2500220   0.9237908   1.7453835  )
        71           Cu  tau(  71) = (   0.5000000   1.1545999   1.7449118  )
        72           Cu  tau(  72) = (   0.7499780   0.9237908   1.7453835  )
        73           Cu  tau(  73) = (   0.0000000   1.6167791   1.7444075  )
        74           Cu  tau(  74) = (   0.2497438   1.3855115   1.7442733  )
        75           Cu  tau(  75) = (   0.5000000   1.6164906   1.7439233  )
        76           Cu  tau(  76) = (   0.7502562   1.3855115   1.7442733  )
        77           Cu  tau(  77) = (   0.0000000   2.0782721   1.7455014  )
        78           Cu  tau(  78) = (   0.2498426   1.8476765   1.7447807  )
        79           Cu  tau(  79) = (   0.5000000   2.0787016   1.7454002  )
        80           Cu  tau(  80) = (   0.7501574   1.8476765   1.7447807  )
        81           Cu  tau(  81) = (   0.0000000   0.0010732   1.9906710  )
        82           Cu  tau(  82) = (   0.2503054   0.2314650   1.9904877  )
        83           Cu  tau(  83) = (   0.5000000   0.0001335   1.9924670  )
        84           Cu  tau(  84) = (   0.7496946   0.2314650   1.9904877  )
        85           Cu  tau(  85) = (   0.0000000   0.4618379   1.9901778  )
        86           Cu  tau(  86) = (   0.2508441   0.6921348   1.9910282  )
        87           Cu  tau(  87) = (   0.5000000   0.4613052   1.9913358  )
        88           Cu  tau(  88) = (   0.7491559   0.6921348   1.9910282  )
        89           Cu  tau(  89) = (   0.0000000   0.9224699   1.9915918  )
        90           Cu  tau(  90) = (   0.2491275   1.1552920   1.9912642  )
        91           Cu  tau(  91) = (   0.5000000   0.9247757   1.9920574  )
        92           Cu  tau(  92) = (   0.7508725   1.1552920   1.9912642  )
        93           Cu  tau(  93) = (   0.0000000   1.3865904   1.9916296  )
        94           Cu  tau(  94) = (   0.2499532   1.6162906   1.9903050  )
        95           Cu  tau(  95) = (   0.5000000   1.3858063   1.9901800  )
        96           Cu  tau(  96) = (   0.7500468   1.6162906   1.9903050  )
        97           Cu  tau(  97) = (   0.0000000   1.8468318   1.9923212  )
        98           Cu  tau(  98) = (   0.2497561   2.0783183   1.9915134  )
        99           Cu  tau(  99) = (   0.5000000   1.8467805   1.9903847  )
       100           Cu  tau( 100) = (   0.7502439   2.0783183   1.9915134  )
       101           C   tau( 101) = (   0.0000000   0.0962962   2.3888871  )
       102           C   tau( 102) = (   0.0000000   0.2886925   2.3900713  )
       103           C   tau( 103) = (   0.1666323   0.0000435   2.3878440  )
       104           C   tau( 104) = (   0.1664900   0.3848966   2.3886743  )
       105           C   tau( 105) = (   0.3331238   0.0962174   2.3860158  )
       106           C   tau( 106) = (   0.3331280   0.2886629   2.3856823  )
       107           C   tau( 107) = (   0.5000000  -0.0000818   2.3845687  )
       108           C   tau( 108) = (   0.5000000   0.3849277   2.3842391  )
       109           C   tau( 109) = (   0.6668762   0.0962174   2.3860158  )
       110           C   tau( 110) = (   0.6668720   0.2886629   2.3856823  )
       111           C   tau( 111) = (   0.8333677   0.0000435   2.3878440  )
       112           C   tau( 112) = (   0.8335100   0.3848966   2.3886743  )
       113           C   tau( 113) = (   0.0000000   0.6735163   2.3892509  )
       114           C   tau( 114) = (   0.0000000   0.8659398   2.3870960  )
       115           C   tau( 115) = (   0.1664759   0.5773226   2.3882842  )
       116           C   tau( 116) = (   0.1667428   0.9622141   2.3870264  )
       117           C   tau( 117) = (   0.3332094   0.6735984   2.3858047  )
       118           C   tau( 118) = (   0.3332031   0.8660537   2.3866148  )
       119           C   tau( 119) = (   0.5000000   0.5773685   2.3848465  )
       120           C   tau( 120) = (   0.6667906   0.6735984   2.3858047  )
       121           C   tau( 121) = (   0.6667969   0.8660537   2.3866148  )
       122           C   tau( 122) = (   0.8335241   0.5773226   2.3882842  )
       123           C   tau( 123) = (   0.8332572   0.9622141   2.3870264  )
       124           C   tau( 124) = (   0.0000000   1.2508867   2.3852683  )
       125           C   tau( 125) = (   0.0000000   1.4433300   2.3840871  )
       126           C   tau( 126) = (   0.1667360   1.1546708   2.3859697  )
       127           C   tau( 127) = (   0.1668939   1.5396104   2.3857176  )
       128           C   tau( 128) = (   0.3335095   1.2509657   2.3878953  )
       129           C   tau( 129) = (   0.3334866   1.4433958   2.3886602  )
       130           C   tau( 130) = (   0.5000000   1.1547731   2.3885512  )
       131           C   tau( 131) = (   0.5000000   1.5396099   2.3901428  )
       132           C   tau( 132) = (   0.6664905   1.2509657   2.3878953  )
       133           C   tau( 133) = (   0.6665134   1.4433958   2.3886602  )
       134           C   tau( 134) = (   0.8332640   1.1546708   2.3859697  )
       135           C   tau( 135) = (   0.8331061   1.5396104   2.3857176  )
       136           C   tau( 136) = (   0.0000000   1.8283510   2.3842019  )
       137           C   tau( 137) = (   0.0000000   2.0207949   2.3863399  )
       138           C   tau( 138) = (   0.1668959   1.7320513   2.3858703  )
       139           C   tau( 139) = (   0.1666186   2.1169980   2.3865340  )
       140           C   tau( 140) = (   0.3334155   1.8282368   2.3882160  )
       141           C   tau( 141) = (   0.3334352   2.0206763   2.3869561  )
       142           C   tau( 142) = (   0.5000000   1.7319961   2.3895398  )
       143           C   tau( 143) = (   0.5000000   2.1168754   2.3870198  )
       144           C   tau( 144) = (   0.6665845   1.8282368   2.3882160  )
       145           C   tau( 145) = (   0.6665648   2.0206763   2.3869561  )
       146           C   tau( 146) = (   0.8331041   1.7320513   2.3858703  )
       147           C   tau( 147) = (   0.8333814   2.1169980   2.3865340  )

     number of k points=     6  gaussian smearing, width (Ry)=  0.1000
                       cart. coord. in units 2pi/alat
        k(    1) = (   0.0000000   0.0000000   0.0000000), wk =   0.2500000
        k(    2) = (   0.0000000  -0.2165064   0.0000000), wk =   0.2500000
        k(    3) = (   0.2500000   0.0000000   0.0000000), wk =   0.5000000
        k(    4) = (   0.2500000  -0.2165064   0.0000000), wk =   0.5000000
        k(    5) = (  -0.5000000   0.0000000   0.0000000), wk =   0.2500000
        k(    6) = (  -0.5000000  -0.2165064   0.0000000), wk =   0.2500000

     Dense  grid:  2050409 G-vectors     FFT dimensions: (  80, 192, 270)

     Largest allocated arrays     est. size (Mb)     dimensions
        Kohn-Sham Wavefunctions        54.30 Mb     (    4604,  773)
        NL pseudopotentials           129.75 Mb     (    4604, 1847)
        Each V/rho on FFT grid          1.17 Mb     (   76800)
        Each G-vector array             0.28 Mb     (   36616)
        G-vector shells                 0.14 Mb     (   17932)
     Largest temporary arrays     est. size (Mb)     dimensions
        Auxiliary wavefunctions       217.22 Mb     (    4604, 3092)
        Each subspace H/S matrix        5.83 Mb     (     618,  618)
        Each <psi_i|beta_j> matrix     21.79 Mb     (    1847,  773)
        Arrays for rho mixing           9.38 Mb     (   76800,    8)

     Initial potential from superposition of free atoms
     Check: negative starting charge=   -0.001842

     starting charge 1263.31751, renormalised to 1288.00000

     negative rho (up, down):  1.878E-03 0.000E+00
     Starting wfc are 1276 randomized atomic wfcs

     total cpu time spent up to now is      105.0 secs

     Self-consistent Calculation

     iteration #  1     ecut=    80.00 Ry     beta=0.70
     Davidson diagonalization with overlap
     c_bands:  5 eigenvalues not converged
     ethr =  1.00E-04,  avg # of iterations = 20.8

     negative rho (up, down):  2.921E+01 0.000E+00

     total cpu time spent up to now is     1844.7 secs

     total energy              =   -9224.89827548 Ry
     Harris-Foulkes estimate   =  -16970.04078403 Ry
     estimated scf accuracy    <  175924.36121209 Ry

     iteration #  2     ecut=    80.00 Ry     beta=0.70
     Davidson diagonalization with overlap
     ethr =  1.00E-02,  avg # of iterations = 10.8

     negative rho (up, down):  2.946E+01 0.000E+00

     total cpu time spent up to now is     2768.6 secs

     total energy              =  -12555.92092572 Ry
     Harris-Foulkes estimate   =  -13551.48684823 Ry
     estimated scf accuracy    <   11982.95344011 Ry

     iteration #  3     ecut=    80.00 Ry     beta=0.70
     Davidson diagonalization with overlap
     ethr =  1.00E-02,  avg # of iterations =  6.7

     negative rho (up, down):  3.326E+01 0.000E+00

     total cpu time spent up to now is     3324.1 secs

     total energy              =  -12636.28473323 Ry
     Harris-Foulkes estimate   =  -13239.80395123 Ry
     estimated scf accuracy    <    8872.33974287 Ry

     iteration #  4     ecut=    80.00 Ry     beta=0.70
     Davidson diagonalization with overlap
     ethr =  1.00E-02,  avg # of iterations =  7.0

     negative rho (up, down):  2.282E+01 0.000E+00

     total cpu time spent up to now is     3920.8 secs

     total energy              =  -12845.45502051 Ry
     Harris-Foulkes estimate   =  -13038.65068324 Ry
     estimated scf accuracy    <     669.21312331 Ry

     iteration #  5     ecut=    80.00 Ry     beta=0.70
     Davidson diagonalization with overlap
     ethr =  1.00E-02,  avg # of iterations =  2.0

     negative rho (up, down):  1.969E+01 0.000E+00

     total cpu time spent up to now is     4177.3 secs

     total energy              =  -12855.30478383 Ry
     Harris-Foulkes estimate   =  -12903.52441931 Ry
     estimated scf accuracy    <    1092.71605265 Ry

     iteration #  6     ecut=    80.00 Ry     beta=0.70
     Davidson diagonalization with overlap
     ethr =  1.00E-02,  avg # of iterations =  2.0

     negative rho (up, down):  1.360E+01 0.000E+00

     total cpu time spent up to now is     4355.6 secs

     total energy              =  -12833.10478693 Ry
     Harris-Foulkes estimate   =  -12883.45496654 Ry
     estimated scf accuracy    <     461.82588893 Ry

     iteration #  7     ecut=    80.00 Ry     beta=0.70
     Davidson diagonalization with overlap
     ethr =  1.00E-02,  avg # of iterations =  2.0

     negative rho (up, down):  8.454E+00 0.000E+00

     total cpu time spent up to now is     4535.3 secs

     total energy              =  -12801.23823303 Ry
     Harris-Foulkes estimate   =  -12846.31316624 Ry
     estimated scf accuracy    <     394.75226747 Ry

     iteration #  8     ecut=    80.00 Ry     beta=0.70
     Davidson diagonalization with overlap
     ethr =  1.00E-02,  avg # of iterations =  1.0

     negative rho (up, down):  6.579E+00 0.000E+00

     total cpu time spent up to now is     4699.9 secs

     total energy              =  -12779.11778739 Ry
     Harris-Foulkes estimate   =  -12806.25129775 Ry
     estimated scf accuracy    <     329.92170034 Ry

     iteration #  9     ecut=    80.00 Ry     beta=0.70
     Davidson diagonalization with overlap
     ethr =  1.00E-02,  avg # of iterations =  1.7

     negative rho (up, down):  5.376E+00 0.000E+00

     total cpu time spent up to now is     4872.2 secs

     total energy              =  -12767.47412397 Ry
     Harris-Foulkes estimate   =  -12786.58259301 Ry
     estimated scf accuracy    <     307.63687674 Ry

     iteration # 10     ecut=    80.00 Ry     beta=0.70
     Davidson diagonalization with overlap
     ethr =  1.00E-02,  avg # of iterations =  1.8

     negative rho (up, down):  1.477E+00 0.000E+00

     total cpu time spent up to now is     5045.8 secs

     total energy              =  -12717.93682253 Ry
     Harris-Foulkes estimate   =  -12772.57131300 Ry
     estimated scf accuracy    <     159.48384712 Ry

     iteration # 11     ecut=    80.00 Ry     beta=0.70
     Davidson diagonalization with overlap
     ethr =  1.00E-02,  avg # of iterations =  3.2

     negative rho (up, down):  1.876E+00 0.000E+00

     total cpu time spent up to now is     5239.3 secs

     total energy              =  -12713.00779244 Ry
     Harris-Foulkes estimate   =  -12726.50024030 Ry
     estimated scf accuracy    <     116.79994655 Ry

     iteration # 12     ecut=    80.00 Ry     beta=0.70
     Davidson diagonalization with overlap
     ethr =  9.07E-03,  avg # of iterations =  2.2

     negative rho (up, down):  3.963E+00 0.000E+00

     total cpu time spent up to now is     5418.5 secs

     total energy              =  -12704.08973614 Ry
     Harris-Foulkes estimate   =  -12718.52766286 Ry
     estimated scf accuracy    <      69.81607834 Ry

     iteration # 13     ecut=    80.00 Ry     beta=0.70
     Davidson diagonalization with overlap
     ethr =  5.42E-03,  avg # of iterations =  1.3

     negative rho (up, down):  9.518E+00 0.000E+00

     total cpu time spent up to now is     5586.5 secs

     total energy              =  -12698.58705667 Ry
     Harris-Foulkes estimate   =  -12706.38114901 Ry
     estimated scf accuracy    <      45.84544268 Ry

     iteration # 14     ecut=    80.00 Ry     beta=0.70
     Davidson diagonalization with overlap
     ethr =  3.56E-03,  avg # of iterations =  1.8

     negative rho (up, down):  7.958E+00 0.000E+00

     total cpu time spent up to now is     5761.9 secs

     total energy              =  -12696.26472820 Ry
     Harris-Foulkes estimate   =  -12700.45284727 Ry
     estimated scf accuracy    <      30.38650804 Ry

     iteration # 15     ecut=    80.00 Ry     beta=0.70
     Davidson diagonalization with overlap
     ethr =  2.36E-03,  avg # of iterations =  1.7

     negative rho (up, down):  5.096E+00 0.000E+00

     total cpu time spent up to now is     5934.0 secs

     total energy              =  -12694.43702939 Ry
     Harris-Foulkes estimate   =  -12697.37122303 Ry
     estimated scf accuracy    <      16.10268047 Ry

     iteration # 16     ecut=    80.00 Ry     beta=0.70
     Davidson diagonalization with overlap
     ethr =  1.25E-03,  avg # of iterations =  4.5

     negative rho (up, down):  4.601E+00 0.000E+00

     total cpu time spent up to now is     6139.2 secs

     total energy              =  -12694.07025042 Ry
     Harris-Foulkes estimate   =  -12695.15870833 Ry
     estimated scf accuracy    <      13.63779941 Ry

     iteration # 17     ecut=    80.00 Ry     beta=0.70
     Davidson diagonalization with overlap
     ethr =  1.06E-03,  avg # of iterations =  1.3

     negative rho (up, down):  2.534E+00 0.000E+00

     total cpu time spent up to now is     6307.6 secs

     total energy              =  -12692.12706724 Ry
     Harris-Foulkes estimate   =  -12694.26478963 Ry
     estimated scf accuracy    <       9.42789709 Ry

     iteration # 18     ecut=    80.00 Ry     beta=0.70
     Davidson diagonalization with overlap
     ethr =  7.32E-04,  avg # of iterations =  4.2

     negative rho (up, down):  2.521E+00 0.000E+00

     total cpu time spent up to now is     6508.2 secs

     total energy              =  -12691.49198268 Ry
     Harris-Foulkes estimate   =  -12692.34714049 Ry
     estimated scf accuracy    <       8.69025834 Ry

     iteration # 19     ecut=    80.00 Ry     beta=0.70
     Davidson diagonalization with overlap
     ethr =  6.75E-04,  avg # of iterations =  7.8

     negative rho (up, down):  1.557E+00 0.000E+00

     total cpu time spent up to now is     6757.3 secs

     total energy              =  -12690.20651975 Ry
     Harris-Foulkes estimate   =  -12691.61179504 Ry
     estimated scf accuracy    <       6.45662026 Ry

     iteration # 20     ecut=    80.00 Ry     beta=0.70
     Davidson diagonalization with overlap
     ethr =  5.01E-04,  avg # of iterations =  1.0

     negative rho (up, down):  8.519E-01 0.000E+00

     total cpu time spent up to now is     6922.5 secs

     total energy              =  -12688.33392350 Ry
     Harris-Foulkes estimate   =  -12690.32318550 Ry
     estimated scf accuracy    <       6.81877111 Ry

     iteration # 21     ecut=    80.00 Ry     beta=0.70
     Davidson diagonalization with overlap
     ethr =  5.01E-04,  avg # of iterations =  1.0

     negative rho (up, down):  8.229E-01 0.000E+00

     total cpu time spent up to now is     7088.4 secs

     total energy              =  -12687.60433948 Ry
     Harris-Foulkes estimate   =  -12688.52964443 Ry
     estimated scf accuracy    <       4.29987737 Ry

     iteration # 22     ecut=    80.00 Ry     beta=0.70
     Davidson diagonalization with overlap
     ethr =  3.34E-04,  avg # of iterations =  2.8

     negative rho (up, down):  7.972E-01 0.000E+00

     total cpu time spent up to now is     7276.1 secs

     total energy              =  -12687.31318032 Ry
     Harris-Foulkes estimate   =  -12687.76028625 Ry
     estimated scf accuracy    <       3.31307531 Ry

     iteration # 23     ecut=    80.00 Ry     beta=0.70
     Davidson diagonalization with overlap
     ethr =  2.57E-04,  avg # of iterations =  9.5

     negative rho (up, down):  1.088E+00 0.000E+00

     total cpu time spent up to now is     7540.2 secs

     total energy              =  -12687.07375832 Ry
     Harris-Foulkes estimate   =  -12687.42405678 Ry
     estimated scf accuracy    <       1.70336541 Ry

     iteration # 24     ecut=    80.00 Ry     beta=0.70
     Davidson diagonalization with overlap
     ethr =  1.32E-04,  avg # of iterations =  8.7

     negative rho (up, down):  1.067E+00 0.000E+00

     total cpu time spent up to now is     7819.5 secs

     total energy              =  -12687.01745821 Ry
     Harris-Foulkes estimate   =  -12687.13899167 Ry
     estimated scf accuracy    <       0.81961889 Ry

     iteration # 25     ecut=    80.00 Ry     beta=0.70
     Davidson diagonalization with overlap
     ethr =  6.36E-05,  avg # of iterations =  7.7

     negative rho (up, down):  7.276E-01 0.000E+00

     total cpu time spent up to now is     8076.3 secs

     total energy              =  -12687.00273088 Ry
     Harris-Foulkes estimate   =  -12687.05977567 Ry
     estimated scf accuracy    <       0.25271711 Ry

     iteration # 26     ecut=    80.00 Ry     beta=0.70
     Davidson diagonalization with overlap
     ethr =  1.96E-05,  avg # of iterations =  7.7

     negative rho (up, down):  4.751E-01 0.000E+00

     total cpu time spent up to now is     8339.2 secs

     total energy              =  -12687.00286494 Ry
     Harris-Foulkes estimate   =  -12687.01899885 Ry
     estimated scf accuracy    <       0.09238996 Ry

     iteration # 27     ecut=    80.00 Ry     beta=0.70
     Davidson diagonalization with overlap
     ethr =  7.17E-06,  avg # of iterations =  8.3

     negative rho (up, down):  2.970E-01 0.000E+00

     total cpu time spent up to now is     8603.3 secs

     total energy              =  -12686.99708590 Ry
     Harris-Foulkes estimate   =  -12687.00598483 Ry
     estimated scf accuracy    <       0.03398107 Ry

     iteration # 28     ecut=    80.00 Ry     beta=0.70
     Davidson diagonalization with overlap
     c_bands:  2 eigenvalues not converged
     c_bands:  2 eigenvalues not converged
     ethr =  2.64E-06,  avg # of iterations = 11.7

     negative rho (up, down):  1.865E-01 0.000E+00

     total cpu time spent up to now is     8926.7 secs

     total energy              =  -12686.99139144 Ry
     Harris-Foulkes estimate   =  -12686.99908053 Ry
     estimated scf accuracy    <       0.02250487 Ry

     iteration # 29     ecut=    80.00 Ry     beta=0.70
     Davidson diagonalization with overlap
     c_bands:  1 eigenvalues not converged
     ethr =  1.75E-06,  avg # of iterations =  9.7

     negative rho (up, down):  8.483E-02 0.000E+00

     total cpu time spent up to now is     9220.9 secs

     total energy              =  -12686.98679911 Ry
     Harris-Foulkes estimate   =  -12686.99285367 Ry
     estimated scf accuracy    <       0.01273716 Ry

     iteration # 30     ecut=    80.00 Ry     beta=0.70
     Davidson diagonalization with overlap
     c_bands:  3 eigenvalues not converged
     ethr =  9.89E-07,  avg # of iterations = 14.0

     negative rho (up, down):  7.016E-02 0.000E+00

     total cpu time spent up to now is     9575.3 secs

     total energy              =  -12686.98694052 Ry
     Harris-Foulkes estimate   =  -12686.98750732 Ry
     estimated scf accuracy    <       0.00426900 Ry

     iteration # 31     ecut=    80.00 Ry     beta=0.70
     Davidson diagonalization with overlap
     ethr =  3.31E-07,  avg # of iterations =  6.5

     negative rho (up, down):  5.110E-02 0.000E+00

     total cpu time spent up to now is     9816.9 secs

     total energy              =  -12686.98630913 Ry
     Harris-Foulkes estimate   =  -12686.98717039 Ry
     estimated scf accuracy    <       0.00239011 Ry

     iteration # 32     ecut=    80.00 Ry     beta=0.70
     Davidson diagonalization with overlap
     c_bands:  2 eigenvalues not converged
     ethr =  1.86E-07,  avg # of iterations = 11.3

     negative rho (up, down):  3.504E-02 0.000E+00

     total cpu time spent up to now is    10125.8 secs

     total energy              =  -12686.98586462 Ry
     Harris-Foulkes estimate   =  -12686.98646906 Ry
     estimated scf accuracy    <       0.00108402 Ry

     iteration # 33     ecut=    80.00 Ry     beta=0.70
     Davidson diagonalization with overlap
     c_bands:  2 eigenvalues not converged
     c_bands:  1 eigenvalues not converged
     ethr =  8.42E-08,  avg # of iterations = 11.7

     negative rho (up, down):  2.680E-02 0.000E+00

     total cpu time spent up to now is    10434.8 secs

     total energy              =  -12686.98569731 Ry
     Harris-Foulkes estimate   =  -12686.98594059 Ry
     estimated scf accuracy    <       0.00050748 Ry

     iteration # 34     ecut=    80.00 Ry     beta=0.70
     Davidson diagonalization with overlap
     ethr =  3.94E-08,  avg # of iterations =  4.8

     negative rho (up, down):  1.969E-02 0.000E+00

     total cpu time spent up to now is    10655.0 secs

     total energy              =  -12686.98557115 Ry
     Harris-Foulkes estimate   =  -12686.98573391 Ry
     estimated scf accuracy    <       0.00018050 Ry

     iteration # 35     ecut=    80.00 Ry     beta=0.70
     Davidson diagonalization with overlap
     ethr =  1.40E-08,  avg # of iterations =  4.3

     negative rho (up, down):  8.367E-03 0.000E+00

     total cpu time spent up to now is    10867.8 secs

     total energy              =  -12686.98534134 Ry
     Harris-Foulkes estimate   =  -12686.98558805 Ry
     estimated scf accuracy    <       0.00010762 Ry

     iteration # 36     ecut=    80.00 Ry     beta=0.70
     Davidson diagonalization with overlap
     ethr =  8.36E-09,  avg # of iterations =  8.3

     negative rho (up, down):  3.079E-03 0.000E+00

     total cpu time spent up to now is    11131.7 secs

     total energy              =  -12686.98526568 Ry
     Harris-Foulkes estimate   =  -12686.98534718 Ry
     estimated scf accuracy    <       0.00002236 Ry

     iteration # 37     ecut=    80.00 Ry     beta=0.70
     Davidson diagonalization with overlap
     c_bands:  1 eigenvalues not converged
     ethr =  1.74E-09,  avg # of iterations = 13.3

     negative rho (up, down):  2.185E-03 0.000E+00

     total cpu time spent up to now is    11463.0 secs

     total energy              =  -12686.98526684 Ry
     Harris-Foulkes estimate   =  -12686.98526778 Ry
     estimated scf accuracy    <       0.00000744 Ry

     iteration # 38     ecut=    80.00 Ry     beta=0.70
     Davidson diagonalization with overlap
     ethr =  5.78E-10,  avg # of iterations =  3.2

     negative rho (up, down):  2.085E-03 0.000E+00

     total cpu time spent up to now is    11659.8 secs

     total energy              =  -12686.98526855 Ry
     Harris-Foulkes estimate   =  -12686.98526743 Ry
     estimated scf accuracy    <       0.00000331 Ry

     iteration # 39     ecut=    80.00 Ry     beta=0.70
     Davidson diagonalization with overlap
     ethr =  2.57E-10,  avg # of iterations =  2.8

     negative rho (up, down):  1.814E-03 0.000E+00

     total cpu time spent up to now is    11849.3 secs

     total energy              =  -12686.98527003 Ry
     Harris-Foulkes estimate   =  -12686.98526868 Ry
     estimated scf accuracy    <       0.00000140 Ry

     iteration # 40     ecut=    80.00 Ry     beta=0.70
     Davidson diagonalization with overlap
     ethr =  1.09E-10,  avg # of iterations =  3.5

     negative rho (up, down):  1.837E-03 0.000E+00

     total cpu time spent up to now is    12054.7 secs

     total energy              =  -12686.98527048 Ry
     Harris-Foulkes estimate   =  -12686.98527015 Ry
     estimated scf accuracy    <       0.00000050 Ry

     iteration # 41     ecut=    80.00 Ry     beta=0.70
     Davidson diagonalization with overlap
     ethr =  3.89E-11,  avg # of iterations =  3.0

     negative rho (up, down):  1.890E-03 0.000E+00

     total cpu time spent up to now is    12253.5 secs

     total energy              =  -12686.98527069 Ry
     Harris-Foulkes estimate   =  -12686.98527054 Ry
     estimated scf accuracy    <       0.00000019 Ry

     iteration # 42     ecut=    80.00 Ry     beta=0.70
     Davidson diagonalization with overlap
     ethr =  1.49E-11,  avg # of iterations =  3.0

     negative rho (up, down):  1.900E-03 0.000E+00

     total cpu time spent up to now is    12457.2 secs

     total energy              =  -12686.98527071 Ry
     Harris-Foulkes estimate   =  -12686.98527070 Ry
     estimated scf accuracy    <       0.00000004 Ry

     iteration # 43     ecut=    80.00 Ry     beta=0.70
     Davidson diagonalization with overlap
     ethr =  2.88E-12,  avg # of iterations =  3.0

     negative rho (up, down):  1.913E-03 0.000E+00

     total cpu time spent up to now is    12678.3 secs

     total energy              =  -12686.98527068 Ry
     Harris-Foulkes estimate   =  -12686.98527072 Ry
     estimated scf accuracy    <       0.00000001 Ry

     iteration # 44     ecut=    80.00 Ry     beta=0.70
     Davidson diagonalization with overlap
     ethr =  1.09E-12,  avg # of iterations =  2.7

     negative rho (up, down):  1.931E-03 0.000E+00

     total cpu time spent up to now is    12862.9 secs

     End of self-consistent calculation

          k = 0.0000 0.0000 0.0000 (256287 PWs)   bands (ev):

   -16.0706 -15.7390 -15.5143 -14.5817 -14.5027 -14.1221 -14.0730 -13.8002
   -13.7697 -13.6225 -13.3589 -12.8022 -12.7863 -12.6969 -12.5778 -12.5720
   -11.8370 -10.9913 -10.9235 -10.9227 -10.7903 -10.0846  -9.6304  -9.1148
    -9.0330  -8.9869  -8.6353  -8.2537  -8.2054  -8.0159  -7.7099  -7.2256
    -7.2094  -7.1866  -7.1384  -7.1377  -6.8207  -6.6751  -6.1318  -5.7788
    -5.5857  -5.5856  -5.5196  -5.4741  -5.4334  -5.2468  -5.2423  -5.0132
    -4.9998  -4.8185  -4.6098  -4.3614  -4.3517  -4.2230  -4.0443  -4.0301
    -3.8748  -3.8144  -3.7692  -3.7480  -3.7308  -3.2398  -3.1805  -3.1675
    -3.1658  -3.0847  -3.0790  -2.9973  -2.9602  -2.9470  -2.9070  -2.8908
    -2.7694  -2.7685  -2.7663  -2.7641  -2.7036  -2.6718  -2.5607  -2.5377
    -2.5028  -2.4881  -2.4151  -2.4114  -2.3716  -2.3665  -2.3322  -2.1230
    -2.1201  -2.1156  -2.1101  -2.0464  -2.0016  -1.9538  -1.9523  -1.9518
    -1.9125  -1.9123  -1.9122  -1.9121  -1.7983  -1.7892  -1.7804  -1.7800
    -1.7800  -1.7799  -1.7201  -1.7174  -1.6228  -1.6008  -1.5421  -1.5347
    -1.4963  -1.4958  -1.4951  -1.4879  -1.4492  -1.4349  -1.4294  -1.4170
    -1.4154  -1.3740  -1.3599  -1.3512  -1.3404  -1.3227  -1.3200  -1.3177
    -1.3128  -1.2904  -1.2893  -1.2823  -1.2737  -1.2719  -1.2581  -1.1971
    -1.1906  -1.1737  -1.1214  -1.1191  -1.1160  -1.1102  -1.0763  -1.0561
    -1.0215  -1.0201  -1.0077  -0.9690  -0.9685  -0.9491  -0.9468  -0.9246
    -0.9215  -0.8656  -0.8590  -0.8479  -0.8418  -0.8363  -0.8341  -0.8083
    -0.8007  -0.7944  -0.7867  -0.7818  -0.7815  -0.7804  -0.7786  -0.7784
    -0.7736  -0.7728  -0.7627  -0.7549  -0.7129  -0.7086  -0.7002  -0.6802
    -0.6783  -0.6749  -0.6743  -0.6738  -0.6480  -0.6154  -0.6135  -0.6135
    -0.6129  -0.6122  -0.6118  -0.6111  -0.6108  -0.6098  -0.6056  -0.6056
    -0.6055  -0.6031  -0.5993  -0.5993  -0.5880  -0.5876  -0.5419  -0.5281
    -0.4958  -0.4809  -0.4467  -0.4466  -0.4403  -0.4398  -0.4159  -0.4153
    -0.3981  -0.3980  -0.3781  -0.3761  -0.3662  -0.3594  -0.3592  -0.3589
    -0.3440  -0.3217  -0.3214  -0.3191  -0.3188  -0.3185  -0.3107  -0.3098
    -0.2989  -0.2981  -0.2487  -0.2486  -0.2077  -0.1949  -0.1946  -0.1849
    -0.1832  -0.1828  -0.1795  -0.1680  -0.1674  -0.1622  -0.1617  -0.1616
    -0.1612  -0.1568  -0.1567  -0.1515  -0.1419  -0.1419  -0.1296  -0.1295
    -0.1283  -0.1077  -0.1071  -0.0565  -0.0550  -0.0521  -0.0484  -0.0482
    -0.0261  -0.0212  -0.0212  -0.0211  -0.0207  -0.0025  -0.0025   0.0001
     0.0002   0.0070   0.0234   0.0235   0.0240   0.0273   0.0294   0.0295
     0.0296   0.0320   0.0357   0.0468   0.0522   0.0524   0.0536   0.0545
     0.0610   0.0736   0.0888   0.1235   0.1255   0.1259   0.1282   0.1289
     0.1670   0.1752   0.1756   0.1774   0.1793   0.1813   0.1815   0.1821
     0.1825   0.1826   0.1988   0.2091   0.2355   0.2358   0.2361   0.2384
     0.2447   0.2649   0.2654   0.2655   0.2679   0.2714   0.2740   0.2891
     0.2894   0.2914   0.2920   0.2937   0.2949   0.3070   0.3073   0.3076
     0.3079   0.3213   0.3232   0.3238   0.3292   0.3458   0.3461   0.3790
     0.3791   0.4088   0.4092   0.4130   0.4323   0.4357   0.4519   0.4824
     0.4827   0.4831   0.4837   0.4866   0.4872   0.5157   0.5177   0.5179
     0.5184   0.5194   0.5244   0.5305   0.5310   0.5702   0.5833   0.5833
     0.5930   0.5948   0.5954   0.5957   0.6217   0.6268   0.6277   0.6279
     0.6288   0.6537   0.6584   0.6667   0.6719   0.6723   0.6770   0.6818
     0.6830   0.6847   0.6936   0.7224   0.7242   0.7402   0.7406   0.7408
     0.7410   0.7436   0.7545   0.7747   0.7760   0.7771   0.7795   0.7796
     0.7809   0.7829   0.7838   0.7841   0.7911   0.7917   0.7980   0.7990
     0.7999   0.8016   0.8075   0.8087   0.8399   0.8477   0.8479   0.8614
     0.8617   0.8932   0.8938   0.8950   0.8951   0.8965   0.8968   0.8976
     0.8979   0.9140   0.9151   0.9172   0.9232   0.9238   0.9254   0.9268
     0.9311   0.9313   0.9401   0.9421   0.9640   0.9648   0.9649   0.9660
     0.9733   0.9761   0.9857   0.9868   0.9893   0.9893   0.9902   0.9975
     0.9997   1.0005   1.0036   1.0126   1.0498   1.0502   1.0521   1.0603
     1.0621   1.0647   1.0668   1.0688   1.0695   1.0796   1.0853   1.1011
     1.1012   1.1159   1.1170   1.1201   1.1202   1.1352   1.1356   1.1433
     1.1437   1.1446   1.1462   1.1536   1.1665   1.1816   1.1825   1.1840
     1.1858   1.1876   1.1878   1.2056   1.2128   1.2157   1.2223   1.2302
     1.2305   1.2408   1.2526   1.2543   1.2571   1.2582   1.2597   1.2633
     1.2683   1.2720   1.2729   1.2731   1.2749   1.2761   1.2792   1.2852
     1.2855   1.2950   1.3085   1.3096   1.3105   1.3135   1.3145   1.3184
     1.3498   1.3503   1.3530   1.3537   1.3556   1.3571   1.3581   1.3606
     1.3606   1.3606   1.3609   1.3627   1.3681   1.3708   1.3784   1.3786
     1.3934   1.4066   1.4255   1.4283   1.4421   1.4460   1.4475   1.4480
     1.4498   1.4499   1.4532   1.4678   1.4824   1.4848   1.4849   1.4854
     1.4869   1.4880   1.4909   1.4917   1.4920   1.4992   1.5019   1.5182
     1.5194   1.5207   1.5211   1.5216   1.5225   1.5231   1.5243   1.5385
     1.5405   1.5410   1.5431   1.5495   1.5546   1.5553   1.5556   1.5564
     1.5621   1.5672   1.5683   1.5730   1.5864   1.5994   1.6003   1.6005
     1.6032   1.6061   1.6077   1.6156   1.6233   1.6282   1.6310   1.6330
     1.6380   1.6458   1.6587   1.6603   1.6606   1.6671   1.6672   1.6788
     1.6791   1.6793   1.6801   1.6802   1.6813   1.6821   1.6861   1.6870
     1.6901   1.6923   1.6942   1.7109   1.7115   1.7123   1.7125   1.7186
     1.7230   1.7240   1.7278   1.7580   1.7633   1.7650   1.7667   1.8010
     1.8022   1.8040   1.8057   1.8233   1.8238   1.8242   1.8350   1.8366
     1.8504   1.8736   1.8751   1.8758   1.8760   1.8786   1.8872   1.8873
     1.8875   2.1477   2.1984   2.2148   2.3503   2.3558   2.3892   2.4047
     2.4490   2.4499   2.4501   2.4554   2.4691   2.4709   2.4713   2.5026
     2.6438   2.6487   2.7061   2.7065   2.7104   2.7169   2.7236   2.7358
     2.9606   2.9619   2.9658   2.9716   3.3643   3.3811   3.4402   3.4500
     3.7573   3.7611   3.9791   4.0144   4.0614   4.0729   4.0885   4.0900
     4.1005   4.1409   4.1794   4.1979   4.2090   4.2253   4.2440   4.2459
     4.2481   4.2484   4.2583   4.2786   4.4066   4.4829   4.4849   4.5172
     4.5172   4.6476   4.9528   5.0051   5.2346   5.3471   5.3484   5.5435
     5.6205   5.6431   5.6551   5.8964   5.9316   5.9488   5.9744   6.0105
     6.1709   6.1771   6.5664   6.5763   6.6511   6.6596   6.7041   6.7054
     6.7117   6.7287   6.8928   6.9114   6.9216   6.9356   7.0523   7.0597
     7.0992   7.1183   7.2131   7.2900   7.2987   7.3253   7.3355   7.3692
     7.3764   7.4067   7.5967   7.6040   7.7594   7.7707   7.8712   7.8866
     7.9159   7.9273   7.9278   7.9391   7.9525   8.0698   8.3677   8.4245
     8.4488   8.4560   8.4760   8.5110   8.5223   8.5759   8.5767   8.6212
     8.6337   8.6673   8.7006   8.7710   8.7935   8.8697   8.8714   8.8817
     8.8920   8.8985   8.9218   8.9996   9.0724   9.0737   9.0803   9.0859
     9.2572   9.2700   9.3030   9.3261   9.3349   9.3373   9.3503   9.3764
     9.3850   9.4077   9.4904   9.5826   9.5912   9.8191   9.8193   9.8960
    10.0160  10.0205  10.0469  10.0539  10.2300

          k = 0.0000-0.2165 0.0000 (256176 PWs)   bands (ev):

   -16.0463 -15.8474 -15.2500 -15.0677 -14.0894 -14.0809 -13.9322 -13.9080
   -13.7434 -13.6331 -13.3322 -13.2787 -13.1771 -12.6730 -11.9118 -11.8603
   -11.8174 -11.7903 -11.5561 -10.8600 -10.0141  -9.9265  -9.8662  -9.4134
    -8.7391  -8.6468  -8.6220  -8.4561  -8.4468  -8.1014  -7.7728  -7.7254
    -7.4886  -7.0010  -6.6185  -6.5808  -6.5314  -6.4691  -6.3930  -6.2004
    -5.8767  -5.7982  -5.6458  -5.6420  -5.4162  -5.1125  -4.7731  -4.7377
    -4.7287  -4.6577  -4.5991  -4.5947  -4.4962  -4.2862  -4.2356  -4.2243
    -4.1208  -3.9185  -3.8058  -3.7493  -3.6714  -3.3025  -3.2193  -3.0647
    -3.0638  -3.0622  -3.0578  -2.9686  -2.8763  -2.8322  -2.8143  -2.7913
    -2.7893  -2.7597  -2.6694  -2.6394  -2.6051  -2.5286  -2.4883  -2.4672
    -2.4063  -2.3509  -2.3494  -2.3402  -2.3399  -2.3399  -2.3389  -2.3024
    -2.2965  -2.2682  -2.2107  -2.0648  -2.0578  -2.0145  -2.0128  -2.0056
    -2.0039  -1.9445  -1.9121  -1.9013  -1.9009  -1.8951  -1.8497  -1.7455
    -1.7454  -1.7202  -1.7201  -1.7199  -1.6629  -1.6263  -1.6188  -1.5271
    -1.5257  -1.5090  -1.5089  -1.5073  -1.5024  -1.5004  -1.4998  -1.4869
    -1.4810  -1.4805  -1.4448  -1.4185  -1.4038  -1.4034  -1.2909  -1.2792
    -1.2560  -1.2300  -1.2237  -1.2228  -1.2082  -1.1386  -1.1303  -1.1288
    -1.1285  -1.0743  -1.0738  -1.0427  -1.0366  -1.0336  -1.0327  -1.0296
    -1.0293  -1.0255  -1.0036  -0.9881  -0.9858  -0.9844  -0.9813  -0.9786
    -0.9708  -0.9597  -0.9579  -0.8988  -0.8978  -0.8934  -0.8907  -0.8895
    -0.8463  -0.8462  -0.8080  -0.8079  -0.8047  -0.8045  -0.7608  -0.7589
    -0.7543  -0.7416  -0.7409  -0.7402  -0.7350  -0.7344  -0.7314  -0.6845
    -0.6834  -0.6768  -0.6764  -0.6694  -0.6686  -0.6559  -0.6555  -0.6543
    -0.6443  -0.5866  -0.5857  -0.5838  -0.5754  -0.5753  -0.5715  -0.5688
    -0.5680  -0.5537  -0.5530  -0.5405  -0.5377  -0.5315  -0.5292  -0.5115
    -0.5112  -0.5078  -0.5021  -0.4119  -0.4115  -0.4112  -0.4110  -0.3906
    -0.3904  -0.3642  -0.3629  -0.3625  -0.3620  -0.3589  -0.3588  -0.3321
    -0.3312  -0.2990  -0.2985  -0.2976  -0.2964  -0.2938  -0.2924  -0.2919
    -0.2902  -0.2607  -0.2604  -0.2561  -0.2417  -0.2417  -0.2341  -0.2300
    -0.2047  -0.2040  -0.2040  -0.2027  -0.1923  -0.1918  -0.1914  -0.1913
    -0.1710  -0.1629  -0.1148  -0.1146  -0.1143  -0.1140  -0.0829  -0.0819
    -0.0599  -0.0597  -0.0535  -0.0512  -0.0506  -0.0493  -0.0265  -0.0260
    -0.0257  -0.0256  -0.0061  -0.0046  -0.0039  -0.0036  -0.0024  -0.0007
     0.0002   0.0004   0.0072   0.0102   0.0117   0.0174   0.0367   0.0367
     0.0385   0.0387   0.1008   0.1019   0.1019   0.1025   0.1103   0.1120
     0.1128   0.1141   0.1360   0.1361   0.1399   0.1509   0.1528   0.1550
     0.1556   0.1580   0.1584   0.1657   0.1662   0.1684   0.1685   0.1690
     0.1702   0.1720   0.1945   0.2256   0.2259   0.2296   0.2311   0.2317
     0.2475   0.2501   0.2506   0.2524   0.2547   0.2551   0.2729   0.2740
     0.2750   0.2756   0.2774   0.3015   0.3032   0.3038   0.3165   0.3186
     0.3188   0.3192   0.3201   0.3372   0.3411   0.3545   0.3546   0.3660
     0.3665   0.3777   0.3792   0.3795   0.3801   0.4230   0.4239   0.4271
     0.4280   0.4393   0.4402   0.4453   0.4458   0.4726   0.4729   0.4991
     0.5077   0.5087   0.5120   0.5438   0.5442   0.5657   0.6061   0.6266
     0.6293   0.6305   0.6309   0.6350   0.6578   0.6585   0.6591   0.6594
     0.6762   0.6984   0.6985   0.6989   0.6989   0.6994   0.7015   0.7027
     0.7097   0.7128   0.7134   0.7213   0.7234   0.7241   0.7249   0.7258
     0.7283   0.7289   0.7318   0.7603   0.7605   0.7612   0.7703   0.7706
     0.7711   0.7715   0.7773   0.7773   0.8006   0.8011   0.8017   0.8021
     0.8024   0.8030   0.8037   0.8041   0.8161   0.8253   0.8263   0.8268
     0.8274   0.8275   0.8277   0.8278   0.8288   0.8447   0.8448   0.8885
     0.8889   0.9005   0.9009   0.9079   0.9136   0.9140   0.9156   0.9184
     0.9196   0.9202   0.9235   0.9245   0.9247   0.9257   0.9260   0.9619
     0.9680   0.9681   0.9694   0.9730   0.9855   0.9856   0.9889   0.9892
     0.9911   0.9983   1.0033   1.0161   1.0188   1.0199   1.0250   1.0261
     1.0267   1.0763   1.0786   1.1217   1.1286   1.1326   1.1384   1.1406
     1.1417   1.1455   1.1482   1.1546   1.1550   1.1554   1.1615   1.1616
     1.1707   1.1716   1.1726   1.1766   1.1838   1.1845   1.1850   1.1852
     1.1868   1.1916   1.1998   1.2074   1.2074   1.2109   1.2122   1.2137
     1.2146   1.2147   1.2193   1.2214   1.2219   1.2301   1.2302   1.2346
     1.2352   1.2362   1.2368   1.2529   1.2554   1.2581   1.2698   1.2720
     1.2731   1.2749   1.2752   1.2825   1.2830   1.2837   1.2838   1.2840
     1.2842   1.3204   1.3338   1.3524   1.3694   1.3713   1.3713   1.3790
     1.3858   1.3924   1.4025   1.4070   1.4101   1.4139   1.4143   1.4279
     1.4299   1.4318   1.4374   1.4381   1.4410   1.4415   1.4427   1.4432
     1.4442   1.4466   1.4473   1.4476   1.4492   1.4544   1.4545   1.4639
     1.4701   1.4730   1.4735   1.4746   1.4747   1.4844   1.4856   1.4941
     1.5128   1.5144   1.5153   1.5205   1.5208   1.5220   1.5232   1.5295
     1.5415   1.5424   1.5433   1.5469   1.5548   1.5561   1.5586   1.5590
     1.5614   1.5757   1.5771   1.5776   1.5783   1.5806   1.5975   1.5976
     1.6005   1.6130   1.6133   1.6210   1.6232   1.6245   1.6247   1.6305
     1.6381   1.6383   1.6398   1.6400   1.6563   1.6568   1.6703   1.6707
     1.6728   1.6765   1.6903   1.6911   1.6931   1.6933   1.6946   1.6948
     1.6955   1.6957   1.7230   1.7231   1.7303   1.7310   1.7409   1.7412
     1.7517   1.7603   1.7637   1.7639   1.7641   1.7729   1.7730   1.7750
     1.7852   1.7853   1.8292   1.8297   1.8325   1.8381   1.9310   1.9334
     1.9510   1.9636   1.9836   1.9872   1.9874   2.0063   2.0305   2.0349
     2.0395   2.0415   2.0573   2.0577   2.0585   2.0726   2.0958   2.0959
     2.4241   2.4903   2.4942   2.6565   2.6569   2.6611   2.6618   2.7363
     2.7391   2.8026   2.8026   2.8056   2.8088   2.8199   2.8214   2.9490
     2.9508   2.9941   2.9962   3.0157   3.0218   3.1571   3.1652   3.1863
     3.4030   3.4030   3.4374   3.4546   3.6111   3.6426   3.9090   3.9169
     4.0607   4.2574   4.2869   4.2952   4.3136   4.3628   4.4091   4.4359
     4.4512   4.5635   4.5660   4.5681   4.5821   4.7355   4.7374   4.8983
     4.9057   4.9564   4.9854   5.0504   5.3414   5.3459   5.3532   5.4508
     5.5963   5.5994   5.6001   5.6014   5.6787   5.7609   5.9227   5.9926
     6.1279   6.1935   6.2424   6.6022   6.6127   6.6427   6.6451   6.6598
     6.6642   6.7705   6.7843   6.9053   6.9115   6.9532   7.0382   7.0501
     7.2570   7.2799   7.2971   7.3002   7.3236   7.3328   7.3560   7.3615
     7.3620   7.3813   7.4590   7.5675   7.5779   7.5892   7.6659   7.6757
     7.6832   7.7393   8.0467   8.0485   8.0687   8.1152   8.1819   8.3815
     8.3827   8.4702   8.5123   8.5538   8.5968   8.6004   8.6309   8.6310
     8.6564   8.6838   8.8722   8.9143   8.9179   8.9505   8.9527   8.9554
     8.9594   8.9980   9.0057   9.0507   9.1064   9.1131   9.1408   9.1703
     9.2668   9.3206   9.3777   9.3863   9.4868   9.5009   9.6222   9.6224
     9.6225   9.6227   9.6924   9.6939   9.7032   9.7244   9.7289   9.8788
     9.8858   9.8951   9.9025  10.0288  10.1431

          k = 0.2500 0.0000 0.0000 (256240 PWs)   bands (ev):

   -15.9481 -15.6156 -15.4160 -14.9527 -14.6369 -14.5327 -14.4543 -14.1262
   -13.4934 -13.2536 -13.0222 -12.7255 -12.6692 -12.6093 -12.2336 -11.7210
   -11.6386 -11.6076 -11.1113 -10.5524 -10.4079 -10.2608  -9.9850  -9.6747
    -9.4565  -9.2697  -9.0912  -8.7608  -8.6666  -8.1972  -7.7649  -7.1598
    -7.1269  -7.1059  -7.0080  -6.8426  -6.3994  -6.2507  -6.0222  -5.6168
    -5.5990  -5.5222  -5.4350  -5.1479  -5.0737  -5.0692  -4.8637  -4.6531
    -4.6087  -4.4449  -4.2267  -4.2141  -4.2043  -4.1876  -4.0713  -3.9583
    -3.9036  -3.7622  -3.7606  -3.7586  -3.7263  -3.6335  -3.6008  -3.5930
    -3.4940  -3.3797  -3.2626  -3.2160  -3.2012  -3.1828  -3.1372  -3.0384
    -3.0103  -3.0058  -2.9195  -2.9134  -2.8327  -2.7998  -2.7662  -2.6247
    -2.5615  -2.5598  -2.5391  -2.5312  -2.4508  -2.3934  -2.3834  -2.2596
    -2.2187  -2.1599  -2.1018  -2.0909  -2.0772  -1.8595  -1.8592  -1.8433
    -1.8411  -1.7671  -1.7636  -1.7147  -1.6756  -1.6611  -1.6534  -1.6100
    -1.5930  -1.5872  -1.5603  -1.5602  -1.5530  -1.5529  -1.5321  -1.5044
    -1.4817  -1.4753  -1.4730  -1.4365  -1.4058  -1.4043  -1.3777  -1.3615
    -1.3531  -1.3416  -1.3394  -1.3377  -1.3375  -1.3343  -1.3181  -1.2863
    -1.2726  -1.2624  -1.2603  -1.2500  -1.2457  -1.1304  -1.0920  -1.0904
    -1.0705  -1.0271  -1.0249  -1.0140  -1.0017  -1.0008  -0.9951  -0.9835
    -0.9781  -0.9737  -0.9663  -0.9647  -0.9557  -0.9425  -0.9412  -0.9347
    -0.9235  -0.8932  -0.8911  -0.8903  -0.8863  -0.8839  -0.8706  -0.8688
    -0.8674  -0.8366  -0.8330  -0.8061  -0.8057  -0.8043  -0.8010  -0.7892
    -0.7783  -0.7741  -0.7709  -0.7672  -0.7582  -0.7522  -0.7502  -0.7398
    -0.7397  -0.7388  -0.7379  -0.7339  -0.7332  -0.7247  -0.7214  -0.7030
    -0.7009  -0.6970  -0.6646  -0.6590  -0.6578  -0.6523  -0.6296  -0.6100
    -0.6091  -0.6012  -0.5742  -0.5737  -0.5546  -0.5532  -0.5432  -0.5282
    -0.5273  -0.5148  -0.5109  -0.5089  -0.5072  -0.4997  -0.4988  -0.4797
    -0.3942  -0.3590  -0.3548  -0.3533  -0.3497  -0.3374  -0.3253  -0.3230
    -0.3215  -0.3073  -0.3067  -0.3060  -0.3046  -0.2844  -0.2842  -0.2834
    -0.2736  -0.2659  -0.2633  -0.2424  -0.2417  -0.2412  -0.2394  -0.2389
    -0.2180  -0.2180  -0.2139  -0.2127  -0.1566  -0.1565  -0.1558  -0.1538
    -0.1483  -0.1465  -0.1421  -0.1374  -0.1293  -0.1209  -0.1135  -0.1133
    -0.0904  -0.0898  -0.0887  -0.0829  -0.0526  -0.0525  -0.0491  -0.0489
    -0.0381  -0.0377  -0.0292  -0.0202  -0.0194  -0.0120  -0.0106   0.0071
     0.0116   0.0138   0.0171   0.0440   0.0447   0.0468   0.0477   0.0506
     0.0618   0.0625   0.0626   0.0667   0.0913   0.0914   0.0962   0.1032
     0.1054   0.1240   0.1299   0.1328   0.1332   0.1616   0.1759   0.1791
     0.1805   0.1869   0.1901   0.1930   0.2012   0.2251   0.2256   0.2315
     0.2316   0.2370   0.2447   0.2460   0.2474   0.2480   0.2493   0.2503
     0.2511   0.2525   0.2564   0.2756   0.2766   0.2767   0.2792   0.2849
     0.2856   0.3026   0.3031   0.3180   0.3191   0.3375   0.3589   0.3593
     0.3603   0.3605   0.3610   0.3746   0.3794   0.3813   0.3846   0.3850
     0.3854   0.3878   0.4201   0.4219   0.4605   0.4820   0.4978   0.4982
     0.4992   0.5112   0.5148   0.5171   0.5191   0.5209   0.5236   0.5265
     0.5277   0.5284   0.5314   0.5319   0.5389   0.5492   0.5501   0.5510
     0.5547   0.5635   0.5656   0.5676   0.5701   0.5729   0.5771   0.5778
     0.5931   0.6024   0.6062   0.6074   0.6482   0.6490   0.6608   0.6629
     0.6707   0.6714   0.6866   0.6869   0.6876   0.6906   0.7031   0.7057
     0.7201   0.7220   0.7225   0.7292   0.7297   0.7342   0.7355   0.7397
     0.7402   0.7613   0.7630   0.7684   0.7768   0.7888   0.7895   0.7954
     0.7964   0.7980   0.7991   0.7997   0.8012   0.8173   0.8231   0.8242
     0.8353   0.8365   0.8381   0.8384   0.8406   0.8470   0.8539   0.8555
     0.8618   0.8622   0.8634   0.8813   0.8823   0.9004   0.9036   0.9065
     0.9068   0.9133   0.9139   0.9155   0.9377   0.9456   0.9494   0.9677
     0.9734   0.9845   0.9847   0.9892   0.9893   0.9953   1.0098   1.0152
     1.0177   1.0204   1.0223   1.0289   1.0358   1.0419   1.0475   1.0501
     1.0594   1.0685   1.0688   1.0739   1.0851   1.0881   1.0975   1.0997
     1.1000   1.1021   1.1228   1.1241   1.1353   1.1357   1.1370   1.1376
     1.1405   1.1459   1.1477   1.1496   1.1567   1.1869   1.1929   1.1943
     1.1992   1.1999   1.2010   1.2121   1.2145   1.2155   1.2316   1.2325
     1.2336   1.2368   1.2447   1.2450   1.2483   1.2591   1.2594   1.2615
     1.2625   1.2644   1.2665   1.2673   1.2731   1.2741   1.2757   1.2764
     1.2793   1.2868   1.2899   1.2953   1.3025   1.3056   1.3093   1.3107
     1.3149   1.3205   1.3207   1.3243   1.3346   1.3347   1.3460   1.3509
     1.3515   1.3541   1.3548   1.3595   1.3655   1.3763   1.3789   1.3818
     1.3924   1.3946   1.4007   1.4008   1.4067   1.4086   1.4235   1.4264
     1.4283   1.4328   1.4359   1.4376   1.4692   1.4751   1.4808   1.4873
     1.4887   1.4911   1.4961   1.4978   1.4984   1.4995   1.5047   1.5068
     1.5174   1.5203   1.5228   1.5232   1.5332   1.5406   1.5437   1.5448
     1.5451   1.5506   1.5533   1.5563   1.5576   1.5590   1.5611   1.5617
     1.5701   1.5708   1.5719   1.5742   1.5815   1.5861   1.5943   1.5954
     1.5981   1.5996   1.6025   1.6050   1.6092   1.6229   1.6233   1.6262
     1.6438   1.6494   1.6514   1.6585   1.6592   1.6651   1.6671   1.6674
     1.6698   1.6714   1.6723   1.6774   1.6789   1.6798   1.6807   1.6843
     1.6869   1.7036   1.7069   1.7073   1.7086   1.7114   1.7145   1.7155
     1.7262   1.7267   1.7322   1.7381   1.7388   1.7494   1.7495   1.7573
     1.7585   1.7631   1.7759   1.7859   1.7904   1.7967   1.8260   1.8332
     1.8628   1.8677   1.8701   1.8754   1.8971   1.9370   1.9860   1.9987
     2.0043   2.0059   2.0292   2.0379   2.0448   2.0793   2.2474   2.2735
     2.3049   2.3101   2.3268   2.3290   2.3737   2.4352   2.4869   2.4956
     2.7993   2.8028   2.8060   2.8122   3.1151   3.2168   3.2177   3.2532
     3.4350   3.4356   3.4585   3.4586   3.5121   3.5175   3.6843   3.7072
     3.8132   3.8232   3.8655   3.8687   3.9214   3.9362   3.9516   3.9585
     3.9963   4.0250   4.1090   4.1170   4.1693   4.2126   4.2422   4.3911
     4.4003   4.4244   4.4884   4.5211   4.6343   4.7651   4.9396   4.9927
     5.0606   5.0912   5.2180   5.3881   5.4575   5.4588   5.4710   5.5973
     5.6775   5.6992   5.7121   5.7461   5.7810   5.8032   5.8251   5.8811
     5.8955   5.9244   5.9753   5.9958   6.0464   6.0632   6.1925   6.2492
     6.2494   6.2724   6.3263   6.5551   6.9267   6.9301   6.9683   6.9743
     7.0108   7.0834   7.0861   7.1242   7.2527   7.2579   7.2690   7.2705
     7.2793   7.3146   7.4790   7.4890   7.5188   7.5456   7.5580   7.6810
     7.7044   7.7577   7.7938   7.8108   7.9697   7.9742   8.0220   8.0397
     8.0746   8.1213   8.2305   8.2442   8.2761   8.3000   8.3820   8.4877
     8.4977   8.5508   8.5510   8.6054   8.6237   8.6282   8.6327   8.6831
     8.6910   8.8822   8.8827   8.8850   8.9356   9.1587   9.1819   9.3240
     9.3834   9.4022   9.4149   9.4212   9.4284   9.4297   9.4424   9.4495
     9.4602   9.4650   9.5054   9.5061   9.5245   9.5466   9.6112   9.6399
     9.6958   9.7336   9.7982   9.9621  10.0209

          k = 0.2500-0.2165 0.0000 (256316 PWs)   bands (ev):

   -15.9222 -15.7317 -15.1289 -15.0190 -14.9353 -14.6489 -14.1535 -13.9335
   -13.6159 -13.4379 -13.0093 -12.7899 -12.6670 -12.4605 -12.2538 -11.9064
   -11.5153 -11.3314 -10.9083 -10.7493 -10.5959 -10.4070 -10.3173  -9.6682
    -9.2389  -8.9620  -8.7117  -8.6835  -8.4815  -8.2883  -8.0740  -7.9247
    -7.7870  -6.9279  -6.2907  -6.2627  -6.1914  -6.1639  -5.9542  -5.8490
    -5.6886  -5.6042  -5.4676  -5.4639  -5.3064  -4.9473  -4.6995  -4.5662
    -4.4940  -4.4358  -4.4312  -4.4052  -4.2742  -4.1090  -4.1061  -4.0814
    -3.9770  -3.9577  -3.8038  -3.6874  -3.6039  -3.5416  -3.5120  -3.4864
    -3.4045  -3.3257  -3.2519  -3.2194  -3.2169  -3.1699  -3.1635  -3.1521
    -3.0757  -2.9063  -2.7955  -2.7882  -2.7209  -2.7041  -2.6888  -2.6734
    -2.6698  -2.6646  -2.6131  -2.5434  -2.4869  -2.3620  -2.2837  -2.1961
    -2.0866  -2.0753  -2.0727  -1.9865  -1.9645  -1.9580  -1.9386  -1.9293
    -1.9292  -1.9122  -1.7689  -1.7685  -1.7362  -1.7319  -1.7232  -1.6349
    -1.5907  -1.5750  -1.5731  -1.5726  -1.5412  -1.5238  -1.5139  -1.4950
    -1.4808  -1.4707  -1.4683  -1.4675  -1.4540  -1.4390  -1.4371  -1.4352
    -1.4350  -1.4274  -1.4264  -1.4191  -1.3907  -1.3406  -1.3402  -1.2272
    -1.2268  -1.1216  -1.1205  -1.1015  -1.0881  -1.0876  -1.0841  -1.0353
    -1.0348  -1.0295  -1.0208  -1.0208  -1.0072  -1.0071  -0.9972  -0.9956
    -0.9850  -0.9842  -0.9737  -0.9704  -0.9700  -0.9595  -0.9573  -0.9527
    -0.9449  -0.9444  -0.9432  -0.8907  -0.8892  -0.8849  -0.8827  -0.8772
    -0.8741  -0.8713  -0.8695  -0.8419  -0.8370  -0.8264  -0.8191  -0.7983
    -0.7974  -0.7950  -0.7845  -0.7840  -0.7825  -0.7541  -0.7539  -0.7303
    -0.7283  -0.7193  -0.7192  -0.7136  -0.7131  -0.7115  -0.7069  -0.6945
    -0.6813  -0.6806  -0.6742  -0.6608  -0.6565  -0.6253  -0.6251  -0.6201
    -0.6198  -0.5357  -0.5356  -0.5314  -0.5311  -0.5296  -0.5278  -0.4911
    -0.4788  -0.4772  -0.4698  -0.4697  -0.4645  -0.4640  -0.4524  -0.4512
    -0.4264  -0.4089  -0.4082  -0.3959  -0.3741  -0.3711  -0.3571  -0.3282
    -0.3236  -0.3234  -0.3215  -0.3211  -0.3004  -0.2905  -0.2896  -0.2799
    -0.2771  -0.2699  -0.2596  -0.2573  -0.2511  -0.2449  -0.2431  -0.2118
    -0.2058  -0.1998  -0.1993  -0.1991  -0.1861  -0.1650  -0.1649  -0.1516
    -0.1511  -0.1359  -0.1328  -0.1259  -0.1254  -0.1227  -0.1214  -0.1158
    -0.1137  -0.1113  -0.1089  -0.1086  -0.0913  -0.0909  -0.0749  -0.0746
    -0.0613  -0.0466  -0.0353  -0.0296  -0.0251  -0.0151  -0.0003   0.0031
     0.0033   0.0164   0.0255   0.0265   0.0293   0.0297   0.0398   0.0608
     0.0665   0.0881   0.0891   0.1000   0.1246   0.1270   0.1343   0.1345
     0.1386   0.1397   0.1559   0.1568   0.1669   0.1726   0.1735   0.1820
     0.1899   0.1947   0.1975   0.2008   0.2015   0.2031   0.2051   0.2118
     0.2297   0.2302   0.2379   0.2402   0.2406   0.2419   0.2420   0.2436
     0.2453   0.2500   0.2526   0.2557   0.2745   0.2745   0.2746   0.2757
     0.3097   0.3099   0.3179   0.3181   0.3232   0.3271   0.3432   0.3446
     0.3636   0.3744   0.3751   0.3754   0.3835   0.3845   0.3944   0.3950
     0.3983   0.3995   0.4007   0.4129   0.4130   0.4207   0.4214   0.4491
     0.4495   0.5102   0.5135   0.5247   0.5252   0.5265   0.5271   0.5302
     0.5313   0.5318   0.5333   0.5343   0.5377   0.5452   0.5604   0.5607
     0.5626   0.5637   0.5763   0.5776   0.5779   0.5782   0.5791   0.5987
     0.6090   0.6108   0.6257   0.6264   0.6373   0.6420   0.6472   0.6484
     0.6888   0.6898   0.6933   0.6955   0.7014   0.7016   0.7045   0.7128
     0.7129   0.7225   0.7238   0.7242   0.7254   0.7257   0.7263   0.7551
     0.7563   0.7607   0.7630   0.7742   0.7763   0.7788   0.8108   0.8115
     0.8117   0.8135   0.8427   0.8452   0.8488   0.8495   0.8521   0.8531
     0.8582   0.8592   0.8692   0.8712   0.8726   0.8761   0.8814   0.8834
     0.8907   0.8920   0.8925   0.9042   0.9071   0.9095   0.9108   0.9119
     0.9126   0.9214   0.9243   0.9270   0.9326   0.9328   0.9333   0.9472
     0.9501   0.9531   0.9545   0.9596   0.9602   0.9629   0.9644   0.9676
     0.9680   0.9976   1.0011   1.0082   1.0091   1.0248   1.0441   1.0488
     1.0501   1.0670   1.0672   1.0685   1.0688   1.0740   1.0744   1.0764
     1.0949   1.0952   1.0976   1.0979   1.0991   1.1006   1.1087   1.1190
     1.1275   1.1282   1.1320   1.1395   1.1399   1.1478   1.1497   1.1689
     1.1692   1.1700   1.1970   1.1991   1.2058   1.2067   1.2084   1.2092
     1.2102   1.2148   1.2152   1.2247   1.2392   1.2453   1.2462   1.2612
     1.2630   1.2736   1.2812   1.2837   1.2892   1.2983   1.3074   1.3161
     1.3220   1.3245   1.3258   1.3303   1.3307   1.3316   1.3332   1.3335
     1.3339   1.3375   1.3377   1.3490   1.3494   1.3543   1.3608   1.3626
     1.3641   1.3757   1.3824   1.3936   1.4085   1.4093   1.4141   1.4153
     1.4188   1.4196   1.4208   1.4285   1.4291   1.4331   1.4340   1.4351
     1.4409   1.4431   1.4461   1.4483   1.4497   1.4561   1.4577   1.4600
     1.4626   1.4669   1.4671   1.4690   1.4703   1.4777   1.4814   1.4888
     1.4896   1.4931   1.5139   1.5147   1.5219   1.5220   1.5373   1.5386
     1.5422   1.5446   1.5538   1.5541   1.5627   1.5671   1.5688   1.5734
     1.5736   1.5795   1.5813   1.5834   1.5919   1.5923   1.5930   1.6035
     1.6047   1.6075   1.6198   1.6219   1.6252   1.6253   1.6256   1.6315
     1.6324   1.6340   1.6358   1.6364   1.6505   1.6506   1.6547   1.6549
     1.6647   1.6687   1.6730   1.6761   1.6797   1.6800   1.6806   1.6853
     1.6867   1.6889   1.6889   1.6915   1.6973   1.6975   1.6993   1.7215
     1.7215   1.7260   1.7301   1.7317   1.7456   1.7465   1.7651   1.7702
     1.7716   1.7731   1.7936   1.7943   1.8004   1.8011   1.8249   1.8295
     1.8911   1.9010   1.9045   1.9087   1.9182   1.9928   1.9949   2.0062
     2.0075   2.0201   2.0249   2.0284   2.0297   2.0440   2.0736   2.0846
     2.0999   2.3665   2.3695   2.3972   2.4003   2.5257   2.5268   2.8230
     2.8259   2.9554   3.0246   3.0254   3.0283   3.0340   3.0412   3.0622
     3.0667   3.1613   3.2246   3.2296   3.3081   3.3301   3.7715   3.7788
     3.8382   3.8428   3.8724   3.9075   3.9728   4.0728   4.0799   4.0862
     4.0938   4.1704   4.2386   4.2504   4.3060   4.3123   4.4042   4.4051
     4.6152   4.6163   4.6403   4.7798   4.7851   4.8142   4.9088   4.9102
     4.9902   5.0914   5.1391   5.1437   5.1645   5.2249   5.2716   5.3565
     5.4495   5.4831   5.5036   5.6246   5.6719   5.6894   5.6954   5.7011
     5.7323   5.9838   6.0044   6.0528   6.1107   6.1298   6.1976   6.2228
     6.3615   6.7021   6.8256   6.8353   6.8436   6.8585   6.9701   6.9773
     7.0780   7.0943   7.2366   7.2675   7.3126   7.3141   7.3388   7.3573
     7.4500   7.4587   7.4762   7.5665   7.5695   7.5712   7.5843   7.6261
     7.6502   7.6526   7.6607   7.6756   7.7358   7.8934   7.9171   8.0211
     8.0272   8.2036   8.2100   8.2218   8.2434   8.3677   8.4259   8.4427
     8.4789   8.5054   8.6790   8.7036   8.8203   8.8264   8.8298   8.8642
     8.8703   8.9296   8.9328   8.9655   9.0368   9.0552   9.0757   9.1169
     9.1485   9.1812   9.1856   9.2766   9.2826   9.3243   9.3611   9.3710
     9.4105   9.4299   9.4477   9.4695   9.5044   9.5311   9.5836   9.5997
     9.6146   9.6182   9.6384   9.6621   9.7290

          k =-0.5000 0.0000 0.0000 (256496 PWs)   bands (ev):

   -15.6152 -15.5524 -15.2657 -15.2271 -15.1999 -14.8172 -14.1488 -14.1251
   -14.0384 -13.5533 -12.3659 -12.3592 -12.1752 -12.0483 -11.7554 -11.7169
   -11.4659 -11.4644 -11.2324 -11.0748 -10.7135 -10.4288 -10.3721  -9.9394
    -9.6267  -9.4115  -9.3654  -8.9130  -8.5247  -8.4213  -8.2789  -7.7340
    -7.0358  -7.0171  -6.9941  -6.8665  -6.5848  -5.5250  -5.4789  -5.1766
    -5.0706  -5.0680  -4.7721  -4.7583  -4.5655  -4.5648  -4.5626  -4.5591
    -4.4210  -4.4109  -4.3536  -4.3242  -4.2999  -4.2056  -4.1902  -4.1491
    -4.0759  -4.0195  -4.0083  -3.7475  -3.7421  -3.7387  -3.7254  -3.6930
    -3.6067  -3.5873  -3.5509  -3.3021  -3.2876  -3.2773  -3.1837  -3.1805
    -3.1802  -3.1792  -3.1207  -3.0341  -3.0172  -2.9879  -2.9612  -2.7614
    -2.6678  -2.5519  -2.5004  -2.4977  -2.4818  -2.4304  -2.3690  -2.3601
    -2.3592  -2.1589  -2.1529  -2.1133  -2.0702  -2.0640  -2.0605  -2.0594
    -1.8800  -1.7829  -1.6927  -1.6394  -1.6391  -1.6387  -1.6381  -1.6359
    -1.6353  -1.5116  -1.5110  -1.5071  -1.4946  -1.4679  -1.4096  -1.4093
    -1.4091  -1.4070  -1.3618  -1.3614  -1.3601  -1.3593  -1.2644  -1.2580
    -1.2477  -1.2465  -1.2075  -1.1841  -1.1831  -1.1829  -1.1797  -1.1647
    -1.1642  -1.1159  -1.1158  -1.1127  -1.1124  -1.1037  -1.1007  -1.1003
    -1.0997  -1.0991  -1.0954  -1.0865  -1.0509  -1.0508  -1.0490  -1.0462
    -1.0303  -1.0264  -1.0259  -1.0258  -1.0253  -0.9624  -0.9622  -0.9406
    -0.9402  -0.9397  -0.9397  -0.9114  -0.9105  -0.9100  -0.9092  -0.9068
    -0.9058  -0.9036  -0.8880  -0.8659  -0.8656  -0.8650  -0.8650  -0.8452
    -0.8433  -0.8428  -0.8131  -0.8130  -0.7674  -0.7672  -0.7389  -0.7387
    -0.7373  -0.7370  -0.7102  -0.7096  -0.7095  -0.7089  -0.6997  -0.6990
    -0.6956  -0.6901  -0.6893  -0.6872  -0.6869  -0.6826  -0.6595  -0.6588
    -0.6424  -0.5979  -0.5973  -0.5952  -0.5949  -0.5517  -0.5514  -0.4697
    -0.4696  -0.4694  -0.4691  -0.4317  -0.4303  -0.4301  -0.4294  -0.4292
    -0.4282  -0.4126  -0.4091  -0.3976  -0.3879  -0.3868  -0.3866  -0.3864
    -0.3838  -0.3708  -0.3701  -0.3557  -0.3535  -0.3510  -0.3404  -0.2566
    -0.2523  -0.2366  -0.2202  -0.2193  -0.2142  -0.2132  -0.2127  -0.2115
    -0.2022  -0.1634  -0.1630  -0.1626  -0.1615  -0.1613  -0.1599  -0.1491
    -0.1325  -0.1276  -0.1271  -0.1268  -0.1262  -0.1237  -0.1038  -0.0863
    -0.0862  -0.0854  -0.0852  -0.0531  -0.0530  -0.0528  -0.0527  -0.0408
    -0.0407  -0.0083  -0.0082  -0.0068  -0.0067   0.0079   0.0098   0.0181
     0.0224   0.0376   0.0491   0.0535   0.1067   0.1075   0.1084   0.1084
     0.1087   0.1136   0.1142   0.1145   0.1322   0.1549   0.1555   0.1560
     0.1571   0.1752   0.1912   0.1945   0.2169   0.2181   0.2191   0.2192
     0.2214   0.2215   0.2217   0.2224   0.2226   0.2226   0.2228   0.2276
     0.2901   0.2920   0.3078   0.3080   0.3109   0.3115   0.3153   0.3153
     0.3159   0.3162   0.3204   0.3218   0.3232   0.3238   0.3258   0.3287
     0.3314   0.3336   0.3372   0.3418   0.3447   0.3448   0.3581   0.3582
     0.3584   0.3584   0.3585   0.3615   0.3710   0.3711   0.3713   0.3714
     0.3840   0.3851   0.3961   0.3962   0.3965   0.3966   0.4053   0.4098
     0.4267   0.4282   0.5294   0.5302   0.5319   0.5321   0.5332   0.5372
     0.5538   0.5625   0.5650   0.5650   0.5665   0.5770   0.5786   0.5800
     0.5853   0.5869   0.5887   0.5889   0.5923   0.5946   0.5959   0.5961
     0.5968   0.5973   0.5996   0.6043   0.6104   0.6105   0.6319   0.6325
     0.6336   0.6344   0.6382   0.6387   0.6460   0.6475   0.6622   0.6786
     0.7336   0.7357   0.7357   0.7382   0.7389   0.7474   0.7519   0.7675
     0.7677   0.7703   0.7706   0.7732   0.7734   0.7739   0.7743   0.7755
     0.7758   0.7772   0.7780   0.7807   0.7814   0.7873   0.7893   0.7902
     0.7905   0.8100   0.8124   0.8271   0.8280   0.8445   0.8512   0.8608
     0.8645   0.8648   0.8660   0.8706   0.8734   0.8737   0.8743   0.8754
     0.8777   0.8778   0.8783   0.8908   0.8945   0.8951   0.8990   0.9095
     0.9131   0.9133   0.9188   0.9502   0.9504   0.9512   0.9514   0.9523
     0.9525   0.9676   0.9697   0.9883   1.0087   1.0089   1.0101   1.0138
     1.0140   1.0144   1.0149   1.0315   1.0606   1.0774   1.0778   1.0805
     1.0813   1.0818   1.0833   1.0897   1.0917   1.0966   1.0969   1.0978
     1.0981   1.1085   1.1100   1.1288   1.1290   1.1304   1.1309   1.1475
     1.1495   1.1499   1.1501   1.1515   1.1515   1.1543   1.1549   1.1868
     1.1875   1.1883   1.1913   1.2419   1.2560   1.2564   1.2573   1.2589
     1.2623   1.2900   1.2917   1.2919   1.2925   1.2952   1.3012   1.3144
     1.3157   1.3176   1.3199   1.3206   1.3329   1.3346   1.3516   1.3566
     1.3567   1.3588   1.3592   1.3594   1.3598   1.3643   1.3675   1.3711
     1.3723   1.3763   1.3764   1.3795   1.3801   1.3815   1.3815   1.3826
     1.3863   1.4149   1.4158   1.4178   1.4178   1.4220   1.4505   1.4520
     1.4562   1.4565   1.4572   1.4588   1.4661   1.4748   1.4761   1.4840
     1.4844   1.4846   1.4849   1.4947   1.4952   1.4956   1.4964   1.4995
     1.5026   1.5103   1.5225   1.5377   1.5416   1.5426   1.5436   1.5527
     1.5579   1.5584   1.5585   1.5587   1.5587   1.5591   1.5619   1.5652
     1.5727   1.5731   1.5734   1.5740   1.5749   1.5755   1.5799   1.5812
     1.5849   1.5854   1.5856   1.5861   1.5914   1.5946   1.5956   1.6083
     1.6083   1.6236   1.6245   1.6267   1.6326   1.6368   1.6371   1.6384
     1.6385   1.6543   1.6548   1.6573   1.6573   1.6734   1.6734   1.6763
     1.6801   1.6902   1.6904   1.6909   1.6911   1.7034   1.7113   1.7118
     1.7123   1.7193   1.7235   1.7244   1.7245   1.7247   1.7273   1.7353
     1.7402   1.7428   1.7461   1.7557   1.7558   1.7560   1.7561   1.7707
     1.7714   1.7736   1.7801   1.8171   1.8221   1.8313   1.8501   1.8506
     1.8544   1.8544   1.8873   2.2681   2.2692   2.2693   2.2720   2.4635
     2.4758   2.4861   2.4908   2.5242   2.5260   2.5333   2.5337   2.8275
     2.8482   2.8487   2.8505   2.9948   3.0696   3.0746   3.0759   3.1353
     3.4240   3.4247   3.4257   3.4313   3.6833   3.7199   3.7531   3.9791
     3.9874   3.9914   4.0049   4.0905   4.1580   4.1623   4.1723   4.1886
     4.3111   4.3116   4.3180   4.3195   4.3947   4.4111   4.7150   4.8559
     4.8758   4.9590   4.9616   4.9627   4.9776   5.0397   5.0640   5.0649
     5.1172   5.1332   5.2594   5.2595   5.2849   5.2864   5.2909   5.2984
     5.3130   5.3134   5.3373   5.3392   5.4520   5.4594   5.5454   5.6703
     5.7889   5.7902   5.8254   5.8616   5.8842   5.9366   6.2285   6.2297
     6.2343   6.2479   6.2515   6.2620   6.2663   6.2759   6.2964   6.5142
     6.6347   6.6403   6.6757   6.7303   6.7730   6.8234   6.9635   7.3102
     7.3254   7.3334   7.3368   7.3590   7.3623   7.7745   7.8216   7.8225
     7.8237   7.8269   7.8272   7.8354   7.8717   8.0233   8.0381   8.0557
     8.0595   8.0901   8.1133   8.1158   8.1171   8.2041   8.2962   8.2998
     8.3038   8.3335   8.3428   8.3500   8.3508   8.5321   8.5466   8.5595
     8.5920   8.6281   8.6297   8.7956   9.0525   9.0578   9.0580   9.0608
     9.1458   9.1482   9.1506   9.1696   9.2882   9.2931   9.3023   9.3081
     9.4228   9.4375   9.4988   9.5033   9.7421   9.7422   9.7488   9.7574
     9.7675   9.7745   9.7828   9.9036   9.9073

          k =-0.5000-0.2165 0.0000 (256328 PWs)   bands (ev):

   -15.5575 -15.5448 -15.4753 -15.2621 -14.7953 -14.7518 -14.7244 -14.2358
   -13.3323 -13.3258 -13.1808 -12.8107 -11.7387 -11.7384 -11.5486 -11.5221
   -11.2766 -11.2602 -11.1700 -11.1086 -11.0759 -10.9769 -10.8280  -9.8656
    -9.3758  -9.3252  -9.0574  -8.8067  -8.4282  -8.4073  -8.1800  -7.8722
    -7.6265  -7.4698  -7.3557  -6.2749  -5.5791  -5.5544  -5.3568  -5.0988
    -4.9447  -4.9428  -4.9428  -4.9373  -4.9355  -4.8464  -4.7935  -4.7576
    -4.7504  -4.4707  -4.3805  -4.0910  -4.0860  -4.0547  -4.0299  -3.9812
    -3.9594  -3.9587  -3.9584  -3.9406  -3.8277  -3.8230  -3.6372  -3.6290
    -3.6240  -3.5911  -3.5540  -3.4709  -3.3308  -3.3295  -3.2811  -3.2562
    -3.2125  -3.1901  -3.1779  -3.1685  -3.0457  -2.7962  -2.7830  -2.7698
    -2.5617  -2.5257  -2.5008  -2.3402  -2.3399  -2.3396  -2.3370  -2.2879
    -2.2871  -2.2832  -2.2381  -2.1483  -1.9664  -1.8610  -1.8527  -1.8525
    -1.8498  -1.8412  -1.8175  -1.7759  -1.7746  -1.7741  -1.7575  -1.7456
    -1.6462  -1.5624  -1.5623  -1.5612  -1.5607  -1.4555  -1.4525  -1.4241
    -1.3693  -1.2525  -1.2525  -1.2524  -1.2523  -1.2373  -1.2337  -1.2336
    -1.2144  -1.2137  -1.2121  -1.2099  -1.1952  -1.1928  -1.1923  -1.1922
    -1.1918  -1.1424  -1.1423  -1.1420  -1.1420  -1.1403  -1.1399  -1.1398
    -1.1392  -1.1176  -1.1176  -1.1175  -1.1174  -1.0678  -1.0666  -1.0661
    -1.0656  -1.0329  -0.9909  -0.9899  -0.9895  -0.9654  -0.9487  -0.9486
    -0.9484  -0.9483  -0.9279  -0.9277  -0.9277  -0.9222  -0.8795  -0.8792
    -0.8791  -0.8774  -0.8742  -0.8742  -0.8742  -0.8733  -0.8486  -0.8434
    -0.8427  -0.8341  -0.8149  -0.8147  -0.8142  -0.8139  -0.7977  -0.7976
    -0.7974  -0.7971  -0.7951  -0.7951  -0.7946  -0.7942  -0.7591  -0.6676
    -0.6527  -0.6398  -0.6396  -0.6391  -0.6380  -0.6108  -0.6105  -0.6104
    -0.6103  -0.5271  -0.5268  -0.5264  -0.5263  -0.5231  -0.5222  -0.5201
    -0.5185  -0.5185  -0.5177  -0.5176  -0.5023  -0.4578  -0.4575  -0.4573
    -0.4563  -0.4462  -0.4452  -0.4448  -0.4424  -0.4241  -0.4239  -0.4237
    -0.4231  -0.3292  -0.3290  -0.3241  -0.3239  -0.3234  -0.3226  -0.3201
    -0.3155  -0.2559  -0.2555  -0.2553  -0.2550  -0.2058  -0.2057  -0.2053
    -0.2047  -0.1850  -0.1848  -0.1842  -0.1837  -0.1585  -0.1584  -0.1521
    -0.1504  -0.1462  -0.1460  -0.1453  -0.1452  -0.1030  -0.0999  -0.0998
    -0.0969  -0.0305  -0.0305  -0.0298  -0.0297  -0.0146  -0.0146  -0.0140
    -0.0139   0.0021   0.0024   0.0024   0.0026   0.0822   0.0840   0.0843
     0.0855   0.0891   0.0892   0.0894   0.0896   0.0934   0.0936   0.0940
     0.0951   0.1288   0.1299   0.1300   0.1300   0.1381   0.1433   0.1439
     0.1439   0.1466   0.1469   0.1470   0.1474   0.1600   0.2164   0.2165
     0.2174   0.2191   0.2434   0.2440   0.2449   0.2451   0.2929   0.2933
     0.2987   0.2992   0.3072   0.3079   0.3223   0.3226   0.3238   0.3241
     0.3311   0.3314   0.3327   0.3339   0.3342   0.3371   0.3375   0.3391
     0.3448   0.3451   0.3460   0.3471   0.3479   0.3479   0.3481   0.3485
     0.3643   0.3665   0.3667   0.3669   0.3676   0.3836   0.3938   0.3939
     0.3940   0.3941   0.4046   0.4054   0.4055   0.4079   0.4537   0.4538
     0.4541   0.4542   0.4874   0.4874   0.4884   0.4887   0.5533   0.5560
     0.5696   0.5710   0.5724   0.5727   0.5811   0.5847   0.5885   0.5886
     0.5912   0.5931   0.6043   0.6045   0.6051   0.6052   0.6066   0.6079
     0.6120   0.6122   0.6133   0.6147   0.6158   0.6202   0.6208   0.6264
     0.6303   0.6461   0.6511   0.6785   0.6912   0.6973   0.6977   0.6995
     0.7017   0.7026   0.7032   0.7058   0.7072   0.7097   0.7104   0.7109
     0.7318   0.7496   0.7525   0.7534   0.7536   0.7539   0.7541   0.7542
     0.7665   0.7982   0.7984   0.7987   0.7994   0.8104   0.8111   0.8115
     0.8119   0.8136   0.8140   0.8200   0.8202   0.8203   0.8206   0.8274
     0.8283   0.8360   0.8362   0.8394   0.8407   0.8460   0.8522   0.8527
     0.8586   0.9214   0.9218   0.9221   0.9247   0.9255   0.9269   0.9269
     0.9277   0.9282   0.9339   0.9343   0.9358   0.9479   0.9525   0.9673
     0.9688   0.9701   0.9702   0.9712   0.9715   0.9746   0.9748   0.9763
     0.9771   1.0218   1.0260   1.0261   1.0299   1.0553   1.0555   1.0561
     1.0564   1.0727   1.0763   1.0888   1.0892   1.0895   1.0902   1.1059
     1.1130   1.1148   1.1169   1.1181   1.1218   1.1692   1.1696   1.1698
     1.1702   1.2025   1.2029   1.2038   1.2045   1.2262   1.2568   1.2573
     1.2587   1.2621   1.2696   1.2700   1.2743   1.2826   1.2835   1.2841
     1.2853   1.2869   1.2872   1.2872   1.2873   1.2905   1.2908   1.2918
     1.2938   1.3043   1.3171   1.3174   1.3198   1.3206   1.3216   1.3240
     1.3243   1.3266   1.3272   1.3309   1.3367   1.3410   1.3425   1.3468
     1.3526   1.3639   1.3640   1.3667   1.3670   1.3759   1.3765   1.3812
     1.3826   1.3844   1.3852   1.3948   1.4025   1.4286   1.4344   1.4349
     1.4360   1.4370   1.4386   1.4433   1.4455   1.4645   1.4652   1.4656
     1.4661   1.4685   1.4806   1.4814   1.4847   1.4915   1.5000   1.5002
     1.5139   1.5142   1.5146   1.5155   1.5174   1.5227   1.5227   1.5238
     1.5246   1.5297   1.5304   1.5305   1.5347   1.5926   1.5964   1.5966
     1.5972   1.5973   1.5983   1.5984   1.5988   1.5988   1.6059   1.6091
     1.6130   1.6154   1.6162   1.6177   1.6192   1.6195   1.6246   1.6248
     1.6282   1.6300   1.6310   1.6323   1.6340   1.6369   1.6377   1.6380
     1.6392   1.6421   1.6499   1.6505   1.6512   1.6594   1.6603   1.6605
     1.6617   1.6909   1.6910   1.6912   1.6916   1.7047   1.7054   1.7064
     1.7101   1.7153   1.7240   1.7241   1.7259   1.7388   1.7445   1.7446
     1.7456   1.7729   1.7990   1.7993   1.8022   1.8163   1.8166   1.8170
     1.8175   1.8455   1.8471   1.8474   1.8480   1.8505   1.8513   1.8519
     1.8556   1.8579   1.8595   1.8597   1.8612   2.0738   2.0760   2.0764
     2.0782   2.5712   2.5719   2.5771   2.5787   2.7672   2.7982   2.7987
     2.8014   2.9340   3.0313   3.0322   3.0347   3.1117   3.3204   3.3210
     3.3237   3.3656   3.6909   3.6926   3.6930   3.6963   3.7203   3.8790
     3.8797   3.8967   3.8982   4.0976   4.1696   4.1697   4.1716   4.1728
     4.4654   4.4671   4.4706   4.4713   4.5360   4.5379   4.5499   4.5798
     4.7915   4.7959   4.8008   4.8064   4.8421   4.8456   4.8775   4.8968
     5.1310   5.1319   5.2369   5.2552   5.3265   5.3479   5.3481   5.4136
     5.4152   5.4210   5.4233   5.4975   5.5485   5.5647   5.5681   5.5713
     5.5946   5.6172   5.6320   5.9104   5.9725   5.9755   5.9843   5.9876
     5.9881   5.9881   6.0700   6.0958   6.0970   6.1244   6.2352   7.0183
     7.0226   7.0234   7.0249   7.1561   7.3530   7.3615   7.3629   7.3667
     7.3872   7.3887   7.3919   7.4310   7.4718   7.4764   7.4799   7.5484
     7.5864   7.5864   7.5874   7.6064   7.8413   7.8485   7.8498   7.9465
     8.1285   8.1337   8.2060   8.2081   8.2098   8.2111   8.2333   8.2693
     8.3068   8.3382   8.4233   8.4691   8.4839   8.4962   8.5193   8.7461
     8.7469   8.7639   8.7713   9.0826   9.0885   9.0939   9.1163   9.1266
[...]
     atom   38 type  1   force =     0.00013253   -0.00033471    0.00035436
     atom   39 type  1   force =     0.00000000   -0.00001734    0.00009989
     atom   40 type  1   force =    -0.00013253   -0.00033471    0.00035436
     atom   41 type  1   force =     0.00000000    0.00031058    0.00011501
     atom   42 type  1   force =     0.00026722    0.00114177    0.00073594
     atom   43 type  1   force =     0.00000000    0.00021701    0.00013009
     atom   44 type  1   force =    -0.00026722    0.00114177    0.00073594
     atom   45 type  1   force =     0.00000000    0.00113938    0.00091727
     atom   46 type  1   force =     0.00025597    0.00147830    0.00220727
     atom   47 type  1   force =     0.00000000    0.00202309    0.00210256
     atom   48 type  1   force =    -0.00025597    0.00147830    0.00220727
     atom   49 type  1   force =     0.00000000    0.00026404    0.00067206
     atom   50 type  1   force =     0.00039313   -0.00138725    0.00214713
     atom   51 type  1   force =     0.00000000    0.00007547    0.00291078
     atom   52 type  1   force =    -0.00039313   -0.00138725    0.00214713
     atom   53 type  1   force =     0.00000000   -0.00103741    0.00085669
     atom   54 type  1   force =     0.00032226   -0.00111656    0.00069922
     atom   55 type  1   force =     0.00000000   -0.00220777    0.00239393
     atom   56 type  1   force =    -0.00032226   -0.00111656    0.00069922
     atom   57 type  1   force =     0.00000000   -0.00059099    0.00036411
     atom   58 type  1   force =    -0.00003707   -0.00002975    0.00007036
     atom   59 type  1   force =     0.00000000   -0.00013588    0.00003116
     atom   60 type  1   force =     0.00003707   -0.00002975    0.00007036
     atom   61 type  1   force =     0.00000000    0.00124300    0.00028838
     atom   62 type  1   force =     0.00000279    0.00022988    0.00015148
     atom   63 type  1   force =     0.00000000   -0.00004962    0.00032083
     atom   64 type  1   force =    -0.00000279    0.00022988    0.00015148
     atom   65 type  1   force =     0.00000000    0.00034452    0.00035329
     atom   66 type  1   force =     0.00109505    0.00154417    0.00105969
     atom   67 type  1   force =     0.00000000   -0.00814379   -0.00212600
     atom   68 type  1   force =    -0.00109505    0.00154417    0.00105969
     atom   69 type  1   force =     0.00000000   -0.00002849   -0.00040350
     atom   70 type  1   force =    -0.00975854    0.00007958   -0.00351164
     atom   71 type  1   force =     0.00000000    0.00858791    0.00006912
     atom   72 type  1   force =     0.00975854    0.00007958   -0.00351164
     atom   73 type  1   force =     0.00000000   -0.00105886    0.00049782
     atom   74 type  1   force =     0.00100463   -0.00097514    0.00033478
     atom   75 type  1   force =     0.00000000   -0.00025238   -0.00001877
     atom   76 type  1   force =    -0.00100463   -0.00097514    0.00033478
     atom   77 type  1   force =     0.00000000   -0.00002572    0.00013883
     atom   78 type  1   force =    -0.00023991   -0.00017589    0.00008668
     atom   79 type  1   force =     0.00000000   -0.00008666    0.00024336
     atom   80 type  1   force =     0.00023991   -0.00017589    0.00008668
     atom   81 type  1   force =     0.00000000   -0.00003006    0.00016599
     atom   82 type  1   force =    -0.00043736    0.00057814   -0.00015315
     atom   83 type  1   force =     0.00000000    0.00004545    0.00002227
     atom   84 type  1   force =     0.00043736    0.00057814   -0.00015315
     atom   85 type  1   force =     0.00000000    0.00077204    0.00021548
     atom   86 type  1   force =     0.00228022    0.00257363    0.00261957
     atom   87 type  1   force =     0.00000000   -0.00002422   -0.00136203
     atom   88 type  1   force =    -0.00228022    0.00257363    0.00261957
     atom   89 type  1   force =     0.00000000    0.00011096    0.00129174
     atom   90 type  1   force =     0.00058018   -0.00026199   -0.00578305
     atom   91 type  1   force =     0.00000000    0.01178261    0.04684260
     atom   92 type  1   force =    -0.00058018   -0.00026199   -0.00578305
     atom   93 type  1   force =     0.00000000    0.00030418   -0.00174123
     atom   94 type  1   force =    -0.00025631    0.00010840   -0.00046541
     atom   95 type  1   force =     0.00000000   -0.00009500   -0.00043634
     atom   96 type  1   force =     0.00025631    0.00010840   -0.00046541
     atom   97 type  1   force =     0.00000000    0.00004633    0.00008687
     atom   98 type  1   force =     0.00008451   -0.00018018    0.00034921
     atom   99 type  1   force =     0.00000000   -0.00044792    0.00021914
     atom  100 type  1   force =    -0.00008451   -0.00018018    0.00034921
     atom  101 type  2   force =     0.00000000   -0.00729787    0.00168574
     atom  102 type  2   force =     0.00000000   -0.00924240    0.00455957
     atom  103 type  2   force =     0.00313404   -0.00350735   -0.00056258
     atom  104 type  2   force =     0.00102653   -0.00542668    0.00284042
     atom  105 type  2   force =     0.00058699   -0.00256368    0.00047143
     atom  106 type  2   force =     0.00144628   -0.00673296    0.00273145
     atom  107 type  2   force =     0.00000000   -0.00077192   -0.00032206
     atom  108 type  2   force =     0.00000000    0.00350860    0.00006901
     atom  109 type  2   force =    -0.00058699   -0.00256368    0.00047143
     atom  110 type  2   force =    -0.00144628   -0.00673296    0.00273145
     atom  111 type  2   force =    -0.00313404   -0.00350735   -0.00056258
     atom  112 type  2   force =    -0.00102653   -0.00542668    0.00284042
     atom  113 type  2   force =     0.00000000   -0.00405288    0.00106405
     atom  114 type  2   force =     0.00000000   -0.00051528   -0.01250657
     atom  115 type  2   force =     0.00861047   -0.00044900   -0.00280204
     atom  116 type  2   force =     0.00582075   -0.01191406   -0.00864474
     atom  117 type  2   force =    -0.01170432   -0.00138692   -0.00571529
     atom  118 type  2   force =    -0.01270184   -0.02064558   -0.00483633
     atom  119 type  2   force =     0.00000000   -0.00257984   -0.01536512
     atom  120 type  2   force =     0.01170432   -0.00138692   -0.00571529
     atom  121 type  2   force =     0.01270184   -0.02064558   -0.00483633
     atom  122 type  2   force =    -0.00861047   -0.00044900   -0.00280204
     atom  123 type  2   force =    -0.00582075   -0.01191406   -0.00864474
     atom  124 type  2   force =     0.00000000   -0.00237709   -0.00081041
     atom  125 type  2   force =     0.00000000    0.00252463    0.00515350
     atom  126 type  2   force =     0.00231557   -0.00377971   -0.00951364
     atom  127 type  2   force =     0.00099029    0.00650712    0.00088954
     atom  128 type  2   force =     0.00068110    0.01499573   -0.00142983
     atom  129 type  2   force =    -0.00039919    0.00247540   -0.00448152
     atom  130 type  2   force =     0.00000000    0.02068918    0.00552497
     atom  131 type  2   force =     0.00000000    0.00585199   -0.00114630
     atom  132 type  2   force =    -0.00068110    0.01499573   -0.00142983
     atom  133 type  2   force =     0.00039919    0.00247540   -0.00448152
     atom  134 type  2   force =    -0.00231557   -0.00377971   -0.00951364
     atom  135 type  2   force =    -0.00099029    0.00650712    0.00088954
     atom  136 type  2   force =     0.00000000    0.00495453    0.00108340
     atom  137 type  2   force =     0.00000000    0.00706295   -0.00023675
     atom  138 type  2   force =     0.00025784    0.00555833    0.00089212
     atom  139 type  2   force =     0.00233457   -0.00190408   -0.00102232
     atom  140 type  2   force =    -0.00073327    0.00382450    0.00078071
     atom  141 type  2   force =     0.00012946    0.00440810   -0.00048471
     atom  142 type  2   force =     0.00000000    0.00573652    0.00215166
     atom  143 type  2   force =     0.00000000   -0.00245863   -0.00055614
     atom  144 type  2   force =     0.00073327    0.00382450    0.00078071
     atom  145 type  2   force =    -0.00012946    0.00440810   -0.00048471
     atom  146 type  2   force =    -0.00025784    0.00555833    0.00089212
     atom  147 type  2   force =    -0.00233457   -0.00190408   -0.00102232

     Total force =     0.087185     Total SCF correction =     0.000304

     number of scf cycles    =  13
     number of bfgs steps    =  12

     energy   old            =  -12687.0130643807 Ry
     energy   new            =  -12687.0357609912 Ry

     CASE: energy  _new < energy  _old


     WARNING: bfgs curvature condition failed, Theta= 0.318
     new trust radius        =       0.6958587194 bohr
     new conv_thr            =       0.0000000100 Ry


ATOMIC_POSITIONS (angstrom)
Cu       0.000000000  -0.000657302   7.361278461
Cu       1.844736180   1.703430559   7.362043883
Cu       3.689036991   0.001453852   7.360932853
Cu       5.533337803   1.703430559   7.362043883
Cu       0.000000000   3.407039346   7.363089969
Cu       1.844359420   5.110554663   7.359676036
Cu       3.689036991   3.406037289   7.359794089
Cu       5.533714563   5.110554663   7.359676036
Cu       0.000000000   6.816243190   7.358350428
Cu       1.844497071   8.520169755   7.359240524
Cu       3.689036991   6.814162834   7.359098170
Cu       5.533576912   8.520169755   7.359240524
Cu       0.000000000  10.224590840   7.360736337
Cu       1.843998113  11.927893626   7.362408303
Cu       3.689036991  10.224654602   7.361360428
Cu       5.534075870  11.927893626   7.362408303
Cu       0.000000000  13.630411237   7.361116707
Cu       1.844584382  15.335062460   7.360211737
Cu       3.689036991  13.631384840   7.362121632
Cu       5.533489601  15.335062460   7.360211737
Cu       0.000000000   1.704581539   9.195355954
Cu       1.845031263   0.000630326   9.194013946
Cu       3.689036991   1.706976571   9.199393992
Cu       5.533042720   0.000630326   9.194013946
Cu       0.000000000   5.112973951   9.195277326
Cu       1.845491178   3.409102790   9.196862734
Cu       3.689036991   5.110275533   9.190558851
Cu       5.532582805   3.409102790   9.196862734
Cu       0.000000000   8.517988966   9.194244729
Cu       1.843119557   6.815252107   9.190275562
Cu       3.689036991   8.520750851   9.188554773
Cu       5.534954426   6.815252107   9.190275562
Cu       0.000000000  11.926025067   9.197788426
Cu       1.844013232  10.222302434   9.195940657
Cu       3.689036991  11.924201783   9.197768783
Cu       5.534060751  10.222302434   9.195940657
Cu       0.000000000  15.335622201   9.192714948
Cu       1.843970520  13.630408977   9.194537809
Cu       3.689036991  15.334707184   9.192054365
Cu       5.534103463  13.630408977   9.194537809
Cu       0.000000000   0.000730954  11.036087393
Cu       1.846113462   1.710197897  11.041277556
Cu       3.689036991  -0.001374407  11.033555980
Cu       5.531960521   1.710197897  11.041277556
Cu       0.000000000   3.414989768  11.043015830
Cu       1.849506951   5.122991145  11.050505351
Cu       3.689036991   3.433042507  11.062051722
Cu       5.528567032   5.122991145  11.050505351
Cu       0.000000000   6.817072342  11.052316621
Cu       1.848670650   8.509685553  11.047748088
Cu       3.689036991   6.815274648  11.031857348
Cu       5.529403333   8.509685553  11.047748088
Cu       0.000000000  10.214427694  11.044968170
Cu       1.845311985  11.920182046  11.041795424
Cu       3.689036991  10.196963791  11.062064398
Cu       5.532761998  11.920182046  11.041795424
Cu       0.000000000  13.630747396  11.035166847
Cu       1.844193720  15.334772164  11.034588457
Cu       3.689036991  13.632010765  11.035553177
Cu       5.533880263  15.334772164  11.034588457
Cu       0.000000000   1.712999192  12.873095419
Cu       1.844476698  -0.000400308  12.873922396
Cu       3.689036991   1.704921919  12.873107844
Cu       5.533597285  -0.000400308  12.873922396
Cu       0.000000000   5.129124224  12.894150844
Cu       1.859428027   3.437302064  12.895886188
Cu       3.689036991   5.233112106  13.028508789
Cu       5.518645956   3.437302064  12.895886188
Cu       0.000000000   8.507260153  12.905374852
Cu       1.906578573   6.823637716  12.957579524
Cu       3.689036991   8.390829643  13.028148482
Cu       5.471495410   6.823637716  12.957579524
Cu       0.000000000  11.916877007  12.876994665
Cu       1.854961343  10.191100251  12.897169159
Cu       3.689036991  11.924868140  12.870132618
Cu       5.523112640  10.191100251  12.897169159
Cu       0.000000000  15.332472294  12.876814224
Cu       1.843401628  13.630260063  12.875452033
Cu       3.689036991  15.338341423  12.877219855
Cu       5.534672355  13.630260063  12.875452033
Cu       0.000000000   0.004970593  14.685277350
Cu       1.841618659   1.701425493  14.691212802
Cu       3.689036991   0.003187970  14.703024013
Cu       5.536455324   1.701425493  14.691212802
Cu       0.000000000   3.417412529  14.696323047
Cu       1.862045376   5.128462321  14.755396220
Cu       3.689036991   3.382493394  14.713199951
Cu       5.516028607   5.128462321  14.755396220
Cu       0.000000000   6.817028996  14.661188675
Cu       1.854291799   8.522130011  14.784229665
Cu       3.689036991   6.843703281  15.805742511
Cu       5.523782184   8.522130011  14.784229665
Cu       0.000000000  10.218970236  14.720091288
Cu       1.838048110  11.925179591  14.692306216
Cu       3.689036991  10.243337797  14.688035439
Cu       5.540025873  11.925179591  14.692306216
Cu       0.000000000  13.627064133  14.700299254
Cu       1.842803182  15.335854677  14.692002169
Cu       3.689036991  13.627809909  14.684989446
Cu       5.535270801  15.335854677  14.692002169
C        0.000000000   0.749124493  17.615824710
C        0.000000000   2.183033591  17.648830320
C        1.224569135   0.019597199  17.611907837
C        1.232704643   2.891826376  17.660600123
C        2.456479012   0.737714023  17.599605832
C        2.457276601   2.171888954  17.608819505
C        3.689036991   0.014480074  17.588336939
C        3.689036991   2.884369483  17.606173360
C        4.921594970   0.737714023  17.599605832
C        4.920797381   2.171888954  17.608819505
C        6.153504848   0.019597199  17.611907837
C        6.145369340   2.891826376  17.660600123
C        0.000000000   5.002786384  17.674092782
C        0.000000000   6.408926190  17.673192427
C        1.232570891   4.312661451  17.665619696
C        1.217567375   7.114046846  17.441595647
C        2.467225026   5.034511899  17.420308050
C        2.398376696   6.421549904  16.931086316
C        3.689036991   4.313360119  17.511368315
C        4.910848956   5.034511899  17.420308050
C        4.979697286   6.421549904  16.931086316
C        6.145503092   4.312661451  17.665619696
C        6.160506608   7.114046846  17.441595647
C        0.000000000   9.218086618  17.631113561
C        0.000000000  10.621503226  17.613642852
C        1.216442035   8.511472279  17.535124067
C        1.240701232  11.305981543  17.620793197
C        2.480762807   9.144849088  17.488088907
C        2.470993973  10.582789558  17.625510418
C        3.689036991   8.422602385  17.304314407
C        3.689036991  11.301692860  17.641601863
C        4.897311175   9.144849088  17.488088907
C        4.907080009  10.582789558  17.625510418
C        6.161631948   8.511472279  17.535124067
C        6.137372751  11.305981543  17.620793197
C        0.000000000  13.448285641  17.589975155
C        0.000000000  14.883797334  17.604464592
C        1.236456264  12.733111858  17.608076252
C        1.225354513  15.617436304  17.606436248
C        2.462204324  13.454964846  17.616276178
C        2.459635202  14.890768065  17.607627795
C        3.689036991  12.733150327  17.629863706
C        3.689036991  15.617432039  17.607843099
C        4.915869658  13.454964846  17.616276178
C        4.918438780  14.890768065  17.607627795
C        6.141617719  12.733111858  17.608076252
C        6.152719470  15.617436304  17.606436248



     Writing output data file gc.save
     Check: negative starting charge=   -0.001862
     NEW-OLD atomic charge density approx. for the potential
     Check: negative starting charge=   -0.001867

     negative rho (up, down):  1.942E-03 0.000E+00

     total cpu time spent up to now is    48691.4 secs

     Self-consistent Calculation

     iteration #  1     ecut=    80.00 Ry     beta=0.70
     Davidson diagonalization with overlap
     c_bands:  2 eigenvalues not converged
     c_bands:  1 eigenvalues not converged
     ethr =  1.00E-06,  avg # of iterations = 15.3

     negative rho (up, down):  3.924E-04 0.000E+00

     total cpu time spent up to now is    49624.9 secs

     total energy              =  -12686.93430903 Ry
     Harris-Foulkes estimate   =  -12687.09895450 Ry
     estimated scf accuracy    <       1.46016137 Ry

     iteration #  2     ecut=    80.00 Ry     beta=0.70
     Davidson diagonalization with overlap
     ethr =  1.13E-04,  avg # of iterations =  2.0

     negative rho (up, down):  2.236E-04 0.000E+00

     total cpu time spent up to now is    49811.5 secs

     total energy              =  -12686.96048834 Ry
     Harris-Foulkes estimate   =  -12687.01273061 Ry
     estimated scf accuracy    <       0.20858592 Ry

     iteration #  3     ecut=    80.00 Ry     beta=0.70
     Davidson diagonalization with overlap
     ethr =  1.62E-05,  avg # of iterations =  6.7

     negative rho (up, down):  1.710E-04 0.000E+00

     total cpu time spent up to now is    50061.7 secs

     total energy              =  -12686.97540775 Ry
     Harris-Foulkes estimate   =  -12686.99892889 Ry
     estimated scf accuracy    <       0.29894403 Ry

     iteration #  4     ecut=    80.00 Ry     beta=0.70
     Davidson diagonalization with overlap
     ethr =  1.62E-05,  avg # of iterations =  1.3

     negative rho (up, down):  1.326E-04 0.000E+00

     total cpu time spent up to now is    50234.5 secs

     total energy              =  -12686.98164547 Ry
     Harris-Foulkes estimate   =  -12686.98450593 Ry
     estimated scf accuracy    <       0.02208108 Ry

     iteration #  5     ecut=    80.00 Ry     beta=0.70
     Davidson diagonalization with overlap
     ethr =  1.71E-06,  avg # of iterations = 10.2

     negative rho (up, down):  1.278E-04 0.000E+00

     total cpu time spent up to now is    50549.6 secs

     total energy              =  -12686.98230851 Ry
     Harris-Foulkes estimate   =  -12686.98334559 Ry
     estimated scf accuracy    <       0.01138562 Ry

     iteration #  6     ecut=    80.00 Ry     beta=0.70
     Davidson diagonalization with overlap
     ethr =  8.84E-07,  avg # of iterations =  1.0

     negative rho (up, down):  1.490E-04 0.000E+00

     total cpu time spent up to now is    50723.5 secs

     total energy              =  -12686.98225740 Ry
     Harris-Foulkes estimate   =  -12686.98285069 Ry
     estimated scf accuracy    <       0.00609548 Ry

     iteration #  7     ecut=    80.00 Ry     beta=0.70
     Davidson diagonalization with overlap
     ethr =  4.73E-07,  avg # of iterations =  6.2

     negative rho (up, down):  1.855E-04 0.000E+00

     total cpu time spent up to now is    50954.1 secs

     total energy              =  -12686.98246253 Ry
     Harris-Foulkes estimate   =  -12686.98249494 Ry
     estimated scf accuracy    <       0.00072783 Ry

     iteration #  8     ecut=    80.00 Ry     beta=0.70
     Davidson diagonalization with overlap
     ethr =  5.65E-08,  avg # of iterations =  2.0

     negative rho (up, down):  2.231E-04 0.000E+00

     total cpu time spent up to now is    51134.9 secs

     total energy              =  -12686.98251948 Ry
     Harris-Foulkes estimate   =  -12686.98250607 Ry
     estimated scf accuracy    <       0.00022279 Ry

     iteration #  9     ecut=    80.00 Ry     beta=0.70
     Davidson diagonalization with overlap
