
     Program PWSCF v.5.4.0 starts on  4Apr2017 at 23:42:23 

     This program is part of the open-source Quantum ESPRESSO suite
     for quantum simulation of materials; please cite
         "P. Giannozzi et al., J. Phys.:Condens. Matter 21 395502 (2009);
          URL http://www.quantum-espresso.org", 
     in publications or presentations arising from this work. More details at
     http://www.quantum-espresso.org/quote

     Parallel version (MPI & OpenMP), running on      56 processor cores
     Number of MPI processes:                56
     Threads/MPI process:                     1
     R & G space division:  proc/nbgrp/npool/nimage =      56
     Waiting for input...
     Reading input from standard input

     Current dimensions of program PWSCF are:
     Max number of different atomic species (ntypx) = 10
     Max number of k-points (npk) =  40000
     Max angular momentum in pseudopotentials (lmaxx) =  3

     -------------------------------------
     Parameters for Dispersion Correction:
     -------------------------------------
       atom      VdW radius       C_6     

        Cu         2.952        374.666
        C          2.744         60.710

     Subspace diagonalization in iterative solution of the eigenvalue problem:
     one sub-group per band group will be used
     scalapack distributed-memory algorithm (size of sub-group:  5*  5 procs)

 
     Parallelization info
     --------------------
     sticks:   dense  smooth     PW     G-vecs:    dense   smooth      PW
     Min         204     204     54                36612    36612    4962
     Max         205     205     55                36617    36617    4968
     Sum       11433   11433   3039              2050409  2050409  278033
 


     bravais-lattice index     =            0
     lattice parameter (alat)  =      13.9425  a.u.
     unit-cell volume          =   21209.0878 (a.u.)^3
     number of atoms/cell      =          147
     number of atomic types    =            2
     number of electrons       =      1288.00
     number of Kohn-Sham states=          773
     kinetic-energy cutoff     =      80.0000  Ry
     charge density cutoff     =     320.0000  Ry
     convergence threshold     =      1.0E-08
     mixing beta               =       0.7000
     number of iterations used =            8  local-TF  mixing
     Exchange-correlation      =  SLA  PW   PBX  PBC ( 1  4  3  4 0 0)
     nstep                     =           50


     celldm(1)=  13.942539  celldm(2)=   0.000000  celldm(3)=   0.000000
     celldm(4)=   0.000000  celldm(5)=   0.000000  celldm(6)=   0.000000

     crystal axes: (cart. coord. in units of alat)
               a(1) = (   1.000000   0.000000   0.000000 )  
               a(2) = (   0.000000   2.309401   0.000000 )  
               a(3) = (   0.000000   0.000000   3.388418 )  

     reciprocal axes: (cart. coord. in units 2 pi/alat)
               b(1) = (  1.000000  0.000000  0.000000 )  
               b(2) = (  0.000000  0.433013  0.000000 )  
               b(3) = (  0.000000  0.000000  0.295123 )  


     PseudoPot. # 1 for Cu read from file:
     /home/549/hxw549/Short/pseudopotentials/Cu.pbe-n-van_ak.UPF
     MD5 check sum: 601f7c30f7467666bec936e0661ce3e1
     Pseudo is Ultrasoft + core correction, Zval = 11.0
     Generated by new atomic code, or converted to UPF format
     Using radial grid of  867 points,  6 beta functions with: 
                l(1) =   0
                l(2) =   0
                l(3) =   1
                l(4) =   1
                l(5) =   2
                l(6) =   2
     Q(r) pseudized with  8 coefficients,  rinner =    1.400   1.400   1.400
                                                       1.400   1.400

     PseudoPot. # 2 for C  read from file:
     /home/549/hxw549/Short/pseudopotentials/C.pbe-mt_gipaw.UPF
     MD5 check sum: 5ac2f21f2c440b14befe521540822c15
     Pseudo is Norm-conserving, Zval =  4.0
     Generated by new atomic code, or converted to UPF format
     Using radial grid of 1073 points,  1 beta functions with: 
                l(1) =   0

     atomic species   valence    mass     pseudopotential
        Cu            11.00    63.54600     Cu( 1.00)
        C              4.00    12.01070     C ( 1.00)

      2 Sym. Ops. (no inversion) found



   Cartesian axes

     site n.     atom                  positions (alat units)
         1           Cu  tau(   1) = (   0.0000000   0.0100699   1.0055784  )
         2           Cu  tau(   2) = (   0.2498770   0.2384884   1.0054652  )
         3           Cu  tau(   3) = (   0.5000000   0.0107797   1.0058421  )
         4           Cu  tau(   4) = (   0.7501230   0.2384884   1.0054652  )
         5           Cu  tau(   5) = (   0.0000000   0.4668652   1.0045555  )
         6           Cu  tau(   6) = (   0.2499983   0.6968324   1.0038978  )
         7           Cu  tau(   7) = (   0.5000000   0.4666021   1.0043951  )
         8           Cu  tau(   8) = (   0.7500017   0.6968324   1.0038978  )
         9           Cu  tau(   9) = (   0.0000000   0.9280367   1.0038549  )
        10           Cu  tau(  10) = (   0.2498958   1.1591865   1.0029707  )
        11           Cu  tau(  11) = (   0.5000000   0.9279048   1.0037215  )
        12           Cu  tau(  12) = (   0.7501042   1.1591865   1.0029707  )
        13           Cu  tau(  13) = (   0.0000000   1.3914132   1.0022366  )
        14           Cu  tau(  14) = (   0.2499907   1.6247303   1.0024295  )
        15           Cu  tau(  15) = (   0.5000000   1.3913155   1.0025971  )
        16           Cu  tau(  16) = (   0.7500093   1.6247303   1.0024295  )
        17           Cu  tau(  17) = (   0.0000000   1.8584466   1.0031765  )
        18           Cu  tau(  18) = (   0.2503635   2.0898733   1.0047995  )
        19           Cu  tau(  19) = (   0.5000000   1.8573458   1.0037351  )
        20           Cu  tau(  20) = (   0.7496365   2.0898733   1.0047995  )
        21           Cu  tau(  21) = (   0.0000000   0.2394133   1.2565177  )
        22           Cu  tau(  22) = (   0.2501024   0.0110379   1.2558650  )
        23           Cu  tau(  23) = (   0.5000000   0.2398950   1.2571309  )
        24           Cu  tau(  24) = (   0.7498976   0.0110379   1.2558650  )
        25           Cu  tau(  25) = (   0.0000000   0.6972399   1.2530134  )
        26           Cu  tau(  26) = (   0.2500604   0.4679457   1.2550423  )
        27           Cu  tau(  27) = (   0.5000000   0.6974155   1.2524771  )
        28           Cu  tau(  28) = (   0.7499396   0.4679457   1.2550423  )
        29           Cu  tau(  29) = (   0.0000000   1.1606004   1.2502424  )
        30           Cu  tau(  30) = (   0.2498249   0.9281912   1.2513614  )
        31           Cu  tau(  31) = (   0.5000000   1.1604410   1.2503518  )
        32           Cu  tau(  32) = (   0.7501751   0.9281912   1.2513614  )
        33           Cu  tau(  33) = (   0.0000000   1.6243618   1.2485715  )
        34           Cu  tau(  34) = (   0.2501501   1.3923227   1.2498452  )
        35           Cu  tau(  35) = (   0.5000000   1.6240606   1.2499773  )
        36           Cu  tau(  36) = (   0.7498499   1.3923227   1.2498452  )
        37           Cu  tau(  37) = (   0.0000000   2.0893993   1.2525493  )
        38           Cu  tau(  38) = (   0.2500797   1.8569119   1.2501320  )
        39           Cu  tau(  39) = (   0.5000000   2.0894226   1.2521190  )
        40           Cu  tau(  40) = (   0.7499203   1.8569119   1.2501320  )
        41           Cu  tau(  41) = (   0.0000000   0.0104479   1.5057512  )
        42           Cu  tau(  42) = (   0.2502903   0.2417090   1.5095261  )
        43           Cu  tau(  43) = (   0.5000000   0.0096112   1.5054272  )
        44           Cu  tau(  44) = (   0.7497097   0.2417090   1.5095261  )
        45           Cu  tau(  45) = (   0.0000000   0.4691115   1.5060579  )
        46           Cu  tau(  46) = (   0.2501427   0.6990410   1.5033906  )
        47           Cu  tau(  47) = (   0.5000000   0.4708828   1.5072087  )
        48           Cu  tau(  48) = (   0.7498573   0.6990410   1.5033906  )
        49           Cu  tau(  49) = (   0.0000000   0.9306164   1.4992160  )
        50           Cu  tau(  50) = (   0.2501894   1.1614701   1.4986051  )
        51           Cu  tau(  51) = (   0.5000000   0.9302992   1.4988611  )
        52           Cu  tau(  52) = (   0.7498106   1.1614701   1.4986051  )
        53           Cu  tau(  53) = (   0.0000000   1.3936536   1.4979418  )
        54           Cu  tau(  54) = (   0.2504387   1.6254097   1.4973015  )
        55           Cu  tau(  55) = (   0.5000000   1.3911943   1.5003447  )
        56           Cu  tau(  56) = (   0.7495613   1.6254097   1.4973015  )
        57           Cu  tau(  57) = (   0.0000000   1.8569012   1.4977653  )
        58           Cu  tau(  58) = (   0.2499186   2.0885278   1.5012518  )
        59           Cu  tau(  59) = (   0.5000000   1.8587613   1.4983918  )
        60           Cu  tau(  60) = (   0.7500814   2.0885278   1.5012518  )
        61           Cu  tau(  61) = (   0.0000000   0.2410680   1.7569567  )
        62           Cu  tau(  62) = (   0.2493281   0.0069082   1.7548929  )
        63           Cu  tau(  63) = (   0.5000000   0.2386030   1.7565154  )
        64           Cu  tau(  64) = (   0.7506719   0.0069082   1.7548929  )
        65           Cu  tau(  65) = (   0.0000000   0.7012288   1.7488737  )
        66           Cu  tau(  66) = (   0.2532504   0.4752686   1.7613160  )
        67           Cu  tau(  67) = (   0.5000000   0.7081716   1.7560617  )
        68           Cu  tau(  68) = (   0.7467496   0.4752686   1.7613160  )
        69           Cu  tau(  69) = (   0.0000000   1.1639175   1.7470988  )
        70           Cu  tau(  70) = (   0.2516544   0.9333443   1.7485015  )
        71           Cu  tau(  71) = (   0.5000000   1.1546978   1.7550137  )
        72           Cu  tau(  72) = (   0.7483456   0.9333443   1.7485015  )
        73           Cu  tau(  73) = (   0.0000000   1.6280901   1.7445122  )
        74           Cu  tau(  74) = (   0.2507826   1.3947563   1.7445286  )
        75           Cu  tau(  75) = (   0.5000000   1.6293208   1.7432014  )
        76           Cu  tau(  76) = (   0.7492174   1.3947563   1.7445286  )
        77           Cu  tau(  77) = (   0.0000000   2.0857675   1.7513142  )
        78           Cu  tau(  78) = (   0.2498908   1.8579997   1.7476992  )
        79           Cu  tau(  79) = (   0.5000000   2.0878230   1.7534876  )
        80           Cu  tau(  80) = (   0.7501092   1.8579997   1.7476992  )
        81           Cu  tau(  81) = (   0.0000000   0.0003180   2.0026681  )
        82           Cu  tau(  82) = (   0.2417112   0.2362782   2.0006435  )
        83           Cu  tau(  83) = (   0.5000000   0.0093838   2.0037216  )
        84           Cu  tau(  84) = (   0.7582888   0.2362782   2.0006435  )
        85           Cu  tau(  85) = (   0.0000000   0.4821823   1.9960682  )
        86           Cu  tau(  86) = (   0.2672238   0.7142462   2.0021111  )
        87           Cu  tau(  87) = (   0.5000000   0.4581029   2.0068999  )
        88           Cu  tau(  88) = (   0.7327762   0.7142462   2.0021111  )
        89           Cu  tau(  89) = (   0.0000000   0.9286585   1.9828833  )
        90           Cu  tau(  90) = (   0.2487059   1.1689663   1.9917948  )
        91           Cu  tau(  91) = (   0.5000000   0.9477014   2.1064553  )
        92           Cu  tau(  92) = (   0.7512941   1.1689663   1.9917948  )
        93           Cu  tau(  93) = (   0.0000000   1.4014088   1.9875679  )
        94           Cu  tau(  94) = (   0.2489671   1.6280309   1.9914622  )
        95           Cu  tau(  95) = (   0.5000000   1.4025499   1.9821015  )
        96           Cu  tau(  96) = (   0.7510329   1.6280309   1.9914622  )
        97           Cu  tau(  97) = (   0.0000000   1.8559637   1.9981960  )
        98           Cu  tau(  98) = (   0.2522626   2.0837293   2.0016165  )
        99           Cu  tau(  99) = (   0.5000000   1.8539500   1.9979095  )
       100           Cu  tau( 100) = (   0.7477374   2.0837293   2.0016165  )
       101           C   tau( 101) = (   0.0000000   0.0786863   2.4124321  )
       102           C   tau( 102) = (   0.0000000   0.2715813   2.4079571  )
       103           C   tau( 103) = (   0.1668798  -0.0178696   2.4119336  )
       104           C   tau( 104) = (   0.1666475   0.3678111   2.3966681  )
       105           C   tau( 105) = (   0.3333339   0.0786138   2.4049373  )
       106           C   tau( 106) = (   0.3332954   0.2709976   2.3920896  )
       107           C   tau( 107) = (   0.5000000  -0.0182189   2.4047115  )
       108           C   tau( 108) = (   0.5000000   0.3667353   2.3729136  )
       109           C   tau( 109) = (   0.6666661   0.0786138   2.4049373  )
       110           C   tau( 110) = (   0.6667046   0.2709976   2.3920896  )
       111           C   tau( 111) = (   0.8331202  -0.0178696   2.4119336  )
       112           C   tau( 112) = (   0.8333525   0.3678111   2.3966681  )
       113           C   tau( 113) = (   0.0000000   0.6561206   2.3705997  )
       114           C   tau( 114) = (   0.0000000   0.8479882   2.3486379  )
       115           C   tau( 115) = (   0.1664613   0.5592368   2.3754314  )
       116           C   tau( 116) = (   0.1651838   0.9422987   2.3135760  )
       117           C   tau( 117) = (   0.3294123   0.6512156   2.3228223  )
       118           C   tau( 118) = (   0.3151500   0.8326854   2.2593516  )
       119           C   tau( 119) = (   0.5000000   0.5551435   2.3288861  )
       120           C   tau( 120) = (   0.6705877   0.6512156   2.3228223  )
       121           C   tau( 121) = (   0.6848500   0.8326854   2.2593516  )
       122           C   tau( 122) = (   0.8335387   0.5592368   2.3754314  )
       123           C   tau( 123) = (   0.8348162   0.9422987   2.3135760  )
       124           C   tau( 124) = (   0.0000000   1.2325976   2.3413153  )
       125           C   tau( 125) = (   0.0000000   1.4238490   2.3686766  )
       126           C   tau( 126) = (   0.1668541   1.1373690   2.3165673  )
       127           C   tau( 127) = (   0.1665673   1.5205638   2.3841874  )
       128           C   tau( 128) = (   0.3340869   1.2378850   2.3215011  )
       129           C   tau( 129) = (   0.3330801   1.4256197   2.3714810  )
       130           C   tau( 130) = (   0.5000000   1.1571310   2.2712833  )
       131           C   tau( 131) = (   0.5000000   1.5208058   2.3853156  )
       132           C   tau( 132) = (   0.6659131   1.2378850   2.3215011  )
       133           C   tau( 133) = (   0.6669199   1.4256197   2.3714810  )
       134           C   tau( 134) = (   0.8331459   1.1373690   2.3165673  )
       135           C   tau( 135) = (   0.8334327   1.5205638   2.3841874  )
       136           C   tau( 136) = (   0.0000000   1.8097284   2.4026046  )
       137           C   tau( 137) = (   0.0000000   2.0024500   2.4094777  )
       138           C   tau( 138) = (   0.1666325   1.7129189   2.3998940  )
       139           C   tau( 139) = (   0.1668253   2.0987181   2.4110175  )
       140           C   tau( 140) = (   0.3333898   1.8090508   2.4068811  )
       141           C   tau( 141) = (   0.3335402   2.0018732   2.4107284  )
       142           C   tau( 142) = (   0.5000000   1.7127287   2.4032673  )
       143           C   tau( 143) = (   0.5000000   2.0984029   2.4107194  )
       144           C   tau( 144) = (   0.6666102   1.8090508   2.4068811  )
       145           C   tau( 145) = (   0.6664598   2.0018732   2.4107284  )
       146           C   tau( 146) = (   0.8333675   1.7129189   2.3998940  )
       147           C   tau( 147) = (   0.8331747   2.0987181   2.4110175  )

     number of k points=     6  gaussian smearing, width (Ry)=  0.1000
                       cart. coord. in units 2pi/alat
        k(    1) = (   0.0000000   0.0000000   0.0000000), wk =   0.2500000
        k(    2) = (   0.0000000  -0.2165064   0.0000000), wk =   0.2500000
        k(    3) = (   0.2500000   0.0000000   0.0000000), wk =   0.5000000
        k(    4) = (   0.2500000  -0.2165064   0.0000000), wk =   0.5000000
        k(    5) = (  -0.5000000   0.0000000   0.0000000), wk =   0.2500000
        k(    6) = (  -0.5000000  -0.2165064   0.0000000), wk =   0.2500000

     Dense  grid:  2050409 G-vectors     FFT dimensions: (  80, 192, 270)

     Largest allocated arrays     est. size (Mb)     dimensions
        Kohn-Sham Wavefunctions        54.30 Mb     (    4604,  773)
        NL pseudopotentials           129.75 Mb     (    4604, 1847)
        Each V/rho on FFT grid          1.17 Mb     (   76800)
        Each G-vector array             0.28 Mb     (   36616)
        G-vector shells                 0.14 Mb     (   17932)
     Largest temporary arrays     est. size (Mb)     dimensions
        Auxiliary wavefunctions       217.22 Mb     (    4604, 3092)
        Each subspace H/S matrix        5.83 Mb     (     618,  618)
        Each <psi_i|beta_j> matrix     21.79 Mb     (    1847,  773)
        Arrays for rho mixing           9.38 Mb     (   76800,    8)

     Initial potential from superposition of free atoms
     Check: negative starting charge=   -0.001863

     starting charge 1263.31751, renormalised to 1288.00000

     negative rho (up, down):  1.899E-03 0.000E+00
     Starting wfc are 1276 randomized atomic wfcs

     total cpu time spent up to now is      105.3 secs

     Self-consistent Calculation

     iteration #  1     ecut=    80.00 Ry     beta=0.70
     Davidson diagonalization with overlap
     c_bands:  1 eigenvalues not converged
     c_bands:  1 eigenvalues not converged
     ethr =  1.00E-04,  avg # of iterations = 20.3

     negative rho (up, down):  2.642E+01 0.000E+00

     total cpu time spent up to now is     1758.3 secs

     total energy              =   -9723.11924092 Ry
     Harris-Foulkes estimate   =  -16801.80157668 Ry
     estimated scf accuracy    <  163942.56680418 Ry

     iteration #  2     ecut=    80.00 Ry     beta=0.70
     Davidson diagonalization with overlap
     ethr =  1.00E-02,  avg # of iterations =  9.5

     negative rho (up, down):  2.721E+01 0.000E+00

     total cpu time spent up to now is     2642.6 secs

     total energy              =  -12849.78381949 Ry
     Harris-Foulkes estimate   =  -13449.73728539 Ry
     estimated scf accuracy    <    7646.86899357 Ry

     iteration #  3     ecut=    80.00 Ry     beta=0.70
     Davidson diagonalization with overlap
     ethr =  1.00E-02,  avg # of iterations =  5.0

     negative rho (up, down):  2.654E+01 0.000E+00

     total cpu time spent up to now is     3024.9 secs

     total energy              =  -13225.64452654 Ry
     Harris-Foulkes estimate   =  -13132.43330776 Ry
     estimated scf accuracy    <   14410.07684224 Ry

     iteration #  4     ecut=    80.00 Ry     beta=0.70
     Davidson diagonalization with overlap
     ethr =  1.00E-02,  avg # of iterations =  9.0

     negative rho (up, down):  2.355E+01 0.000E+00

     total cpu time spent up to now is     3294.4 secs

     total energy              =  -13016.78304566 Ry
     Harris-Foulkes estimate   =  -13235.65223067 Ry
     estimated scf accuracy    <   18956.50728078 Ry

     iteration #  5     ecut=    80.00 Ry     beta=0.70
     Davidson diagonalization with overlap
     ethr =  1.00E-02,  avg # of iterations =  5.0

     negative rho (up, down):  2.011E+01 0.000E+00

     total cpu time spent up to now is     3767.2 secs

     total energy              =  -12975.76247529 Ry
     Harris-Foulkes estimate   =  -13276.93998739 Ry
     estimated scf accuracy    <    7301.57991571 Ry

     iteration #  6     ecut=    80.00 Ry     beta=0.70
     Davidson diagonalization with overlap
     ethr =  1.00E-02,  avg # of iterations =  5.7

     negative rho (up, down):  1.764E+01 0.000E+00

     total cpu time spent up to now is     4258.1 secs

     total energy              =  -13010.42819587 Ry
     Harris-Foulkes estimate   =  -13130.95106240 Ry
     estimated scf accuracy    <    2929.26167004 Ry

     iteration #  7     ecut=    80.00 Ry     beta=0.70
     Davidson diagonalization with overlap
     ethr =  1.00E-02,  avg # of iterations =  4.5

     negative rho (up, down):  1.585E+01 0.000E+00

     total cpu time spent up to now is     4489.8 secs

     total energy              =  -12962.37990832 Ry
     Harris-Foulkes estimate   =  -13037.41737960 Ry
     estimated scf accuracy    <    2328.17120646 Ry

     iteration #  8     ecut=    80.00 Ry     beta=0.70
     Davidson diagonalization with overlap
     ethr =  1.00E-02,  avg # of iterations =  3.0

     negative rho (up, down):  1.270E+01 0.000E+00

     total cpu time spent up to now is     4681.1 secs

     total energy              =  -12879.40372117 Ry
     Harris-Foulkes estimate   =  -12980.24718255 Ry
     estimated scf accuracy    <    1947.46021650 Ry

     iteration #  9     ecut=    80.00 Ry     beta=0.70
     Davidson diagonalization with overlap
     ethr =  1.00E-02,  avg # of iterations =  3.0

     negative rho (up, down):  1.245E+01 0.000E+00

     total cpu time spent up to now is     4889.3 secs

     total energy              =  -12889.82976474 Ry
     Harris-Foulkes estimate   =  -12898.39742112 Ry
     estimated scf accuracy    <    1057.46179182 Ry

     iteration # 10     ecut=    80.00 Ry     beta=0.70
     Davidson diagonalization with overlap
     ethr =  1.00E-02,  avg # of iterations =  1.0

     negative rho (up, down):  1.567E+01 0.000E+00

     total cpu time spent up to now is     5052.7 secs

     total energy              =  -12922.96091770 Ry
     Harris-Foulkes estimate   =  -12890.96806023 Ry
     estimated scf accuracy    <    1037.97872772 Ry

     iteration # 11     ecut=    80.00 Ry     beta=0.70
     Davidson diagonalization with overlap
     ethr =  1.00E-02,  avg # of iterations =  1.2

     negative rho (up, down):  1.223E+01 0.000E+00

     total cpu time spent up to now is     5217.2 secs

     total energy              =  -12878.84207371 Ry
     Harris-Foulkes estimate   =  -12927.17521330 Ry
     estimated scf accuracy    <    1073.56340541 Ry

     iteration # 12     ecut=    80.00 Ry     beta=0.70
     Davidson diagonalization with overlap
     ethr =  1.00E-02,  avg # of iterations =  4.0

     negative rho (up, down):  6.074E+00 0.000E+00

     total cpu time spent up to now is     5415.3 secs

     total energy              =  -12548.59034770 Ry
     Harris-Foulkes estimate   =  -12882.87941634 Ry
     estimated scf accuracy    <    1003.72956071 Ry

     iteration # 13     ecut=    80.00 Ry     beta=0.70
     Davidson diagonalization with overlap
     ethr =  1.00E-02,  avg # of iterations = 10.0

     negative rho (up, down):  2.104E+00 0.000E+00

     total cpu time spent up to now is     6064.9 secs

     total energy              =  -12873.00778166 Ry
     Harris-Foulkes estimate   =  -13417.84569346 Ry
     estimated scf accuracy    <    5769.90253631 Ry

     iteration # 14     ecut=    80.00 Ry     beta=0.70
     Davidson diagonalization with overlap
     ethr =  1.00E-02,  avg # of iterations =  4.0

     negative rho (up, down):  3.797E+00 0.000E+00

     total cpu time spent up to now is     6298.9 secs

     total energy              =  -12738.94485104 Ry
     Harris-Foulkes estimate   =  -12941.44222472 Ry
     estimated scf accuracy    <    2035.62042329 Ry

     iteration # 15     ecut=    80.00 Ry     beta=0.70
     Davidson diagonalization with overlap
     ethr =  1.00E-02,  avg # of iterations =  4.0

     negative rho (up, down):  2.921E+00 0.000E+00

     total cpu time spent up to now is     6523.5 secs

     total energy              =  -12772.71603043 Ry
     Harris-Foulkes estimate   =  -12797.69076387 Ry
     estimated scf accuracy    <     576.02462657 Ry

     iteration # 16     ecut=    80.00 Ry     beta=0.70
     Davidson diagonalization with overlap
     ethr =  1.00E-02,  avg # of iterations =  3.0

     negative rho (up, down):  1.806E+00 0.000E+00

     total cpu time spent up to now is     6713.9 secs

     total energy              =  -12747.03063048 Ry
     Harris-Foulkes estimate   =  -12783.97017155 Ry
     estimated scf accuracy    <     674.31631901 Ry

     iteration # 17     ecut=    80.00 Ry     beta=0.70
     Davidson diagonalization with overlap
     ethr =  1.00E-02,  avg # of iterations =  3.0

     negative rho (up, down):  1.186E+00 0.000E+00

     total cpu time spent up to now is     6916.5 secs

     total energy              =  -12734.50608199 Ry
     Harris-Foulkes estimate   =  -12778.98976287 Ry
     estimated scf accuracy    <     360.96683110 Ry

     iteration # 18     ecut=    80.00 Ry     beta=0.70
     Davidson diagonalization with overlap
     ethr =  1.00E-02,  avg # of iterations =  3.0

     negative rho (up, down):  7.222E-01 0.000E+00

     total cpu time spent up to now is     7110.2 secs

     total energy              =  -12734.41403854 Ry
     Harris-Foulkes estimate   =  -12773.94035464 Ry
     estimated scf accuracy    <     518.49552481 Ry

     iteration # 19     ecut=    80.00 Ry     beta=0.70
     Davidson diagonalization with overlap
     ethr =  1.00E-02,  avg # of iterations =  2.0

     negative rho (up, down):  7.750E-01 0.000E+00

     total cpu time spent up to now is     7288.1 secs

     total energy              =  -12724.35442958 Ry
     Harris-Foulkes estimate   =  -12758.64771372 Ry
     estimated scf accuracy    <     470.11267727 Ry

     iteration # 20     ecut=    80.00 Ry     beta=0.70
     Davidson diagonalization with overlap
     ethr =  1.00E-02,  avg # of iterations =  2.0

     negative rho (up, down):  1.209E+00 0.000E+00

     total cpu time spent up to now is     7468.6 secs

     total energy              =  -12739.25482707 Ry
     Harris-Foulkes estimate   =  -12742.83410612 Ry
     estimated scf accuracy    <     227.73671194 Ry

     iteration # 21     ecut=    80.00 Ry     beta=0.70
     Davidson diagonalization with overlap
     ethr =  1.00E-02,  avg # of iterations =  1.7

     negative rho (up, down):  1.138E+00 0.000E+00

     total cpu time spent up to now is     7639.7 secs

     total energy              =  -12742.13211369 Ry
     Harris-Foulkes estimate   =  -12741.42596601 Ry
     estimated scf accuracy    <     171.83877552 Ry

     iteration # 22     ecut=    80.00 Ry     beta=0.70
     Davidson diagonalization with overlap
     ethr =  1.00E-02,  avg # of iterations =  1.0

     negative rho (up, down):  1.439E+00 0.000E+00

     total cpu time spent up to now is     7803.9 secs

     total energy              =  -12738.64755162 Ry
     Harris-Foulkes estimate   =  -12742.44397502 Ry
     estimated scf accuracy    <     192.30822084 Ry

     iteration # 23     ecut=    80.00 Ry     beta=0.70
     Davidson diagonalization with overlap
     ethr =  1.00E-02,  avg # of iterations =  1.8

     negative rho (up, down):  1.100E+00 0.000E+00

     total cpu time spent up to now is     7977.7 secs

     total energy              =  -12734.11099997 Ry
     Harris-Foulkes estimate   =  -12741.15289309 Ry
     estimated scf accuracy    <     135.62171538 Ry

     iteration # 24     ecut=    80.00 Ry     beta=0.70
     Davidson diagonalization with overlap
     ethr =  1.00E-02,  avg # of iterations =  2.0

     negative rho (up, down):  6.566E-01 0.000E+00

     total cpu time spent up to now is     8153.0 secs

     total energy              =  -12713.21708569 Ry
     Harris-Foulkes estimate   =  -12739.24462757 Ry
     estimated scf accuracy    <     180.63288411 Ry

     iteration # 25     ecut=    80.00 Ry     beta=0.70
     Davidson diagonalization with overlap
     ethr =  1.00E-02,  avg # of iterations =  2.0

     negative rho (up, down):  7.051E-01 0.000E+00

     total cpu time spent up to now is     8330.4 secs

     total energy              =  -12710.17909104 Ry
     Harris-Foulkes estimate   =  -12726.83795647 Ry
     estimated scf accuracy    <     172.36715893 Ry

     iteration # 26     ecut=    80.00 Ry     beta=0.70
     Davidson diagonalization with overlap
     ethr =  1.00E-02,  avg # of iterations =  2.0

     negative rho (up, down):  1.114E+00 0.000E+00

     total cpu time spent up to now is     8505.9 secs

     total energy              =  -12708.30564699 Ry
     Harris-Foulkes estimate   =  -12721.09408590 Ry
     estimated scf accuracy    <      94.66035414 Ry

     iteration # 27     ecut=    80.00 Ry     beta=0.70
     Davidson diagonalization with overlap
     ethr =  7.35E-03,  avg # of iterations =  2.5

     negative rho (up, down):  5.260E-01 0.000E+00

     total cpu time spent up to now is     8687.5 secs

     total energy              =  -12708.17564929 Ry
     Harris-Foulkes estimate   =  -12715.87014534 Ry
     estimated scf accuracy    <     143.87838423 Ry

     iteration # 28     ecut=    80.00 Ry     beta=0.70
     Davidson diagonalization with overlap
     ethr =  7.35E-03,  avg # of iterations =  2.7

     negative rho (up, down):  1.771E+00 0.000E+00

     total cpu time spent up to now is     8874.8 secs

     total energy              =  -12698.88539597 Ry
     Harris-Foulkes estimate   =  -12717.67493557 Ry
     estimated scf accuracy    <      73.68171551 Ry

     iteration # 29     ecut=    80.00 Ry     beta=0.70
     Davidson diagonalization with overlap
     ethr =  5.72E-03,  avg # of iterations =  2.2

     negative rho (up, down):  1.392E+00 0.000E+00

     total cpu time spent up to now is     9051.3 secs

     total energy              =  -12692.53473945 Ry
     Harris-Foulkes estimate   =  -12703.06061234 Ry
     estimated scf accuracy    <      83.85938835 Ry

     iteration # 30     ecut=    80.00 Ry     beta=0.70
     Davidson diagonalization with overlap
     ethr =  5.72E-03,  avg # of iterations =  2.0

     negative rho (up, down):  4.125E+00 0.000E+00

     total cpu time spent up to now is     9226.3 secs

     total energy              =  -12695.00600914 Ry
     Harris-Foulkes estimate   =  -12701.27020985 Ry
     estimated scf accuracy    <      45.44185671 Ry

     iteration # 31     ecut=    80.00 Ry     beta=0.70
     Davidson diagonalization with overlap
     ethr =  3.53E-03,  avg # of iterations =  2.3

     negative rho (up, down):  4.730E+00 0.000E+00

     total cpu time spent up to now is     9405.6 secs

     total energy              =  -12696.06582812 Ry
     Harris-Foulkes estimate   =  -12697.91923069 Ry
     estimated scf accuracy    <      21.86106867 Ry

     iteration # 32     ecut=    80.00 Ry     beta=0.70
     Davidson diagonalization with overlap
     ethr =  1.70E-03,  avg # of iterations =  5.7

     negative rho (up, down):  4.540E+00 0.000E+00

     total cpu time spent up to now is     9628.3 secs

     total energy              =  -12695.64777380 Ry
     Harris-Foulkes estimate   =  -12696.55724894 Ry
     estimated scf accuracy    <      19.42723214 Ry

     iteration # 33     ecut=    80.00 Ry     beta=0.70
     Davidson diagonalization with overlap
     ethr =  1.51E-03,  avg # of iterations =  1.0

     negative rho (up, down):  3.793E+00 0.000E+00

     total cpu time spent up to now is     9792.3 secs

     total energy              =  -12694.10416334 Ry
     Harris-Foulkes estimate   =  -12695.92370534 Ry
     estimated scf accuracy    <      13.82650661 Ry

     iteration # 34     ecut=    80.00 Ry     beta=0.70
     Davidson diagonalization with overlap
     ethr =  1.07E-03,  avg # of iterations =  1.8

     negative rho (up, down):  1.820E+00 0.000E+00

     total cpu time spent up to now is     9965.1 secs

     total energy              =  -12691.89965800 Ry
     Harris-Foulkes estimate   =  -12694.32395447 Ry
     estimated scf accuracy    <      11.73884920 Ry

     iteration # 35     ecut=    80.00 Ry     beta=0.70
     Davidson diagonalization with overlap
     ethr =  9.11E-04,  avg # of iterations =  2.0

     negative rho (up, down):  1.214E+00 0.000E+00

     total cpu time spent up to now is    10141.8 secs

     total energy              =  -12691.32289046 Ry
     Harris-Foulkes estimate   =  -12692.36987654 Ry
     estimated scf accuracy    <       9.86484899 Ry

     iteration # 36     ecut=    80.00 Ry     beta=0.70
     Davidson diagonalization with overlap
     ethr =  7.66E-04,  avg # of iterations =  1.2

     negative rho (up, down):  3.686E-01 0.000E+00

     total cpu time spent up to now is    10307.6 secs

     total energy              =  -12690.61286100 Ry
     Harris-Foulkes estimate   =  -12691.66795615 Ry
     estimated scf accuracy    <       8.19674463 Ry

     iteration # 37     ecut=    80.00 Ry     beta=0.70
     Davidson diagonalization with overlap
     ethr =  6.36E-04,  avg # of iterations =  5.7

     negative rho (up, down):  7.967E-02 0.000E+00

     total cpu time spent up to now is    10524.0 secs

     total energy              =  -12689.40571512 Ry
     Harris-Foulkes estimate   =  -12690.78171572 Ry
     estimated scf accuracy    <       7.42947704 Ry

     iteration # 38     ecut=    80.00 Ry     beta=0.70
     Davidson diagonalization with overlap
     ethr =  5.77E-04,  avg # of iterations =  2.5

     negative rho (up, down):  6.340E-01 0.000E+00

     total cpu time spent up to now is    10703.4 secs

     total energy              =  -12687.89692486 Ry
     Harris-Foulkes estimate   =  -12689.50168390 Ry
     estimated scf accuracy    <       5.91744659 Ry

     iteration # 39     ecut=    80.00 Ry     beta=0.70
     Davidson diagonalization with overlap
     ethr =  4.59E-04,  avg # of iterations =  5.0

     negative rho (up, down):  7.482E-01 0.000E+00

     total cpu time spent up to now is    10914.2 secs

     total energy              =  -12687.38035651 Ry
     Harris-Foulkes estimate   =  -12688.03414215 Ry
     estimated scf accuracy    <       5.18594475 Ry

     iteration # 40     ecut=    80.00 Ry     beta=0.70
     Davidson diagonalization with overlap
     ethr =  4.03E-04,  avg # of iterations =  3.2

     negative rho (up, down):  8.344E-01 0.000E+00

     total cpu time spent up to now is    11102.8 secs

     total energy              =  -12687.19260781 Ry
     Harris-Foulkes estimate   =  -12687.60297872 Ry
     estimated scf accuracy    <       2.28768348 Ry

     iteration # 41     ecut=    80.00 Ry     beta=0.70
     Davidson diagonalization with overlap
     ethr =  1.78E-04,  avg # of iterations = 10.2

     negative rho (up, down):  7.181E-01 0.000E+00

     total cpu time spent up to now is    11414.7 secs

     total energy              =  -12687.15019553 Ry
     Harris-Foulkes estimate   =  -12687.31999307 Ry
     estimated scf accuracy    <       1.31869328 Ry

     iteration # 42     ecut=    80.00 Ry     beta=0.70
     Davidson diagonalization with overlap
     ethr =  1.02E-04,  avg # of iterations =  7.5

     negative rho (up, down):  6.035E-01 0.000E+00

     total cpu time spent up to now is    11670.1 secs

     total energy              =  -12687.16248643 Ry
     Harris-Foulkes estimate   =  -12687.22330026 Ry
     estimated scf accuracy    <       0.45874241 Ry

     iteration # 43     ecut=    80.00 Ry     beta=0.70
     Davidson diagonalization with overlap
     c_bands:  1 eigenvalues not converged
     ethr =  3.56E-05,  avg # of iterations =  9.3

     negative rho (up, down):  4.297E-01 0.000E+00

     total cpu time spent up to now is    11937.2 secs

     total energy              =  -12687.15015736 Ry
     Harris-Foulkes estimate   =  -12687.18700958 Ry
     estimated scf accuracy    <       0.20345359 Ry

     iteration # 44     ecut=    80.00 Ry     beta=0.70
     Davidson diagonalization with overlap
     ethr =  1.58E-05,  avg # of iterations =  7.3

     negative rho (up, down):  3.766E-01 0.000E+00

     total cpu time spent up to now is    12197.5 secs

     total energy              =  -12687.15965801 Ry
     Harris-Foulkes estimate   =  -12687.16619604 Ry
     estimated scf accuracy    <       0.05817347 Ry

     iteration # 45     ecut=    80.00 Ry     beta=0.70
     Davidson diagonalization with overlap
     ethr =  4.52E-06,  avg # of iterations =  4.3

     negative rho (up, down):  2.427E-01 0.000E+00

     total cpu time spent up to now is    12406.5 secs

     total energy              =  -12687.15459258 Ry
     Harris-Foulkes estimate   =  -12687.16244659 Ry
     estimated scf accuracy    <       0.02879910 Ry

     iteration # 46     ecut=    80.00 Ry     beta=0.70
     Davidson diagonalization with overlap
     ethr =  2.24E-06,  avg # of iterations = 11.5

     negative rho (up, down):  9.495E-02 0.000E+00

     total cpu time spent up to now is    12729.4 secs

     total energy              =  -12687.14846598 Ry
     Harris-Foulkes estimate   =  -12687.15643088 Ry
     estimated scf accuracy    <       0.01419335 Ry

     iteration # 47     ecut=    80.00 Ry     beta=0.70
     Davidson diagonalization with overlap
     ethr =  1.10E-06,  avg # of iterations = 14.3

     negative rho (up, down):  7.120E-02 0.000E+00

     total cpu time spent up to now is    13096.8 secs

     total energy              =  -12687.14882968 Ry
     Harris-Foulkes estimate   =  -12687.14979512 Ry
     estimated scf accuracy    <       0.00698744 Ry

     iteration # 48     ecut=    80.00 Ry     beta=0.70
     Davidson diagonalization with overlap
     c_bands:  1 eigenvalues not converged
     ethr =  5.43E-07,  avg # of iterations = 11.7

     negative rho (up, down):  1.523E-02 0.000E+00

     total cpu time spent up to now is    13396.9 secs

     total energy              =  -12687.14779109 Ry
     Harris-Foulkes estimate   =  -12687.14924453 Ry
     estimated scf accuracy    <       0.00230303 Ry

     iteration # 49     ecut=    80.00 Ry     beta=0.70
     Davidson diagonalization with overlap
     c_bands:  1 eigenvalues not converged
     c_bands:  2 eigenvalues not converged
     c_bands:  1 eigenvalues not converged
     ethr =  1.79E-07,  avg # of iterations = 17.0

     negative rho (up, down):  1.801E-03 0.000E+00

     total cpu time spent up to now is    13792.7 secs

     total energy              =  -12687.14756305 Ry
     Harris-Foulkes estimate   =  -12687.14796222 Ry
     estimated scf accuracy    <       0.00052892 Ry

     iteration # 50     ecut=    80.00 Ry     beta=0.70
     Davidson diagonalization with overlap
     ethr =  4.11E-08,  avg # of iterations = 11.8

     negative rho (up, down):  1.335E-03 0.000E+00

     total cpu time spent up to now is    14114.9 secs

     total energy              =  -12687.14763068 Ry
     Harris-Foulkes estimate   =  -12687.14761876 Ry
     estimated scf accuracy    <       0.00012434 Ry

     iteration # 51     ecut=    80.00 Ry     beta=0.70
     Davidson diagonalization with overlap
     ethr =  9.65E-09,  avg # of iterations =  6.0

     negative rho (up, down):  1.258E-03 0.000E+00

     total cpu time spent up to now is    14344.7 secs

     total energy              =  -12687.14764811 Ry
     Harris-Foulkes estimate   =  -12687.14764150 Ry
     estimated scf accuracy    <       0.00004669 Ry

     iteration # 52     ecut=    80.00 Ry     beta=0.70
     Davidson diagonalization with overlap
     c_bands:  1 eigenvalues not converged
     ethr =  3.63E-09,  avg # of iterations =  8.7

     negative rho (up, down):  1.692E-03 0.000E+00

     total cpu time spent up to now is    14607.4 secs

     total energy              =  -12687.14766855 Ry
     Harris-Foulkes estimate   =  -12687.14765193 Ry
     estimated scf accuracy    <       0.00001967 Ry

     iteration # 53     ecut=    80.00 Ry     beta=0.70
     Davidson diagonalization with overlap
     ethr =  1.53E-09,  avg # of iterations =  9.3

     negative rho (up, down):  2.198E-03 0.000E+00

     total cpu time spent up to now is    14881.1 secs

     total energy              =  -12687.14767750 Ry
     Harris-Foulkes estimate   =  -12687.14767078 Ry
     estimated scf accuracy    <       0.00000830 Ry

     iteration # 54     ecut=    80.00 Ry     beta=0.70
     Davidson diagonalization with overlap
     c_bands:  1 eigenvalues not converged
     c_bands:  2 eigenvalues not converged
     ethr =  6.45E-10,  avg # of iterations =  8.8

     negative rho (up, down):  2.081E-03 0.000E+00

     total cpu time spent up to now is    15152.3 secs

     total energy              =  -12687.14767820 Ry
     Harris-Foulkes estimate   =  -12687.14767855 Ry
     estimated scf accuracy    <       0.00000141 Ry

     iteration # 55     ecut=    80.00 Ry     beta=0.70
     Davidson diagonalization with overlap
     ethr =  1.09E-10,  avg # of iterations =  2.2

     negative rho (up, down):  2.000E-03 0.000E+00

     total cpu time spent up to now is    15345.0 secs

     total energy              =  -12687.14767828 Ry
     Harris-Foulkes estimate   =  -12687.14767837 Ry
     estimated scf accuracy    <       0.00000041 Ry

     iteration # 56     ecut=    80.00 Ry     beta=0.70
     Davidson diagonalization with overlap
     ethr =  3.19E-11,  avg # of iterations =  2.8

     negative rho (up, down):  2.002E-03 0.000E+00

     total cpu time spent up to now is    15560.3 secs

     total energy              =  -12687.14767826 Ry
     Harris-Foulkes estimate   =  -12687.14767835 Ry
     estimated scf accuracy    <       0.00000014 Ry

     iteration # 57     ecut=    80.00 Ry     beta=0.70
     Davidson diagonalization with overlap
     ethr =  1.11E-11,  avg # of iterations =  2.2

     negative rho (up, down):  1.947E-03 0.000E+00

     total cpu time spent up to now is    15761.8 secs

     total energy              =  -12687.14767828 Ry
     Harris-Foulkes estimate   =  -12687.14767829 Ry
     estimated scf accuracy    <       0.00000005 Ry

     iteration # 58     ecut=    80.00 Ry     beta=0.70
     Davidson diagonalization with overlap
     ethr =  3.99E-12,  avg # of iterations =  2.0

     negative rho (up, down):  1.921E-03 0.000E+00

     total cpu time spent up to now is    15942.0 secs

     total energy              =  -12687.14767831 Ry
     Harris-Foulkes estimate   =  -12687.14767829 Ry
     estimated scf accuracy    <       0.00000001 Ry

     iteration # 59     ecut=    80.00 Ry     beta=0.70
     Davidson diagonalization with overlap
     ethr =  1.02E-12,  avg # of iterations =  2.7

     negative rho (up, down):  1.933E-03 0.000E+00

     total cpu time spent up to now is    16126.3 secs

     End of self-consistent calculation

          k = 0.0000 0.0000 0.0000 (256287 PWs)   bands (ev):

   -16.0185 -15.7121 -15.5527 -14.5984 -14.5355 -14.0808 -14.0007 -13.7780
   -13.7471 -13.6568 -13.3748 -12.8293 -12.8002 -12.7283 -12.5959 -12.5888
   -11.8587 -11.0537 -10.9649 -10.9448 -10.8439 -10.2196  -9.6009  -9.1856
    -9.0854  -9.0637  -8.6195  -8.2506  -8.2063  -8.0625  -7.7049  -7.2955
    -7.2484  -7.1986  -7.1706  -7.1663  -6.7996  -6.7336  -6.1957  -5.7598
    -5.6613  -5.6458  -5.5768  -5.5001  -5.4988  -5.2353  -5.2272  -5.1002
    -5.0508  -4.9247  -4.6804  -4.4442  -4.3754  -4.2678  -4.2313  -4.2177
    -3.9487  -3.8645  -3.7491  -3.7279  -3.7138  -3.3328  -3.2754  -3.2400
    -3.1782  -3.1681  -3.1437  -3.0976  -3.0747  -2.9846  -2.8927  -2.8810
    -2.7942  -2.7558  -2.7474  -2.7472  -2.7162  -2.6697  -2.6287  -2.5976
    -2.5780  -2.5499  -2.4915  -2.4633  -2.4308  -2.3721  -2.3358  -2.2248
    -2.1976  -2.1700  -2.1570  -2.0833  -2.0050  -2.0010  -1.9516  -1.9365
    -1.9124  -1.8931  -1.8897  -1.8866  -1.8853  -1.8572  -1.8453  -1.8130
    -1.7627  -1.7599  -1.7545  -1.7435  -1.7154  -1.6845  -1.6618  -1.6357
    -1.5642  -1.5110  -1.4881  -1.4706  -1.4679  -1.4581  -1.4324  -1.4164
    -1.4060  -1.3905  -1.3839  -1.3561  -1.3478  -1.3144  -1.3061  -1.3052
    -1.2928  -1.2845  -1.2632  -1.2611  -1.2511  -1.2439  -1.2294  -1.2273
    -1.1956  -1.1804  -1.1496  -1.1415  -1.1400  -1.1170  -1.1108  -1.0649
    -1.0321  -1.0267  -1.0010  -0.9920  -0.9837  -0.9461  -0.9417  -0.9287
    -0.9232  -0.9067  -0.9043  -0.8987  -0.8977  -0.8823  -0.8491  -0.8468
    -0.8132  -0.7939  -0.7824  -0.7777  -0.7709  -0.7685  -0.7622  -0.7620
    -0.7532  -0.7525  -0.7484  -0.7416  -0.7307  -0.7196  -0.6955  -0.6920
    -0.6868  -0.6811  -0.6742  -0.6618  -0.6598  -0.6329  -0.6326  -0.6126
    -0.6094  -0.6046  -0.6017  -0.5971  -0.5948  -0.5938  -0.5868  -0.5863
    -0.5835  -0.5797  -0.5787  -0.5774  -0.5763  -0.5675  -0.5655  -0.5426
    -0.5376  -0.5165  -0.4963  -0.4796  -0.4682  -0.4363  -0.4283  -0.4222
    -0.4150  -0.4057  -0.4012  -0.3938  -0.3887  -0.3784  -0.3589  -0.3559
    -0.3455  -0.3411  -0.3297  -0.3254  -0.3132  -0.3121  -0.3042  -0.3007
    -0.2879  -0.2811  -0.2790  -0.2680  -0.2616  -0.2415  -0.2388  -0.2239
    -0.1917  -0.1778  -0.1769  -0.1712  -0.1663  -0.1553  -0.1486  -0.1466
    -0.1455  -0.1431  -0.1402  -0.1339  -0.1331  -0.1305  -0.1216  -0.1190
    -0.1175  -0.1120  -0.1057  -0.1039  -0.0840  -0.0745  -0.0686  -0.0477
    -0.0425  -0.0310  -0.0291  -0.0247  -0.0232  -0.0047   0.0007   0.0022
     0.0057   0.0071   0.0099   0.0195   0.0266   0.0372   0.0413   0.0418
     0.0453   0.0486   0.0541   0.0549   0.0568   0.0638   0.0640   0.0652
     0.0720   0.0824   0.0910   0.0960   0.1207   0.1245   0.1259   0.1316
     0.1357   0.1462   0.1515   0.1754   0.1754   0.1867   0.1901   0.1982
     0.2003   0.2031   0.2081   0.2096   0.2136   0.2303   0.2320   0.2432
     0.2517   0.2559   0.2605   0.2665   0.2688   0.2707   0.2747   0.2891
     0.2944   0.2988   0.3051   0.3094   0.3099   0.3154   0.3160   0.3218
     0.3236   0.3281   0.3332   0.3338   0.3487   0.3550   0.3634   0.3659
     0.3692   0.3771   0.3900   0.3991   0.4169   0.4225   0.4263   0.4330
     0.4384   0.4586   0.4683   0.4758   0.4896   0.4935   0.4956   0.5089
     0.5115   0.5175   0.5204   0.5283   0.5371   0.5383   0.5463   0.5494
     0.5752   0.5804   0.5872   0.6029   0.6030   0.6036   0.6085   0.6162
     0.6179   0.6260   0.6295   0.6415   0.6517   0.6564   0.6698   0.6768
     0.6802   0.6824   0.6946   0.7025   0.7096   0.7147   0.7169   0.7200
     0.7383   0.7406   0.7426   0.7526   0.7590   0.7647   0.7690   0.7719
     0.7730   0.7852   0.7900   0.7948   0.7968   0.8034   0.8047   0.8110
     0.8122   0.8172   0.8224   0.8237   0.8336   0.8379   0.8405   0.8524
     0.8606   0.8614   0.8679   0.8733   0.8803   0.8900   0.8905   0.8920
     0.9024   0.9079   0.9161   0.9175   0.9242   0.9288   0.9344   0.9385
     0.9425   0.9501   0.9509   0.9531   0.9576   0.9621   0.9653   0.9734
     0.9742   0.9785   0.9822   0.9861   0.9932   1.0018   1.0034   1.0069
     1.0098   1.0111   1.0118   1.0120   1.0163   1.0247   1.0296   1.0375
     1.0402   1.0547   1.0570   1.0708   1.0717   1.0827   1.0878   1.0911
     1.1020   1.1080   1.1097   1.1201   1.1239   1.1344   1.1419   1.1452
     1.1484   1.1565   1.1601   1.1649   1.1694   1.1714   1.1781   1.1814
     1.1864   1.1990   1.2001   1.2009   1.2042   1.2152   1.2157   1.2205
     1.2265   1.2269   1.2387   1.2464   1.2508   1.2577   1.2629   1.2674
     1.2699   1.2722   1.2770   1.2774   1.2806   1.2832   1.2883   1.2888
     1.2942   1.3004   1.3055   1.3071   1.3175   1.3195   1.3244   1.3297
     1.3391   1.3459   1.3538   1.3581   1.3618   1.3688   1.3719   1.3772
     1.3802   1.3841   1.3842   1.3897   1.3976   1.3981   1.4001   1.4055
     1.4110   1.4157   1.4232   1.4307   1.4338   1.4381   1.4442   1.4512
     1.4625   1.4668   1.4695   1.4709   1.4747   1.4766   1.4818   1.4916
     1.4921   1.4955   1.5027   1.5035   1.5044   1.5128   1.5146   1.5202
     1.5209   1.5243   1.5292   1.5326   1.5381   1.5386   1.5428   1.5513
     1.5555   1.5555   1.5610   1.5611   1.5678   1.5704   1.5720   1.5760
     1.5770   1.5776   1.5807   1.5835   1.5998   1.6049   1.6193   1.6235
     1.6254   1.6309   1.6379   1.6381   1.6415   1.6419   1.6493   1.6498
     1.6573   1.6634   1.6642   1.6689   1.6750   1.6767   1.6768   1.6846
     1.6894   1.6927   1.6937   1.6982   1.6992   1.7022   1.7074   1.7079
     1.7104   1.7146   1.7181   1.7193   1.7259   1.7327   1.7377   1.7425
     1.7483   1.7491   1.7603   1.7773   1.7802   1.7837   1.7951   1.8134
     1.8162   1.8236   1.8284   1.8337   1.8507   1.8524   1.8613   1.8618
     1.8763   1.8889   1.9008   1.9062   1.9083   1.9123   1.9185   1.9287
     1.9472   2.0965   2.2211   2.2751   2.3731   2.3899   2.4350   2.4487
     2.4718   2.4718   2.4783   2.4819   2.4880   2.4960   2.5163   2.5907
     2.6695   2.6706   2.7190   2.7468   2.7487   2.7534   2.7628   2.8452
     2.8853   2.8955   2.9911   3.0254   3.2729   3.3633   3.4409   3.4952
     3.5721   3.7370   3.8128   3.8342   3.9005   4.1001   4.1122   4.1129
     4.1604   4.2052   4.2080   4.2185   4.2576   4.2660   4.2817   4.2889
     4.3136   4.3312   4.3853   4.4008   4.4683   4.5747   4.5760   4.8580
     4.9511   4.9550   5.0410   5.1249   5.2545   5.2665   5.3267   5.5558
     5.6822   5.7093   5.8310   5.9006   5.9858   6.0773   6.1935   6.2149
     6.3436   6.5063   6.6144   6.6319   6.6756   6.6889   6.7056   6.7151
     6.7985   6.8288   6.8759   6.9269   6.9494   6.9942   6.9969   7.0165
     7.0779   7.1015   7.1589   7.3016   7.3445   7.3996   7.4189   7.4641
     7.5633   7.5707   7.6287   7.7633   7.8590   7.8848   7.9018   7.9276
     7.9704   7.9858   7.9914   8.0062   8.0279   8.1085   8.4014   8.4267
     8.4601   8.4775   8.5543   8.5553   8.5818   8.5880   8.6155   8.6464
     8.6471   8.7149   8.7317   8.7430   8.7783   8.8691   8.8759   8.9146
     8.9481   8.9708   9.0280   9.0875   9.1121   9.1413   9.1521   9.2296
     9.2524   9.2962   9.3495   9.3720   9.4051   9.4372   9.4789   9.4804
     9.5253   9.5553   9.6054   9.6114   9.6687   9.7922   9.8588   9.9808
    10.0116  10.0358  10.0439  10.0913  10.1312

          k = 0.0000-0.2165 0.0000 (256176 PWs)   bands (ev):

   -15.9732 -15.8657 -15.2438 -15.1097 -14.0200 -14.0101 -13.9599 -13.9383
   -13.7653 -13.6149 -13.3395 -13.2769 -13.2002 -12.6915 -11.9655 -11.8727
   -11.8290 -11.8222 -11.6145 -10.9120 -10.0491 -10.0123  -9.9276  -9.4912
    -8.7753  -8.6424  -8.6340  -8.5074  -8.4807  -8.0742  -7.7915  -7.7319
    -7.5709  -7.0015  -6.6081  -6.5612  -6.5487  -6.5144  -6.4780  -6.2388
    -5.9423  -5.8970  -5.6430  -5.6225  -5.5339  -5.2310  -4.8820  -4.8292
    -4.7161  -4.6948  -4.6370  -4.5813  -4.5738  -4.3677  -4.2920  -4.1993
    -4.1212  -4.0539  -4.0113  -3.7951  -3.7704  -3.2980  -3.2659  -3.1704
    -3.0920  -3.0437  -3.0426  -2.9981  -2.9357  -2.8929  -2.8309  -2.7874
    -2.7832  -2.7760  -2.7309  -2.7004  -2.6963  -2.6128  -2.5718  -2.5537
    -2.5337  -2.5244  -2.4497  -2.3480  -2.3460  -2.3324  -2.3088  -2.3068
    -2.2983  -2.2883  -2.2503  -2.2325  -2.1027  -2.0350  -1.9987  -1.9884
    -1.9789  -1.9569  -1.9076  -1.8926  -1.8907  -1.8857  -1.8714  -1.7898
    -1.7412  -1.7408  -1.7200  -1.7112  -1.6961  -1.6960  -1.6398  -1.6366
    -1.6252  -1.6042  -1.5379  -1.5043  -1.5013  -1.4929  -1.4840  -1.4766
    -1.4713  -1.4666  -1.4554  -1.4202  -1.3884  -1.3833  -1.3724  -1.3372
    -1.3122  -1.2733  -1.2266  -1.2025  -1.1952  -1.1913  -1.1601  -1.1552
    -1.1386  -1.1105  -1.1026  -1.0559  -1.0525  -1.0389  -1.0283  -1.0155
    -1.0106  -1.0083  -1.0062  -1.0020  -0.9950  -0.9887  -0.9756  -0.9724
    -0.9649  -0.9509  -0.9259  -0.9257  -0.9209  -0.9064  -0.8737  -0.8641
    -0.8488  -0.8483  -0.8304  -0.8269  -0.8169  -0.7917  -0.7895  -0.7840
    -0.7794  -0.7711  -0.7410  -0.7370  -0.7223  -0.7148  -0.7119  -0.7089
    -0.6977  -0.6931  -0.6635  -0.6629  -0.6534  -0.6471  -0.6448  -0.6386
    -0.6333  -0.6281  -0.6103  -0.6032  -0.5849  -0.5665  -0.5662  -0.5629
    -0.5599  -0.5529  -0.5425  -0.5364  -0.5352  -0.5244  -0.5165  -0.4986
    -0.4948  -0.4843  -0.4803  -0.4476  -0.4424  -0.4007  -0.3932  -0.3841
    -0.3787  -0.3694  -0.3689  -0.3668  -0.3546  -0.3478  -0.3461  -0.3377
    -0.3374  -0.3349  -0.3220  -0.3198  -0.3126  -0.3012  -0.2893  -0.2877
    -0.2753  -0.2686  -0.2639  -0.2564  -0.2468  -0.2449  -0.2230  -0.2203
    -0.2192  -0.2148  -0.2115  -0.2031  -0.1871  -0.1854  -0.1780  -0.1776
    -0.1610  -0.1598  -0.1593  -0.1510  -0.1311  -0.1140  -0.0950  -0.0945
    -0.0856  -0.0713  -0.0660  -0.0639  -0.0508  -0.0438  -0.0369  -0.0367
    -0.0286  -0.0283  -0.0125  -0.0118  -0.0097  -0.0032   0.0017   0.0036
     0.0081   0.0124   0.0156   0.0192   0.0210   0.0303   0.0310   0.0437
     0.0475   0.0499   0.0535   0.0598   0.0636   0.0724   0.0747   0.0793
     0.0980   0.1059   0.1067   0.1237   0.1244   0.1283   0.1409   0.1420
     0.1532   0.1556   0.1622   0.1661   0.1679   0.1777   0.1800   0.1814
     0.1885   0.1902   0.1915   0.1934   0.1972   0.2020   0.2170   0.2320
     0.2381   0.2435   0.2484   0.2556   0.2659   0.2713   0.2731   0.2781
     0.2826   0.2882   0.2930   0.2963   0.2996   0.3034   0.3167   0.3190
     0.3272   0.3307   0.3382   0.3385   0.3417   0.3521   0.3531   0.3595
     0.3725   0.3757   0.3798   0.3809   0.3920   0.3954   0.4028   0.4078
     0.4317   0.4388   0.4427   0.4478   0.4542   0.4617   0.4689   0.4738
     0.4840   0.4945   0.5089   0.5168   0.5341   0.5343   0.5421   0.5581
     0.5601   0.5722   0.5948   0.6029   0.6124   0.6258   0.6310   0.6376
     0.6488   0.6505   0.6617   0.6659   0.6816   0.6933   0.6940   0.6985
     0.7026   0.7061   0.7065   0.7167   0.7210   0.7242   0.7327   0.7343
     0.7393   0.7413   0.7455   0.7509   0.7621   0.7670   0.7721   0.7798
     0.7864   0.7890   0.7952   0.7990   0.7996   0.7999   0.8009   0.8018
     0.8059   0.8130   0.8143   0.8205   0.8222   0.8261   0.8311   0.8327
     0.8341   0.8414   0.8425   0.8488   0.8550   0.8594   0.8743   0.8768
     0.8893   0.8895   0.8960   0.9016   0.9096   0.9142   0.9175   0.9190
     0.9235   0.9357   0.9368   0.9373   0.9426   0.9470   0.9481   0.9495
     0.9562   0.9761   0.9787   0.9794   0.9834   0.9895   0.9940   0.9989
     1.0019   1.0045   1.0080   1.0132   1.0196   1.0215   1.0303   1.0345
     1.0428   1.0458   1.0559   1.0669   1.0878   1.0890   1.1031   1.1057
     1.1144   1.1269   1.1347   1.1414   1.1473   1.1589   1.1634   1.1686
     1.1719   1.1722   1.1798   1.1801   1.1829   1.1892   1.1898   1.2003
     1.2010   1.2050   1.2100   1.2143   1.2170   1.2215   1.2245   1.2280
     1.2283   1.2306   1.2314   1.2379   1.2381   1.2451   1.2467   1.2523
     1.2527   1.2530   1.2581   1.2617   1.2665   1.2698   1.2754   1.2768
     1.2785   1.2823   1.2851   1.2902   1.2925   1.2993   1.3007   1.3020
     1.3066   1.3246   1.3343   1.3441   1.3449   1.3639   1.3733   1.3749
     1.3788   1.3810   1.3853   1.3894   1.3998   1.4049   1.4107   1.4154
     1.4193   1.4242   1.4350   1.4379   1.4444   1.4457   1.4501   1.4518
     1.4600   1.4621   1.4653   1.4678   1.4689   1.4721   1.4741   1.4794
     1.4832   1.4878   1.4961   1.4980   1.4996   1.5004   1.5099   1.5117
     1.5200   1.5228   1.5274   1.5298   1.5307   1.5386   1.5439   1.5471
     1.5520   1.5531   1.5597   1.5599   1.5646   1.5674   1.5707   1.5763
     1.5795   1.5839   1.5875   1.5914   1.5949   1.5966   1.6013   1.6071
     1.6107   1.6132   1.6210   1.6318   1.6336   1.6401   1.6448   1.6478
     1.6552   1.6556   1.6613   1.6629   1.6714   1.6782   1.6889   1.6902
     1.6914   1.6993   1.7001   1.7043   1.7062   1.7098   1.7139   1.7143
     1.7154   1.7282   1.7367   1.7389   1.7509   1.7550   1.7585   1.7666
     1.7695   1.7783   1.7785   1.7832   1.7871   1.7922   1.8022   1.8048
     1.8065   1.8187   1.8481   1.8500   1.8780   1.8781   1.9004   1.9411
     1.9503   1.9646   1.9894   1.9949   1.9977   2.0073   2.0621   2.0625
     2.0718   2.0729   2.0763   2.0865   2.0958   2.1097   2.1255   2.2230
     2.3868   2.4129   2.4761   2.6687   2.6761   2.7055   2.7329   2.7356
     2.7624   2.8281   2.8295   2.8429   2.8504   2.8768   2.9105   2.9645
     2.9657   3.0063   3.0251   3.0648   3.1072   3.1755   3.1838   3.2633
     3.3040   3.3211   3.4243   3.4259   3.6297   3.8082   3.8348   3.9203
     3.9686   4.1208   4.2602   4.2841   4.3012   4.3581   4.4437   4.4693
     4.5570   4.6441   4.6518   4.6807   4.7996   4.8548   4.8603   4.9299
     5.0184   5.0437   5.2456   5.3584   5.4205   5.4338   5.5053   5.6008
     5.6124   5.6352   5.6982   5.7303   5.7635   5.8698   5.9546   6.0014
     6.0314   6.1323   6.1389   6.6606   6.6624   6.7408   6.7570   6.7846
     6.8068   6.8193   6.9117   6.9271   7.0819   7.1507   7.2498   7.2891
     7.2896   7.3022   7.3159   7.3397   7.3550   7.3958   7.4063   7.4193
     7.4281   7.4470   7.4824   7.5826   7.6344   7.6891   7.6951   7.7702
     7.7819   7.9569   7.9927   8.0529   8.0625   8.0916   8.1314   8.3522
     8.4440   8.4577   8.5137   8.5331   8.6110   8.6257   8.6575   8.6774
     8.6786   8.7828   8.8431   8.8738   8.8912   8.9741   8.9798   9.0003
     9.0108   9.0230   9.1126   9.1178   9.1510   9.1663   9.2555   9.2740
     9.2797   9.3200   9.4148   9.4436   9.4657   9.5022   9.5194   9.6378
     9.6455   9.6707   9.6852   9.8038   9.8318   9.8561   9.9296   9.9728
    10.0446  10.0587  10.0674  10.1431  10.1680

          k = 0.2500 0.0000 0.0000 (256240 PWs)   bands (ev):

   -15.8982 -15.5887 -15.4589 -14.8986 -14.6127 -14.5580 -14.4613 -14.1420
   -13.5106 -13.2933 -12.9702 -12.7200 -12.6932 -12.6400 -12.2351 -11.7772
   -11.6585 -11.6139 -11.1644 -10.6269 -10.3655 -10.3282 -10.0688  -9.7654
    -9.4674  -9.2354  -9.0941  -8.7784  -8.6746  -8.2473  -7.8597  -7.2347
    -7.1824  -7.1577  -7.0661  -6.9202  -6.3966  -6.2114  -6.0677  -5.6632
    -5.5856  -5.5694  -5.4808  -5.2371  -5.0684  -5.0576  -4.9684  -4.8000
    -4.6939  -4.5294  -4.3428  -4.2771  -4.2282  -4.1955  -4.1205  -4.0494
    -3.9782  -3.8735  -3.7507  -3.7389  -3.7187  -3.6378  -3.5794  -3.5693
    -3.5151  -3.4308  -3.3551  -3.3004  -3.2214  -3.1960  -3.1770  -3.1395
    -3.1017  -3.0466  -3.0324  -2.9523  -2.9199  -2.8257  -2.7278  -2.6815
    -2.6339  -2.5488  -2.5370  -2.5336  -2.5164  -2.4635  -2.3992  -2.3027
    -2.2759  -2.1966  -2.1589  -2.1086  -2.0875  -2.0312  -1.8876  -1.8499
    -1.8415  -1.8304  -1.8186  -1.8031  -1.7293  -1.7122  -1.6882  -1.6559
    -1.6163  -1.5919  -1.5525  -1.5405  -1.5370  -1.5290  -1.5268  -1.5124
    -1.5102  -1.4832  -1.4543  -1.4414  -1.4400  -1.4294  -1.4085  -1.3934
    -1.3643  -1.3502  -1.3419  -1.3233  -1.3182  -1.3141  -1.3118  -1.3012
    -1.2708  -1.2531  -1.2416  -1.2360  -1.2299  -1.2219  -1.2138  -1.1142
    -1.1007  -1.0790  -1.0614  -1.0505  -1.0348  -1.0169  -0.9928  -0.9873
    -0.9770  -0.9713  -0.9647  -0.9557  -0.9447  -0.9378  -0.9223  -0.9197
    -0.9166  -0.9045  -0.8943  -0.8839  -0.8769  -0.8715  -0.8659  -0.8546
    -0.8484  -0.8437  -0.8392  -0.8349  -0.8245  -0.8040  -0.8012  -0.7921
    -0.7823  -0.7788  -0.7694  -0.7613  -0.7550  -0.7483  -0.7420  -0.7356
    -0.7231  -0.7220  -0.7195  -0.7169  -0.7155  -0.7129  -0.7106  -0.7000
    -0.6919  -0.6783  -0.6753  -0.6664  -0.6537  -0.6492  -0.6422  -0.6352
    -0.6282  -0.5933  -0.5881  -0.5703  -0.5662  -0.5504  -0.5418  -0.5359
    -0.5217  -0.5142  -0.5060  -0.5044  -0.4992  -0.4929  -0.4832  -0.4751
    -0.4667  -0.4542  -0.4297  -0.4033  -0.3750  -0.3506  -0.3458  -0.3387
    -0.3138  -0.3104  -0.3059  -0.3045  -0.2989  -0.2921  -0.2868  -0.2812
    -0.2713  -0.2646  -0.2613  -0.2583  -0.2457  -0.2415  -0.2315  -0.2237
    -0.2190  -0.2117  -0.2043  -0.1985  -0.1922  -0.1891  -0.1744  -0.1612
    -0.1490  -0.1415  -0.1356  -0.1321  -0.1269  -0.1257  -0.1185  -0.1128
    -0.1073  -0.0980  -0.0886  -0.0811  -0.0743  -0.0646  -0.0640  -0.0551
    -0.0452  -0.0346  -0.0328  -0.0251  -0.0224  -0.0191  -0.0120  -0.0049
     0.0015   0.0067   0.0140   0.0201   0.0256   0.0362   0.0425   0.0460
     0.0489   0.0594   0.0643   0.0739   0.0792   0.0802   0.0834   0.0942
     0.1102   0.1129   0.1161   0.1244   0.1295   0.1320   0.1401   0.1459
     0.1555   0.1660   0.1863   0.1968   0.1996   0.2031   0.2137   0.2199
     0.2240   0.2295   0.2388   0.2415   0.2507   0.2543   0.2588   0.2621
     0.2630   0.2664   0.2689   0.2754   0.2791   0.2811   0.2908   0.2931
     0.2981   0.3011   0.3030   0.3110   0.3175   0.3356   0.3392   0.3431
     0.3476   0.3570   0.3619   0.3654   0.3785   0.3829   0.3841   0.3942
     0.3974   0.4034   0.4128   0.4150   0.4204   0.4259   0.4410   0.4455
     0.4700   0.4822   0.4894   0.5025   0.5034   0.5138   0.5234   0.5237
     0.5274   0.5348   0.5400   0.5461   0.5477   0.5496   0.5539   0.5571
     0.5607   0.5655   0.5691   0.5721   0.5744   0.5760   0.5848   0.5869
     0.5892   0.5995   0.6015   0.6081   0.6128   0.6220   0.6275   0.6378
     0.6442   0.6605   0.6680   0.6729   0.6777   0.6869   0.6899   0.6956
     0.7050   0.7105   0.7165   0.7226   0.7282   0.7308   0.7375   0.7404
     0.7481   0.7505   0.7516   0.7595   0.7664   0.7718   0.7808   0.7838
     0.7892   0.7935   0.7975   0.7997   0.8056   0.8160   0.8180   0.8260
     0.8297   0.8317   0.8391   0.8450   0.8553   0.8576   0.8583   0.8625
     0.8688   0.8728   0.8758   0.8799   0.8928   0.8966   0.9031   0.9096
     0.9166   0.9232   0.9248   0.9258   0.9355   0.9418   0.9458   0.9554
     0.9620   0.9678   0.9744   0.9786   0.9870   0.9980   1.0076   1.0102
     1.0149   1.0204   1.0237   1.0258   1.0332   1.0353   1.0399   1.0426
     1.0431   1.0530   1.0668   1.0721   1.0773   1.0819   1.0894   1.0952
     1.1098   1.1160   1.1169   1.1244   1.1267   1.1331   1.1364   1.1430
     1.1494   1.1507   1.1531   1.1572   1.1607   1.1638   1.1726   1.1856
     1.1925   1.1943   1.1999   1.2040   1.2133   1.2173   1.2236   1.2318
     1.2362   1.2380   1.2429   1.2457   1.2509   1.2562   1.2576   1.2634
     1.2648   1.2677   1.2752   1.2775   1.2809   1.2827   1.2858   1.2878
     1.2903   1.2929   1.2983   1.3000   1.3089   1.3151   1.3192   1.3252
     1.3302   1.3313   1.3321   1.3353   1.3387   1.3421   1.3470   1.3478
     1.3546   1.3583   1.3646   1.3682   1.3695   1.3853   1.3888   1.3924
     1.3997   1.4020   1.4082   1.4139   1.4176   1.4232   1.4341   1.4356
     1.4417   1.4477   1.4500   1.4614   1.4633   1.4706   1.4848   1.4898
     1.4920   1.4993   1.5048   1.5075   1.5129   1.5148   1.5197   1.5214
     1.5315   1.5334   1.5365   1.5386   1.5417   1.5435   1.5474   1.5502
     1.5541   1.5559   1.5607   1.5618   1.5652   1.5706   1.5731   1.5748
     1.5833   1.5904   1.5961   1.5993   1.6020   1.6068   1.6117   1.6134
     1.6165   1.6184   1.6237   1.6251   1.6329   1.6386   1.6408   1.6464
     1.6490   1.6555   1.6589   1.6664   1.6718   1.6751   1.6773   1.6822
     1.6852   1.6856   1.6919   1.6943   1.6988   1.7011   1.7035   1.7068
     1.7085   1.7176   1.7220   1.7248   1.7324   1.7336   1.7347   1.7387
     1.7420   1.7475   1.7506   1.7513   1.7636   1.7694   1.7768   1.7779
     1.7829   1.7864   1.7936   1.8093   1.8203   1.8228   1.8419   1.8616
     1.8695   1.8825   1.8888   1.8983   1.9305   1.9898   2.0046   2.0088
     2.0182   2.0316   2.0428   2.0817   2.1012   2.1519   2.2372   2.2840
     2.3410   2.3516   2.3749   2.3863   2.4488   2.5070   2.6004   2.6247
     2.7659   2.8103   2.8421   2.8572   3.0498   3.2230   3.2399   3.2757
     3.3104   3.3485   3.4328   3.4607   3.4832   3.4847   3.5916   3.7012
     3.7449   3.8000   3.8793   3.9026   3.9124   3.9177   3.9488   3.9896
     4.0335   4.0843   4.1316   4.2188   4.2280   4.3228   4.4686   4.5073
     4.5593   4.5853   4.6161   4.6702   4.7467   4.8007   4.8962   5.0895
     5.1009   5.1932   5.3130   5.4635   5.4975   5.5122   5.5489   5.6069
     5.6253   5.7618   5.7753   5.8100   5.8233   5.8798   5.9149   5.9325
     5.9818   6.0312   6.0785   6.0922   6.1459   6.2353   6.2750   6.3323
     6.3575   6.4538   6.5380   6.7551   6.8112   6.8799   6.9722   6.9877
     7.0055   7.0491   7.1006   7.1960   7.2418   7.2929   7.3034   7.3278
     7.4003   7.4914   7.5114   7.5158   7.5613   7.6743   7.6912   7.7035
     7.8133   7.8314   7.8809   8.0450   8.0486   8.0690   8.0847   8.1183
     8.1374   8.1591   8.2811   8.3015   8.3069   8.3624   8.3831   8.4886
     8.5817   8.6061   8.6314   8.6449   8.6615   8.7088   8.7324   8.8755
     8.8995   8.9127   8.9255   8.9591   9.0362   9.1847   9.1969   9.3450
     9.3723   9.3976   9.4169   9.4286   9.4400   9.4544   9.4715   9.4968
     9.5058   9.5238   9.5408   9.5519   9.5833   9.6577   9.6754   9.7589
     9.7717   9.8526   9.9174   9.9791  10.0017

          k = 0.2500-0.2165 0.0000 (256316 PWs)   bands (ev):

   -15.8492 -15.7546 -15.1241 -15.0640 -14.8625 -14.6410 -14.1492 -13.9620
   -13.6460 -13.4689 -12.9380 -12.8149 -12.6910 -12.4649 -12.2513 -11.9555
   -11.5542 -11.3612 -10.9618 -10.7773 -10.6530 -10.4682 -10.2998  -9.7373
    -9.2105  -8.9731  -8.7524  -8.6844  -8.5433  -8.3779  -8.1042  -7.9491
    -7.8692  -6.9925  -6.3337  -6.2714  -6.2232  -6.1237  -5.9683  -5.9296
    -5.8113  -5.6733  -5.4697  -5.4478  -5.3989  -5.0599  -4.8079  -4.6575
    -4.5599  -4.4998  -4.4188  -4.4151  -4.3323  -4.1062  -4.0865  -4.0744
    -4.0114  -3.9895  -3.8424  -3.8328  -3.7146  -3.6802  -3.6317  -3.5037
    -3.4201  -3.4128  -3.2923  -3.2043  -3.1957  -3.1936  -3.1546  -3.1447
    -3.1045  -2.9116  -2.8790  -2.8617  -2.8051  -2.7895  -2.7285  -2.6665
    -2.6572  -2.6437  -2.6241  -2.5628  -2.5371  -2.4731  -2.4116  -2.2545
    -2.2420  -2.1550  -2.1187  -2.0613  -2.0511  -2.0156  -1.9075  -1.9037
    -1.8993  -1.8985  -1.8331  -1.8074  -1.7509  -1.7351  -1.7159  -1.7077
    -1.6853  -1.6506  -1.5985  -1.5743  -1.5515  -1.5461  -1.5293  -1.5203
    -1.4977  -1.4690  -1.4566  -1.4455  -1.4383  -1.4335  -1.4277  -1.4143
    -1.4126  -1.4091  -1.4085  -1.3979  -1.3848  -1.3419  -1.3200  -1.3099
    -1.2516  -1.2449  -1.2023  -1.1919  -1.1144  -1.1039  -1.0829  -1.0720
    -1.0662  -1.0627  -1.0191  -1.0131  -1.0075  -1.0006  -0.9994  -0.9932
    -0.9885  -0.9690  -0.9666  -0.9616  -0.9584  -0.9541  -0.9467  -0.9437
    -0.9409  -0.9278  -0.9220  -0.9201  -0.9056  -0.9001  -0.8718  -0.8643
    -0.8612  -0.8553  -0.8524  -0.8490  -0.8436  -0.8264  -0.8170  -0.8155
    -0.8024  -0.7812  -0.7778  -0.7735  -0.7648  -0.7562  -0.7507  -0.7451
    -0.7309  -0.7283  -0.7177  -0.7134  -0.7020  -0.6942  -0.6872  -0.6828
    -0.6760  -0.6653  -0.6565  -0.6538  -0.6468  -0.6170  -0.6124  -0.6041
    -0.6032  -0.5909  -0.5887  -0.5621  -0.5497  -0.5264  -0.5154  -0.5101
    -0.5032  -0.4909  -0.4848  -0.4806  -0.4649  -0.4590  -0.4500  -0.4471
    -0.4363  -0.4270  -0.4203  -0.4114  -0.3988  -0.3884  -0.3836  -0.3735
    -0.3519  -0.3408  -0.3248  -0.3129  -0.3042  -0.3004  -0.2952  -0.2932
    -0.2829  -0.2705  -0.2614  -0.2538  -0.2422  -0.2378  -0.2365  -0.2318
    -0.2232  -0.2153  -0.2025  -0.1973  -0.1937  -0.1762  -0.1702  -0.1598
    -0.1541  -0.1391  -0.1367  -0.1295  -0.1262  -0.1219  -0.1108  -0.1073
    -0.1045  -0.1017  -0.1008  -0.0996  -0.0915  -0.0871  -0.0801  -0.0779
    -0.0701  -0.0662  -0.0558  -0.0422  -0.0400  -0.0287  -0.0217  -0.0110
     0.0035   0.0054   0.0140   0.0162   0.0241   0.0380   0.0434   0.0463
     0.0520   0.0577   0.0630   0.0808   0.0886   0.1072   0.1096   0.1213
     0.1335   0.1454   0.1538   0.1545   0.1599   0.1619   0.1679   0.1738
     0.1792   0.1842   0.1918   0.1983   0.2020   0.2066   0.2117   0.2190
     0.2228   0.2244   0.2305   0.2408   0.2450   0.2516   0.2530   0.2563
     0.2592   0.2625   0.2659   0.2703   0.2747   0.2776   0.2851   0.2864
     0.2922   0.2962   0.3005   0.3105   0.3273   0.3294   0.3339   0.3405
     0.3502   0.3574   0.3608   0.3720   0.3727   0.3762   0.3851   0.3956
     0.4012   0.4041   0.4103   0.4172   0.4215   0.4281   0.4322   0.4352
     0.4462   0.4528   0.4570   0.4630   0.4758   0.4937   0.5044   0.5206
     0.5269   0.5321   0.5403   0.5459   0.5488   0.5519   0.5545   0.5600
     0.5644   0.5686   0.5710   0.5781   0.5810   0.5855   0.5936   0.5955
     0.6004   0.6013   0.6107   0.6229   0.6315   0.6377   0.6439   0.6500
     0.6591   0.6644   0.6699   0.6726   0.6855   0.6968   0.6996   0.7060
     0.7072   0.7152   0.7179   0.7237   0.7275   0.7331   0.7360   0.7394
     0.7404   0.7439   0.7545   0.7643   0.7714   0.7735   0.7844   0.7897
     0.7992   0.8006   0.8057   0.8162   0.8235   0.8312   0.8381   0.8393
     0.8488   0.8529   0.8586   0.8641   0.8682   0.8732   0.8743   0.8793
     0.8821   0.8892   0.8931   0.9077   0.9128   0.9165   0.9186   0.9210
     0.9220   0.9250   0.9285   0.9305   0.9367   0.9430   0.9452   0.9484
     0.9499   0.9559   0.9619   0.9640   0.9704   0.9711   0.9735   0.9784
     0.9812   0.9858   0.9974   1.0043   1.0216   1.0248   1.0265   1.0280
     1.0423   1.0468   1.0527   1.0581   1.0624   1.0675   1.0830   1.0846
     1.0908   1.0973   1.1061   1.1073   1.1117   1.1154   1.1172   1.1194
     1.1244   1.1297   1.1310   1.1426   1.1473   1.1532   1.1574   1.1610
     1.1672   1.1748   1.1776   1.1872   1.1937   1.1996   1.2128   1.2219
     1.2254   1.2311   1.2324   1.2341   1.2408   1.2465   1.2491   1.2573
     1.2584   1.2624   1.2765   1.2805   1.2825   1.2860   1.2889   1.2978
     1.3107   1.3122   1.3198   1.3327   1.3363   1.3403   1.3463   1.3472
     1.3488   1.3503   1.3537   1.3555   1.3606   1.3619   1.3664   1.3686
     1.3733   1.3809   1.3814   1.3918   1.3969   1.4035   1.4141   1.4233
     1.4303   1.4323   1.4350   1.4370   1.4399   1.4440   1.4472   1.4489
     1.4537   1.4550   1.4581   1.4604   1.4619   1.4637   1.4664   1.4758
     1.4782   1.4824   1.4833   1.4875   1.4956   1.4973   1.5043   1.5105
     1.5131   1.5202   1.5255   1.5336   1.5353   1.5409   1.5438   1.5449
     1.5486   1.5559   1.5610   1.5683   1.5690   1.5739   1.5785   1.5807
     1.5869   1.5903   1.5937   1.5971   1.6031   1.6055   1.6092   1.6119
     1.6176   1.6253   1.6326   1.6331   1.6391   1.6395   1.6421   1.6453
     1.6471   1.6497   1.6520   1.6558   1.6604   1.6651   1.6673   1.6720
     1.6765   1.6791   1.6865   1.6925   1.6953   1.6999   1.7010   1.7029
     1.7050   1.7094   1.7106   1.7139   1.7199   1.7222   1.7306   1.7383
     1.7402   1.7498   1.7522   1.7526   1.7610   1.7637   1.7667   1.7746
     1.7834   1.7927   1.8060   1.8135   1.8179   1.8208   1.8365   1.8453
     1.8647   1.9111   1.9258   1.9438   1.9533   2.0021   2.0115   2.0252
     2.0352   2.0455   2.0565   2.0611   2.1137   2.1326   2.1596   2.2102
     2.2786   2.3740   2.3867   2.4130   2.4350   2.5433   2.5885   2.8239
     2.8432   2.8874   2.9387   3.0251   3.0401   3.0437   3.0699   3.1050
     3.1600   3.2027   3.2259   3.3244   3.3290   3.4400   3.5463   3.5652
     3.7941   3.8714   3.8923   3.9612   3.9998   4.0863   4.1323   4.1546
     4.1714   4.2365   4.3001   4.3300   4.3657   4.3961   4.4788   4.5121
     4.6435   4.6753   4.6937   4.7422   4.8025   4.8697   4.9179   4.9349
     5.0717   5.1311   5.1419   5.1837   5.2199   5.2581   5.4229   5.4977
     5.5420   5.6379   5.6815   5.6937   5.7054   5.7549   5.7691   5.8985
     5.9622   6.0254   6.0665   6.1136   6.1848   6.2706   6.2875   6.3357
     6.4034   6.7793   6.8661   6.9119   6.9553   7.0047   7.0171   7.0255
     7.1758   7.1912   7.2371   7.3329   7.3479   7.3613   7.4406   7.4453
     7.4554   7.4812   7.5741   7.5832   7.6088   7.6475   7.6517   7.6632
     7.6764   7.7075   7.7329   7.7955   7.8350   7.9406   8.0569   8.0676
     8.1210   8.1974   8.2373   8.2770   8.4007   8.4443   8.4608   8.5008
     8.5481   8.6271   8.6620   8.6857   8.7043   8.8323   8.8790   8.8916
     8.9208   8.9557   8.9882   9.0049   9.0477   9.0574   9.0869   9.1494
     9.2215   9.2595   9.2687   9.2887   9.3062   9.3451   9.4084   9.4436
     9.4486   9.4891   9.5313   9.5555   9.5814   9.5949   9.6314   9.6458
     9.6837   9.6984   9.7386   9.8531   9.9505

          k =-0.5000 0.0000 0.0000 (256496 PWs)   bands (ev):

   -15.5980 -15.4902 -15.2398 -15.2134 -15.2100 -14.8312 -14.1575 -14.1244
   -14.0608 -13.5998 -12.4033 -12.3686 -12.2545 -12.0959 -11.7008 -11.6428
   -11.4477 -11.4412 -11.2855 -11.0415 -10.7893 -10.5435 -10.4504 -10.0331
    -9.6154  -9.4015  -9.3819  -8.9175  -8.5785  -8.4423  -8.2767  -7.7918
    -7.1129  -7.0819  -7.0486  -7.0007  -6.7182  -5.6839  -5.5013  -5.2826
    -5.0682  -5.0285  -4.7160  -4.7141  -4.6154  -4.5530  -4.5486  -4.5123
    -4.4920  -4.4041  -4.3865  -4.3843  -4.3541  -4.3073  -4.2968  -4.1894
    -4.1612  -4.1200  -4.0534  -3.8894  -3.8709  -3.7761  -3.7042  -3.6603
    -3.6396  -3.6333  -3.6261  -3.2908  -3.2711  -3.2646  -3.2087  -3.1759
    -3.1733  -3.1569  -3.1467  -3.1137  -3.0976  -3.0649  -3.0543  -2.9571
    -2.7644  -2.7234  -2.6186  -2.5543  -2.5537  -2.4845  -2.4021  -2.3195
    -2.2970  -2.2398  -2.2159  -2.1881  -2.1343  -2.0386  -2.0262  -1.9955
    -1.9814  -1.9047  -1.8768  -1.6455  -1.6307  -1.6184  -1.6119  -1.6104
    -1.6103  -1.5776  -1.4968  -1.4928  -1.4837  -1.4620  -1.4584  -1.4247
    -1.3908  -1.3899  -1.3785  -1.3719  -1.3468  -1.3380  -1.3265  -1.3219
    -1.2627  -1.2299  -1.2293  -1.2184  -1.2074  -1.1941  -1.1827  -1.1640
    -1.1536  -1.1469  -1.1453  -1.1355  -1.1178  -1.1016  -1.0963  -1.0938
    -1.0922  -1.0826  -1.0713  -1.0644  -1.0557  -1.0555  -1.0345  -1.0326
    -1.0297  -1.0216  -1.0111  -1.0069  -1.0062  -0.9952  -0.9631  -0.9429
    -0.9388  -0.9276  -0.9251  -0.9196  -0.9164  -0.9080  -0.9020  -0.8988
    -0.8873  -0.8794  -0.8611  -0.8585  -0.8481  -0.8449  -0.8443  -0.8355
    -0.8262  -0.8171  -0.8120  -0.7953  -0.7919  -0.7789  -0.7573  -0.7503
    -0.7249  -0.7240  -0.7224  -0.7186  -0.7140  -0.7122  -0.7005  -0.7003
    -0.6798  -0.6713  -0.6705  -0.6686  -0.6659  -0.6643  -0.6600  -0.6523
    -0.6451  -0.6441  -0.6365  -0.5889  -0.5822  -0.5699  -0.5689  -0.5493
    -0.5133  -0.5074  -0.5036  -0.4710  -0.4590  -0.4558  -0.4438  -0.4381
    -0.4349  -0.4212  -0.4155  -0.4104  -0.4063  -0.3899  -0.3895  -0.3820
    -0.3817  -0.3678  -0.3617  -0.3498  -0.3493  -0.3314  -0.3254  -0.3231
    -0.3155  -0.3028  -0.3002  -0.2935  -0.2547  -0.2492  -0.2314  -0.2305
    -0.2239  -0.1973  -0.1918  -0.1757  -0.1626  -0.1585  -0.1550  -0.1521
    -0.1458  -0.1440  -0.1343  -0.1338  -0.1238  -0.1114  -0.1076  -0.1025
    -0.1019  -0.0962  -0.0929  -0.0631  -0.0566  -0.0550  -0.0538  -0.0352
    -0.0319  -0.0296  -0.0259  -0.0257  -0.0071  -0.0060   0.0084   0.0114
     0.0156   0.0199   0.0299   0.0414   0.0454   0.0524   0.0551   0.0638
     0.0787   0.0985   0.1157   0.1201   0.1245   0.1260   0.1384   0.1407
     0.1474   0.1526   0.1557   0.1577   0.1629   0.1654   0.1955   0.2083
     0.2194   0.2356   0.2359   0.2378   0.2395   0.2413   0.2473   0.2478
     0.2508   0.2514   0.2562   0.2649   0.2661   0.2829   0.2871   0.3149
     0.3150   0.3214   0.3255   0.3269   0.3318   0.3337   0.3373   0.3418
     0.3478   0.3481   0.3528   0.3581   0.3594   0.3600   0.3627   0.3631
     0.3697   0.3760   0.3810   0.3827   0.3870   0.3888   0.3890   0.3958
     0.3977   0.4016   0.4032   0.4066   0.4120   0.4126   0.4166   0.4172
     0.4300   0.4311   0.4477   0.4482   0.4682   0.4860   0.5006   0.5045
     0.5070   0.5250   0.5404   0.5409   0.5658   0.5692   0.5779   0.5794
     0.5813   0.5878   0.5918   0.5927   0.5982   0.6035   0.6039   0.6111
     0.6139   0.6148   0.6178   0.6229   0.6264   0.6270   0.6324   0.6325
     0.6389   0.6416   0.6418   0.6520   0.6617   0.6621   0.6624   0.6635
     0.6735   0.6871   0.6940   0.7053   0.7132   0.7250   0.7256   0.7319
     0.7433   0.7458   0.7512   0.7587   0.7654   0.7717   0.7719   0.7735
     0.7782   0.7795   0.7849   0.7850   0.7897   0.7915   0.7978   0.8033
     0.8083   0.8123   0.8178   0.8197   0.8232   0.8366   0.8372   0.8471
     0.8519   0.8530   0.8593   0.8634   0.8687   0.8700   0.8755   0.8814
     0.8836   0.8921   0.8937   0.8947   0.9062   0.9105   0.9142   0.9184
     0.9194   0.9224   0.9261   0.9342   0.9375   0.9433   0.9534   0.9566
     0.9591   0.9673   0.9700   0.9782   0.9788   0.9855   0.9857   0.9967
     1.0233   1.0262   1.0269   1.0327   1.0367   1.0518   1.0574   1.0844
     1.0848   1.0901   1.0949   1.1005   1.1019   1.1021   1.1032   1.1066
     1.1095   1.1145   1.1293   1.1297   1.1328   1.1353   1.1382   1.1408
     1.1436   1.1466   1.1590   1.1610   1.1693   1.1719   1.1748   1.1768
     1.1994   1.2034   1.2039   1.2085   1.2121   1.2264   1.2265   1.2420
     1.2672   1.2700   1.2761   1.2771   1.2822   1.2843   1.3096   1.3125
     1.3142   1.3143   1.3239   1.3272   1.3308   1.3353   1.3401   1.3536
     1.3546   1.3663   1.3668   1.3690   1.3770   1.3776   1.3810   1.3818
     1.3863   1.3864   1.3873   1.3899   1.3939   1.3941   1.3952   1.3991
     1.4084   1.4148   1.4234   1.4385   1.4404   1.4429   1.4456   1.4517
     1.4525   1.4559   1.4676   1.4700   1.4783   1.4816   1.4820   1.4860
     1.4969   1.4982   1.5011   1.5058   1.5065   1.5092   1.5096   1.5153
     1.5181   1.5254   1.5289   1.5323   1.5471   1.5520   1.5584   1.5597
     1.5662   1.5715   1.5721   1.5734   1.5781   1.5787   1.5796   1.5805
     1.5830   1.5841   1.5864   1.5893   1.5902   1.5928   1.5955   1.6010
     1.6021   1.6043   1.6093   1.6110   1.6118   1.6126   1.6194   1.6240
     1.6242   1.6258   1.6277   1.6388   1.6390   1.6587   1.6696   1.6713
     1.6746   1.6800   1.6820   1.6841   1.6849   1.6864   1.6881   1.6910
     1.6986   1.7004   1.7087   1.7108   1.7113   1.7175   1.7180   1.7230
     1.7242   1.7284   1.7320   1.7400   1.7410   1.7517   1.7595   1.7680
     1.7708   1.7722   1.7769   1.7785   1.7796   1.7802   1.7823   1.8078
     1.8154   1.8284   1.8331   1.8439   1.8597   1.8635   1.8695   1.8735
     1.8850   1.8931   1.9313   2.3083   2.3201   2.3443   2.3481   2.4877
     2.4996   2.5298   2.5309   2.5346   2.5592   2.5609   2.5751   2.8042
     2.8993   2.9519   2.9626   2.9862   3.0229   3.0757   3.0784   3.2727
     3.2821   3.3855   3.4428   3.4726   3.5174   3.5522   3.7729   3.7950
     4.0514   4.0625   4.0668   4.0852   4.1390   4.2529   4.2646   4.3265
     4.3314   4.3768   4.4451   4.5130   4.5286   4.5308   4.5956   4.8717
     4.8875   5.0416   5.0479   5.0780   5.0833   5.1035   5.1047   5.1601
     5.1675   5.2622   5.2666   5.2795   5.2816   5.3033   5.3045   5.3610
     5.3652   5.3896   5.4047   5.4409   5.5125   5.5531   5.5726   5.7410
     5.8431   5.8448   5.9240   5.9682   6.0337   6.1333   6.1581   6.2335
     6.2546   6.2565   6.2785   6.3205   6.3552   6.3890   6.4521   6.4826
     6.5224   6.6737   6.6998   6.7759   7.0899   7.0920   7.3484   7.3648
     7.3927   7.3931   7.4309   7.5142   7.5145   7.8298   7.8395   7.8498
     7.8501   7.8562   7.9207   7.9427   7.9485   8.0516   8.0568   8.0705
     8.0999   8.1522   8.1602   8.2006   8.2258   8.2683   8.3570   8.3995
     8.4435   8.4714   8.4947   8.5503   8.5543   8.5633   8.5885   8.6396
     8.6422   8.6665   8.6883   8.9938   9.0632   9.1039   9.1095   9.1181
     9.1583   9.1610   9.1687   9.2682   9.2738   9.2881   9.3589   9.3906
     9.3996   9.4163   9.4701   9.5236   9.5769   9.6375   9.7561   9.7785
     9.8160   9.8286   9.8618   9.8821   9.8855

          k =-0.5000-0.2165 0.0000 (256328 PWs)   bands (ev):

   -15.5301 -15.4782 -15.4768 -15.2547 -14.7882 -14.7559 -14.7271 -14.2680
   -13.3588 -13.3228 -13.2294 -12.8596 -11.6695 -11.6668 -11.5782 -11.5405
   -11.3350 -11.2709 -11.1828 -11.1460 -11.0861 -11.0187 -10.9228  -9.9572
    -9.3750  -9.3290  -9.0665  -8.8307  -8.4574  -8.4498  -8.2521  -7.9194
    -7.6643  -7.5079  -7.4395  -6.4735  -5.6823  -5.6304  -5.4871  -5.1554
    -4.9803  -4.9535  -4.9497  -4.9214  -4.9111  -4.9092  -4.8190  -4.6872
    -4.6787  -4.5237  -4.4535  -4.3085  -4.2875  -4.0851  -4.0434  -4.0214
    -3.9469  -3.9397  -3.9354  -3.9093  -3.8819  -3.8154  -3.6550  -3.6503
    -3.6017  -3.6013  -3.5801  -3.4797  -3.4338  -3.4128  -3.3517  -3.3453
    -3.3130  -3.2642  -3.2558  -3.2121  -3.0921  -2.8561  -2.8306  -2.7779
[...]
     atom   11 type  1   force =     0.00000000    0.00005155    0.00018932
     atom   12 type  1   force =     0.00016091   -0.00012499    0.00022497
     atom   13 type  1   force =     0.00000000   -0.00031942   -0.00013885
     atom   14 type  1   force =     0.00004999   -0.00029911   -0.00015931
     atom   15 type  1   force =     0.00000000   -0.00006626   -0.00013046
     atom   16 type  1   force =    -0.00004999   -0.00029911   -0.00015931
     atom   17 type  1   force =     0.00000000   -0.00014926   -0.00016344
     atom   18 type  1   force =     0.00005077    0.00031232    0.00019145
     atom   19 type  1   force =     0.00000000   -0.00011015   -0.00008716
     atom   20 type  1   force =    -0.00005077    0.00031232    0.00019145
     atom   21 type  1   force =     0.00000000    0.00012300    0.00015054
     atom   22 type  1   force =     0.00001500    0.00018966    0.00024613
     atom   23 type  1   force =     0.00000000    0.00021375    0.00021080
     atom   24 type  1   force =    -0.00001500    0.00018966    0.00024613
     atom   25 type  1   force =     0.00000000    0.00004672   -0.00007663
     atom   26 type  1   force =     0.00002450    0.00003693    0.00004212
     atom   27 type  1   force =     0.00000000    0.00025960   -0.00009728
     atom   28 type  1   force =    -0.00002450    0.00003693    0.00004212
     atom   29 type  1   force =     0.00000000    0.00007363    0.00026741
     atom   30 type  1   force =     0.00007383    0.00007914    0.00011204
     atom   31 type  1   force =     0.00000000    0.00007812    0.00047729
     atom   32 type  1   force =    -0.00007383    0.00007914    0.00011204
     atom   33 type  1   force =     0.00000000    0.00011522   -0.00001816
     atom   34 type  1   force =    -0.00001510    0.00021479    0.00016649
     atom   35 type  1   force =     0.00000000    0.00021320   -0.00000331
     atom   36 type  1   force =     0.00001510    0.00021479    0.00016649
     atom   37 type  1   force =     0.00000000    0.00007102   -0.00015439
     atom   38 type  1   force =     0.00004089    0.00002771   -0.00032097
     atom   39 type  1   force =     0.00000000    0.00014013    0.00000444
     atom   40 type  1   force =    -0.00004089    0.00002771   -0.00032097
     atom   41 type  1   force =     0.00000000    0.00050546    0.00032989
     atom   42 type  1   force =     0.00008722    0.00012441    0.00002767
     atom   43 type  1   force =     0.00000000    0.00008625    0.00012117
     atom   44 type  1   force =    -0.00008722    0.00012441    0.00002767
     atom   45 type  1   force =     0.00000000    0.00030245   -0.00006221
     atom   46 type  1   force =     0.00007294    0.00013455   -0.00014922
     atom   47 type  1   force =     0.00000000   -0.00002681    0.00000602
     atom   48 type  1   force =    -0.00007294    0.00013455   -0.00014922
     atom   49 type  1   force =     0.00000000    0.00021894   -0.00009556
     atom   50 type  1   force =     0.00003623    0.00036729    0.00002991
     atom   51 type  1   force =     0.00000000    0.00016879    0.00008697
     atom   52 type  1   force =    -0.00003623    0.00036729    0.00002991
     atom   53 type  1   force =     0.00000000    0.00036220   -0.00004070
     atom   54 type  1   force =     0.00007649    0.00009137   -0.00004505
     atom   55 type  1   force =     0.00000000    0.00010858   -0.00002603
     atom   56 type  1   force =    -0.00007649    0.00009137   -0.00004505
     atom   57 type  1   force =     0.00000000   -0.00003274   -0.00031105
     atom   58 type  1   force =     0.00009317    0.00001837   -0.00012070
     atom   59 type  1   force =     0.00000000   -0.00004117   -0.00015620
     atom   60 type  1   force =    -0.00009317    0.00001837   -0.00012070
     atom   61 type  1   force =     0.00000000    0.00027129    0.00017633
     atom   62 type  1   force =    -0.00008877    0.00026548    0.00002628
     atom   63 type  1   force =     0.00000000   -0.00004279    0.00015493
     atom   64 type  1   force =     0.00008877    0.00026548    0.00002628
     atom   65 type  1   force =     0.00000000    0.00008760    0.00021787
     atom   66 type  1   force =    -0.00008815    0.00000337   -0.00030417
     atom   67 type  1   force =     0.00000000    0.00010918   -0.00007415
     atom   68 type  1   force =     0.00008815    0.00000337   -0.00030417
     atom   69 type  1   force =     0.00000000    0.00022030   -0.00024781
     atom   70 type  1   force =    -0.00025429    0.00006152   -0.00015659
     atom   71 type  1   force =     0.00000000    0.00013437    0.00001516
     atom   72 type  1   force =     0.00025429    0.00006152   -0.00015659
     atom   73 type  1   force =     0.00000000    0.00043424   -0.00008823
     atom   74 type  1   force =     0.00002813    0.00033092   -0.00000190
     atom   75 type  1   force =     0.00000000   -0.00007402   -0.00007296
     atom   76 type  1   force =    -0.00002813    0.00033092   -0.00000190
     atom   77 type  1   force =     0.00000000    0.00009043   -0.00023426
     atom   78 type  1   force =     0.00002178    0.00004696   -0.00012117
     atom   79 type  1   force =     0.00000000    0.00012506   -0.00017917
     atom   80 type  1   force =    -0.00002178    0.00004696   -0.00012117
     atom   81 type  1   force =     0.00000000   -0.00011217   -0.00016902
     atom   82 type  1   force =    -0.00033081    0.00017127    0.00038548
     atom   83 type  1   force =     0.00000000    0.00022540   -0.00009125
     atom   84 type  1   force =     0.00033081    0.00017127    0.00038548
     atom   85 type  1   force =     0.00000000    0.00079215    0.00016513
     atom   86 type  1   force =     0.00038593    0.00044224    0.00025927
     atom   87 type  1   force =     0.00000000   -0.00037032    0.00036867
     atom   88 type  1   force =    -0.00038593    0.00044224    0.00025927
     atom   89 type  1   force =     0.00000000   -0.00012982    0.00016175
     atom   90 type  1   force =    -0.00011622   -0.00003584    0.00008725
     atom   91 type  1   force =     0.00000000   -0.00009939    0.00072376
     atom   92 type  1   force =     0.00011622   -0.00003584    0.00008725
     atom   93 type  1   force =     0.00000000    0.00067469   -0.00010424
     atom   94 type  1   force =    -0.00007731    0.00043629   -0.00007583
     atom   95 type  1   force =     0.00000000   -0.00009853    0.00032281
     atom   96 type  1   force =     0.00007731    0.00043629   -0.00007583
     atom   97 type  1   force =     0.00000000    0.00028535   -0.00017267
     atom   98 type  1   force =     0.00029383    0.00019958   -0.00007550
     atom   99 type  1   force =     0.00000000    0.00042962    0.00005351
     atom  100 type  1   force =    -0.00029383    0.00019958   -0.00007550
     atom  101 type  2   force =     0.00000000    0.00003434   -0.00026284
     atom  102 type  2   force =     0.00000000   -0.00034385    0.00051984
     atom  103 type  2   force =     0.00005579    0.00060224    0.00008355
     atom  104 type  2   force =    -0.00008410   -0.00057882    0.00004192
     atom  105 type  2   force =     0.00004208   -0.00003853    0.00021433
     atom  106 type  2   force =     0.00007249   -0.00022996    0.00032357
     atom  107 type  2   force =     0.00000000   -0.00023955   -0.00014769
     atom  108 type  2   force =     0.00000000    0.00018482    0.00051146
     atom  109 type  2   force =    -0.00004208   -0.00003853    0.00021433
     atom  110 type  2   force =    -0.00007249   -0.00022996    0.00032357
     atom  111 type  2   force =    -0.00005579    0.00060224    0.00008355
     atom  112 type  2   force =     0.00008410   -0.00057882    0.00004192
     atom  113 type  2   force =     0.00000000   -0.00038185   -0.00042443
     atom  114 type  2   force =     0.00000000   -0.00009626   -0.00096988
     atom  115 type  2   force =    -0.00027022   -0.00069176    0.00030867
     atom  116 type  2   force =    -0.00009945    0.00027466   -0.00008417
     atom  117 type  2   force =    -0.00049471   -0.00094831    0.00021107
     atom  118 type  2   force =    -0.00106732   -0.00056224    0.00021147
     atom  119 type  2   force =     0.00000000   -0.00068849   -0.00116071
     atom  120 type  2   force =     0.00049471   -0.00094831    0.00021107
     atom  121 type  2   force =     0.00106732   -0.00056224    0.00021147
     atom  122 type  2   force =     0.00027022   -0.00069176    0.00030867
     atom  123 type  2   force =     0.00009945    0.00027466   -0.00008417
     atom  124 type  2   force =     0.00000000    0.00100357    0.00009522
     atom  125 type  2   force =     0.00000000    0.00077060   -0.00071383
     atom  126 type  2   force =    -0.00017148    0.00072269   -0.00052674
     atom  127 type  2   force =     0.00020706   -0.00032831   -0.00044067
     atom  128 type  2   force =     0.00004721   -0.00036986    0.00045306
     atom  129 type  2   force =     0.00030600   -0.00054913   -0.00021890
     atom  130 type  2   force =     0.00000000   -0.00024322   -0.00060786
     atom  131 type  2   force =     0.00000000   -0.00058187    0.00025020
     atom  132 type  2   force =    -0.00004721   -0.00036986    0.00045306
     atom  133 type  2   force =    -0.00030600   -0.00054913   -0.00021890
     atom  134 type  2   force =     0.00017148    0.00072269   -0.00052674
     atom  135 type  2   force =    -0.00020706   -0.00032831   -0.00044067
     atom  136 type  2   force =     0.00000000   -0.00070869    0.00020469
     atom  137 type  2   force =     0.00000000   -0.00031354   -0.00141785
     atom  138 type  2   force =     0.00027820   -0.00080885    0.00098881
     atom  139 type  2   force =    -0.00042168   -0.00040805   -0.00009748
     atom  140 type  2   force =    -0.00018237   -0.00050069   -0.00009065
     atom  141 type  2   force =    -0.00004375   -0.00014101   -0.00010495
     atom  142 type  2   force =     0.00000000   -0.00052601   -0.00004038
     atom  143 type  2   force =     0.00000000   -0.00083978   -0.00005315
     atom  144 type  2   force =     0.00018237   -0.00050069   -0.00009065
     atom  145 type  2   force =     0.00004375   -0.00014101   -0.00010495
     atom  146 type  2   force =    -0.00027820   -0.00080885    0.00098881
     atom  147 type  2   force =     0.00042168   -0.00040805   -0.00009748

     Total force =     0.006160     Total SCF correction =     0.000243

     number of scf cycles    =  18
     number of bfgs steps    =  17

     energy   old            =  -12687.1489897638 Ry
     energy   new            =  -12687.1490183265 Ry

     CASE: energy  _new < energy  _old

     new trust radius        =       0.0013224396 bohr
     new conv_thr            =       0.0000000029 Ry


ATOMIC_POSITIONS (angstrom)
Cu       0.000000000   0.084330704   7.407620783
Cu       1.843449436   1.778462576   7.414580846
Cu       3.689036991   0.088175537   7.406790602
Cu       5.534624547   1.778462576   7.414580846
Cu       0.000000000   3.466331010   7.416849716
Cu       1.844872597   5.155540463   7.409097621
Cu       3.689036991   3.462883324   7.415290359
Cu       5.533201386   5.155540463   7.409097621
Cu       0.000000000   6.859490781   7.400814978
Cu       1.845219415   8.575450758   7.396279964
Cu       3.689036991   6.859989640   7.399439359
Cu       5.532854568   8.575450758   7.396279964
Cu       0.000000000  10.292186543   7.401785544
Cu       1.844041240  12.005015056   7.406444263
Cu       3.689036991  10.293266050   7.400850867
Cu       5.534032743  12.005015056   7.406444263
Cu       0.000000000  13.716534016   7.405262186
Cu       1.845296255  15.422474430   7.404362734
Cu       3.689036991  13.712124986   7.406882686
Cu       5.532777728  15.422474430   7.404362734
Cu       0.000000000   1.775448071   9.260436499
Cu       1.844536603   0.084763811   9.250174441
Cu       3.689036991   1.777020639   9.264135124
Cu       5.533537380   0.084763811   9.250174441
Cu       0.000000000   5.163921646   9.250097786
Cu       1.844754606   3.468412003   9.262273514
Cu       3.689036991   5.162392069   9.245607897
Cu       5.533319377   3.468412003   9.262273514
Cu       0.000000000   8.574571513   9.218470134
Cu       1.844826796   6.865209782   9.227714547
Cu       3.689036991   8.574772622   9.217570568
Cu       5.533247187   6.865209782   9.227714547
Cu       0.000000000  12.002120957   9.226996752
Cu       1.845603181  10.285859678   9.224476470
Cu       3.689036991  11.998224240   9.233510580
Cu       5.532470802  10.285859678   9.224476470
Cu       0.000000000  15.423118135   9.235713160
Cu       1.844584157  13.715477717   9.230349893
Cu       3.689036991  15.425307024   9.230388853
Cu       5.533489826  13.715477717   9.230349893
Cu       0.000000000   0.075435692  11.096769862
Cu       1.847517455   1.780437948  11.120316821
Cu       3.689036991   0.070347865  11.096930438
Cu       5.530556528   1.780437948  11.120316821
Cu       0.000000000   3.470749775  11.109842034
Cu       1.844845290   5.176596438  11.097492877
Cu       3.689036991   3.485380457  11.117535728
Cu       5.533228693   5.176596438  11.097492877
Cu       0.000000000   6.878631566  11.067710890
Cu       1.846236604   8.574201715  11.056944094
Cu       3.689036991   6.873580744  11.066649946
Cu       5.531837379   8.574201715  11.056944094
Cu       0.000000000  10.286214977  11.052046804
Cu       1.845076255  12.003720309  11.054811165
Cu       3.689036991  10.272568462  11.067444016
Cu       5.532997728  12.003720309  11.054811165
Cu       0.000000000  13.716222994  11.062657352
Cu       1.842339492  15.417523998  11.077390769
Cu       3.689036991  13.728032730  11.055522728
Cu       5.535734491  15.417523998  11.077390769
Cu       0.000000000   1.769759290  12.945739986
Cu       1.844250122   0.052331820  12.942291651
Cu       3.689036991   1.760844765  12.946967327
Cu       5.533823861   0.052331820  12.942291651
Cu       0.000000000   5.183588623  12.920171329
Cu       1.864779463   3.504578067  12.975605043
Cu       3.689036991   5.232504590  12.973204999
Cu       5.513294520   3.504578067  12.975605043
Cu       0.000000000   8.596119910  12.896940118
Cu       1.861132272   6.897733384  12.916993301
Cu       3.689036991   8.532194515  12.943220740
Cu       5.516941711   6.897733384  12.916993301
Cu       0.000000000  12.012900171  12.876551822
Cu       1.847871862  10.291806745  12.872761757
Cu       3.689036991  12.036171045  12.852612244
Cu       5.530202121  10.291806745  12.872761757
Cu       0.000000000  15.402321051  12.930661876
Cu       1.839906358  13.717841912  12.902825489
Cu       3.689036991  15.401741188  12.937435751
Cu       5.538167625  13.717841912  12.902825489
Cu       0.000000000   0.029974128  14.776183668
Cu       1.809124837   1.745135932  14.750331118
Cu       3.689036991   0.060270108  14.775594488
Cu       5.568949146   1.745135932  14.750331118
Cu       0.000000000   3.517273073  14.715019073
Cu       1.937860568   5.256734378  14.772079104
Cu       3.689036991   3.405300592  14.779122321
Cu       5.440213415   5.256734378  14.772079104
Cu       0.000000000   6.887032695  14.635680599
Cu       1.871170020   8.633461994  14.713308919
Cu       3.689036991   6.966728094  15.543902745
Cu       5.506903963   8.633461994  14.713308919
Cu       0.000000000  10.325802449  14.670815722
Cu       1.827616622  12.015263099  14.692763711
Cu       3.689036991  10.377360171  14.606629540
Cu       5.550457361  12.015263099  14.692763711
Cu       0.000000000  13.702425315  14.751185069
Cu       1.853665526  15.383201933  14.772729587
Cu       3.689036991  13.678356253  14.742529977
Cu       5.524408457  15.383201933  14.772729587
C        0.000000000   0.563636946  17.798255709
C        0.000000000   1.985225787  17.765796341
C        1.230221072  -0.149195114  17.798486597
C        1.229861886   2.692616123  17.678644696
C        2.459138943   0.560085106  17.749069161
C        2.459038199   1.977814363  17.647369427
C        3.689036991  -0.152800029  17.755255705
C        3.689036991   2.682734559  17.508863141
C        4.918935039   0.560085106  17.749069161
C        4.919035783   1.977814363  17.647369427
C        6.147852911  -0.149195114  17.798486597
C        6.148212097   2.692616123  17.678644696
C        0.000000000   4.819328574  17.500548542
C        0.000000000   6.235679331  17.355444882
C        1.228327359   4.103484495  17.524648215
C        1.220363021   6.930245357  17.090877306
C        2.431337400   4.781388281  17.139692069
C        2.325386969   6.123987874  16.681910640
C        3.689036991   4.071753914  17.182981501
C        4.946736582   4.781388281  17.139692069
C        5.052687013   6.123987874  16.681910640
C        6.149746624   4.103484495  17.524648215
C        6.157710962   6.930245357  17.090877306
C        0.000000000   9.075611118  17.276951903
C        0.000000000  10.488893172  17.471808481
C        1.230400133   8.370806186  17.097563581
C        1.229314312  11.202600335  17.581249854
C        2.463749443   9.115341910  17.114745449
C        2.457293870  10.504301682  17.473081885
C        3.689036991   8.515146351  16.753663634
C        3.689036991  11.206763610  17.572237667
C        4.914324539   9.115341910  17.114745449
C        4.920780112  10.504301682  17.473081885
C        6.147673850   8.370806186  17.097563581
C        6.148759671  11.202600335  17.581249854
C        0.000000000  13.334635085  17.740892062
C        0.000000000  14.756086330  17.795661064
C        1.229602013  12.621229241  17.708652374
C        1.229926376  15.467474413  17.800183426
C        2.459336999  13.331774261  17.754955110
C        2.459883877  14.754054587  17.790202682
C        3.689036991  12.622106252  17.718501583
C        3.689036991  15.464908795  17.791982195
C        4.918736983  13.331774261  17.754955110
C        4.918190105  14.754054587  17.790202682
C        6.148471970  12.621229241  17.708652374
C        6.148147607  15.467474413  17.800183426



     Writing output data file gc.save
     Check: negative starting charge=   -0.001882
     NEW-OLD atomic charge density approx. for the potential
     Check: negative starting charge=   -0.001882

     negative rho (up, down):  1.954E-03 0.000E+00

     total cpu time spent up to now is    58173.8 secs

     Self-consistent Calculation

     iteration #  1     ecut=    80.00 Ry     beta=0.70
     Davidson diagonalization with overlap
     ethr =  1.00E-06,  avg # of iterations =  2.0

     Threshold (ethr) on eigenvalues was too large:
     Diagonalizing with lowered threshold

     Davidson diagonalization with overlap
     ethr =  1.57E-09,  avg # of iterations =  3.5

     negative rho (up, down):  1.951E-03 0.000E+00

     total cpu time spent up to now is    58761.4 secs

     total energy              =  -12687.14905058 Ry
     Harris-Foulkes estimate   =  -12687.14905272 Ry
     estimated scf accuracy    <       0.00001689 Ry

     iteration #  2     ecut=    80.00 Ry     beta=0.70
     Davidson diagonalization with overlap
     ethr =  1.31E-09,  avg # of iterations =  2.0

     negative rho (up, down):  1.949E-03 0.000E+00

     total cpu time spent up to now is    58944.0 secs

     total energy              =  -12687.14905066 Ry
     Harris-Foulkes estimate   =  -12687.14905149 Ry
     estimated scf accuracy    <       0.00000291 Ry

     iteration #  3     ecut=    80.00 Ry     beta=0.70
     Davidson diagonalization with overlap
     ethr =  2.26E-10,  avg # of iterations =  2.5

     negative rho (up, down):  1.947E-03 0.000E+00

     total cpu time spent up to now is    59153.5 secs

     total energy              =  -12687.14905087 Ry
     Harris-Foulkes estimate   =  -12687.14905131 Ry
     estimated scf accuracy    <       0.00000430 Ry

     iteration #  4     ecut=    80.00 Ry     beta=0.70
     Davidson diagonalization with overlap
