
     Program PWSCF v.5.4.0 starts on 23Mar2017 at  1:55: 7 

     This program is part of the open-source Quantum ESPRESSO suite
     for quantum simulation of materials; please cite
         "P. Giannozzi et al., J. Phys.:Condens. Matter 21 395502 (2009);
          URL http://www.quantum-espresso.org", 
     in publications or presentations arising from this work. More details at
     http://www.quantum-espresso.org/quote

     Parallel version (MPI & OpenMP), running on      56 processor cores
     Number of MPI processes:                56
     Threads/MPI process:                     1
     R & G space division:  proc/nbgrp/npool/nimage =      56
     Waiting for input...
     Reading input from standard input

     Current dimensions of program PWSCF are:
     Max number of different atomic species (ntypx) = 10
     Max number of k-points (npk) =  40000
     Max angular momentum in pseudopotentials (lmaxx) =  3

     -------------------------------------
     Parameters for Dispersion Correction:
     -------------------------------------
       atom      VdW radius       C_6     

        Cu         2.952        374.666
        C          2.744         60.710

     Subspace diagonalization in iterative solution of the eigenvalue problem:
     one sub-group per band group will be used
     scalapack distributed-memory algorithm (size of sub-group:  5*  5 procs)

 
     Parallelization info
     --------------------
     sticks:   dense  smooth     PW     G-vecs:    dense   smooth      PW
     Min         204     204     54                36612    36612    4962
     Max         205     205     55                36617    36617    4968
     Sum       11433   11433   3039              2050409  2050409  278033
 


     bravais-lattice index     =            0
     lattice parameter (alat)  =      13.9425  a.u.
     unit-cell volume          =   21209.0878 (a.u.)^3
     number of atoms/cell      =          147
     number of atomic types    =            2
     number of electrons       =      1288.00
     number of Kohn-Sham states=          773
     kinetic-energy cutoff     =      80.0000  Ry
     charge density cutoff     =     320.0000  Ry
     convergence threshold     =      1.0E-08
     mixing beta               =       0.7000
     number of iterations used =            8  local-TF  mixing
     Exchange-correlation      =  SLA  PW   PBX  PBC ( 1  4  3  4 0 0)
     nstep                     =           50


     celldm(1)=  13.942539  celldm(2)=   0.000000  celldm(3)=   0.000000
     celldm(4)=   0.000000  celldm(5)=   0.000000  celldm(6)=   0.000000

     crystal axes: (cart. coord. in units of alat)
               a(1) = (   1.000000   0.000000   0.000000 )  
               a(2) = (   0.000000   2.309401   0.000000 )  
               a(3) = (   0.000000   0.000000   3.388418 )  

     reciprocal axes: (cart. coord. in units 2 pi/alat)
               b(1) = (  1.000000  0.000000  0.000000 )  
               b(2) = (  0.000000  0.433013  0.000000 )  
               b(3) = (  0.000000  0.000000  0.295123 )  


     PseudoPot. # 1 for Cu read from file:
     /home/549/hxw549/Short/pseudopotentials/Cu.pbe-n-van_ak.UPF
     MD5 check sum: 601f7c30f7467666bec936e0661ce3e1
     Pseudo is Ultrasoft + core correction, Zval = 11.0
     Generated by new atomic code, or converted to UPF format
     Using radial grid of  867 points,  6 beta functions with: 
                l(1) =   0
                l(2) =   0
                l(3) =   1
                l(4) =   1
                l(5) =   2
                l(6) =   2
     Q(r) pseudized with  8 coefficients,  rinner =    1.400   1.400   1.400
                                                       1.400   1.400

     PseudoPot. # 2 for C  read from file:
     /home/549/hxw549/Short/pseudopotentials/C.pbe-mt_gipaw.UPF
     MD5 check sum: 5ac2f21f2c440b14befe521540822c15
     Pseudo is Norm-conserving, Zval =  4.0
     Generated by new atomic code, or converted to UPF format
     Using radial grid of 1073 points,  1 beta functions with: 
                l(1) =   0

     atomic species   valence    mass     pseudopotential
        Cu            11.00    63.54600     Cu( 1.00)
        C              4.00    12.01070     C ( 1.00)

      2 Sym. Ops. (no inversion) found



   Cartesian axes

     site n.     atom                  positions (alat units)
         1           Cu  tau(   1) = (   0.0000000   0.0049124   1.0056616  )
         2           Cu  tau(   2) = (   0.2499332   0.2334812   1.0033731  )
         3           Cu  tau(   3) = (   0.5000000   0.0055638   1.0063308  )
         4           Cu  tau(   4) = (   0.7500668   0.2334812   1.0033731  )
         5           Cu  tau(   5) = (   0.0000000   0.4624184   1.0010559  )
         6           Cu  tau(   6) = (   0.2499110   0.6922198   0.9998726  )
         7           Cu  tau(   7) = (   0.5000000   0.4619220   1.0004626  )
         8           Cu  tau(   8) = (   0.7500890   0.6922198   0.9998726  )
         9           Cu  tau(   9) = (   0.0000000   0.9230754   1.0005774  )
        10           Cu  tau(  10) = (   0.2500705   1.1539277   1.0007522  )
        11           Cu  tau(  11) = (   0.5000000   0.9229501   1.0002469  )
        12           Cu  tau(  12) = (   0.7499295   1.1539277   1.0007522  )
        13           Cu  tau(  13) = (   0.0000000   1.3848099   1.0012456  )
        14           Cu  tau(  14) = (   0.2498615   1.6170127   1.0024822  )
        15           Cu  tau(  15) = (   0.5000000   1.3851765   1.0012983  )
        16           Cu  tau(  16) = (   0.7501385   1.6170127   1.0024822  )
        17           Cu  tau(  17) = (   0.0000000   1.8510826   1.0040427  )
        18           Cu  tau(  18) = (   0.2500354   2.0842658   1.0058348  )
        19           Cu  tau(  19) = (   0.5000000   1.8505125   1.0040008  )
        20           Cu  tau(  20) = (   0.7499646   2.0842658   1.0058348  )
        21           Cu  tau(  21) = (   0.0000000   0.2361823   1.2541312  )
        22           Cu  tau(  22) = (   0.2501666   0.0074989   1.2561534  )
        23           Cu  tau(  23) = (   0.5000000   0.2372860   1.2554951  )
        24           Cu  tau(  24) = (   0.7498334   0.0074989   1.2561534  )
        25           Cu  tau(  25) = (   0.0000000   0.6929387   1.2495558  )
        26           Cu  tau(  26) = (   0.2501233   0.4643843   1.2513882  )
        27           Cu  tau(  27) = (   0.5000000   0.6923971   1.2492335  )
        28           Cu  tau(  28) = (   0.7498767   0.4643843   1.2513882  )
        29           Cu  tau(  29) = (   0.0000000   1.1539465   1.2483171  )
        30           Cu  tau(  30) = (   0.2502885   0.9224978   1.2484678  )
        31           Cu  tau(  31) = (   0.5000000   1.1535867   1.2485622  )
        32           Cu  tau(  32) = (   0.7497115   0.9224978   1.2484678  )
        33           Cu  tau(  33) = (   0.0000000   1.6165678   1.2487385  )
        34           Cu  tau(  34) = (   0.2503056   1.3848227   1.2492836  )
        35           Cu  tau(  35) = (   0.5000000   1.6164368   1.2497595  )
        36           Cu  tau(  36) = (   0.7496944   1.3848227   1.2492836  )
        37           Cu  tau(  37) = (   0.0000000   2.0841072   1.2531330  )
        38           Cu  tau(  38) = (   0.2500482   1.8498655   1.2497606  )
        39           Cu  tau(  39) = (   0.5000000   2.0837231   1.2524442  )
        40           Cu  tau(  40) = (   0.7499518   1.8498655   1.2497606  )
        41           Cu  tau(  41) = (   0.0000000   0.0084745   1.5047966  )
        42           Cu  tau(  42) = (   0.2505960   0.2411642   1.5091708  )
        43           Cu  tau(  43) = (   0.5000000   0.0072499   1.5041128  )
        44           Cu  tau(  44) = (   0.7494040   0.2411642   1.5091708  )
        45           Cu  tau(  45) = (   0.0000000   0.4663238   1.5040823  )
        46           Cu  tau(  46) = (   0.2501019   0.6940271   1.5019844  )
        47           Cu  tau(  47) = (   0.5000000   0.4688639   1.5069158  )
        48           Cu  tau(  48) = (   0.7498981   0.6940271   1.5019844  )
        49           Cu  tau(  49) = (   0.0000000   0.9245258   1.4961243  )
        50           Cu  tau(  50) = (   0.2510759   1.1538014   1.4976492  )
        51           Cu  tau(  51) = (   0.5000000   0.9234544   1.4985614  )
        52           Cu  tau(  52) = (   0.7489241   1.1538014   1.4976492  )
        53           Cu  tau(  53) = (   0.0000000   1.3855222   1.4975749  )
        54           Cu  tau(  54) = (   0.2503093   1.6178029   1.4968705  )
        55           Cu  tau(  55) = (   0.5000000   1.3831848   1.4996101  )
        56           Cu  tau(  56) = (   0.7496907   1.6178029   1.4968705  )
        57           Cu  tau(  57) = (   0.0000000   1.8493897   1.4967633  )
        58           Cu  tau(  58) = (   0.2497932   2.0827346   1.5000222  )
        59           Cu  tau(  59) = (   0.5000000   1.8506573   1.4976201  )
        60           Cu  tau(  60) = (   0.7502068   2.0827346   1.5000222  )
        61           Cu  tau(  61) = (   0.0000000   0.2423359   1.7572697  )
        62           Cu  tau(  62) = (   0.2494703   0.0046951   1.7510159  )
        63           Cu  tau(  63) = (   0.5000000   0.2388043   1.7567036  )
        64           Cu  tau(  64) = (   0.7505297   0.0046951   1.7510159  )
        65           Cu  tau(  65) = (   0.0000000   0.6984542   1.7473239  )
        66           Cu  tau(  66) = (   0.2532015   0.4761135   1.7662452  )
        67           Cu  tau(  67) = (   0.5000000   0.7052805   1.7596468  )
        68           Cu  tau(  68) = (   0.7467985   0.4761135   1.7662452  )
        69           Cu  tau(  69) = (   0.0000000   1.1560531   1.7451777  )
        70           Cu  tau(  70) = (   0.2522309   0.9269251   1.7486193  )
        71           Cu  tau(  71) = (   0.5000000   1.1459553   1.7581099  )
        72           Cu  tau(  72) = (   0.7477691   0.9269251   1.7486193  )
        73           Cu  tau(  73) = (   0.0000000   1.6201398   1.7440648  )
        74           Cu  tau(  74) = (   0.2510429   1.3870772   1.7432954  )
        75           Cu  tau(  75) = (   0.5000000   1.6199180   1.7439495  )
        76           Cu  tau(  76) = (   0.7489571   1.3870772   1.7432954  )
        77           Cu  tau(  77) = (   0.0000000   2.0794949   1.7467803  )
        78           Cu  tau(  78) = (   0.2502754   1.8500113   1.7463729  )
        79           Cu  tau(  79) = (   0.5000000   2.0822474   1.7486593  )
        80           Cu  tau(  80) = (   0.7497246   1.8500113   1.7463729  )
        81           Cu  tau(  81) = (   0.0000000  -0.0038166   1.9947423  )
        82           Cu  tau(  82) = (   0.2414994   0.2331483   1.9998987  )
        83           Cu  tau(  83) = (   0.5000000   0.0053490   1.9972979  )
        84           Cu  tau(  84) = (   0.7585006   0.2331483   1.9998987  )
        85           Cu  tau(  85) = (   0.0000000   0.4858626   1.9999860  )
        86           Cu  tau(  86) = (   0.2739940   0.7189617   2.0109123  )
        87           Cu  tau(  87) = (   0.5000000   0.4568589   2.0105708  )
        88           Cu  tau(  88) = (   0.7260060   0.7189617   2.0109123  )
        89           Cu  tau(  89) = (   0.0000000   0.9224632   1.9848478  )
        90           Cu  tau(  90) = (   0.2448926   1.1621533   1.9895935  )
        91           Cu  tau(  91) = (   0.5000000   0.9629438   2.1232887  )
        92           Cu  tau(  92) = (   0.7551074   1.1621533   1.9895935  )
        93           Cu  tau(  93) = (   0.0000000   1.3946847   1.9883735  )
        94           Cu  tau(  94) = (   0.2498429   1.6194131   1.9914288  )
        95           Cu  tau(  95) = (   0.5000000   1.3903899   1.9849627  )
        96           Cu  tau(  96) = (   0.7501571   1.6194131   1.9914288  )
        97           Cu  tau(  97) = (   0.0000000   1.8496062   1.9950271  )
        98           Cu  tau(  98) = (   0.2521460   2.0792943   1.9941746  )
        99           Cu  tau(  99) = (   0.5000000   1.8476210   1.9931558  )
       100           Cu  tau( 100) = (   0.7478540   2.0792943   1.9941746  )
       101           C   tau( 101) = (   0.0000000   0.0897465   2.3999413  )
       102           C   tau( 102) = (   0.0000000   0.2823560   2.4039079  )
       103           C   tau( 103) = (   0.1662557  -0.0073410   2.3974581  )
       104           C   tau( 104) = (   0.1668608   0.3783950   2.3968732  )
       105           C   tau( 105) = (   0.3329769   0.0886252   2.3934823  )
       106           C   tau( 106) = (   0.3330117   0.2811069   2.3883011  )
       107           C   tau( 107) = (   0.5000000  -0.0077543   2.3910510  )
       108           C   tau( 108) = (   0.5000000   0.3774434   2.3738798  )
       109           C   tau( 109) = (   0.6670231   0.0886252   2.3934823  )
       110           C   tau( 110) = (   0.6669883   0.2811069   2.3883011  )
       111           C   tau( 111) = (   0.8337443  -0.0073410   2.3974581  )
       112           C   tau( 112) = (   0.8331392   0.3783950   2.3968732  )
       113           C   tau( 113) = (   0.0000000   0.6658642   2.3780375  )
       114           C   tau( 114) = (   0.0000000   0.8578249   2.3600225  )
       115           C   tau( 115) = (   0.1666952   0.5698715   2.3807076  )
       116           C   tau( 116) = (   0.1644528   0.9529719   2.3276129  )
       117           C   tau( 117) = (   0.3295845   0.6631505   2.3302068  )
       118           C   tau( 118) = (   0.3143529   0.8456811   2.2696313  )
       119           C   tau( 119) = (   0.5000000   0.5674603   2.3382476  )
       120           C   tau( 120) = (   0.6704155   0.6631505   2.3302068  )
       121           C   tau( 121) = (   0.6856471   0.8456811   2.2696313  )
       122           C   tau( 122) = (   0.8333048   0.5698715   2.3807076  )
       123           C   tau( 123) = (   0.8355472   0.9529719   2.3276129  )
       124           C   tau( 124) = (   0.0000000   1.2429252   2.3600891  )
       125           C   tau( 125) = (   0.0000000   1.4349970   2.3819521  )
       126           C   tau( 126) = (   0.1660994   1.1472026   2.3373318  )
       127           C   tau( 127) = (   0.1668078   1.5311653   2.3912044  )
       128           C   tau( 128) = (   0.3338687   1.2452590   2.3426284  )
       129           C   tau( 129) = (   0.3331173   1.4351054   2.3816784  )
       130           C   tau( 130) = (   0.5000000   1.1628877   2.2981765  )
       131           C   tau( 131) = (   0.5000000   1.5309844   2.3893052  )
       132           C   tau( 132) = (   0.6661313   1.2452590   2.3426284  )
       133           C   tau( 133) = (   0.6668827   1.4351054   2.3816784  )
       134           C   tau( 134) = (   0.8339006   1.1472026   2.3373318  )
       135           C   tau( 135) = (   0.8331922   1.5311653   2.3912044  )
       136           C   tau( 136) = (   0.0000000   1.8199347   2.3979768  )
       137           C   tau( 137) = (   0.0000000   2.0125576   2.3983414  )
       138           C   tau( 138) = (   0.1669245   1.7238013   2.3977227  )
       139           C   tau( 139) = (   0.1663236   2.1093126   2.3968299  )
       140           C   tau( 140) = (   0.3334168   1.8202633   2.3980451  )
       141           C   tau( 141) = (   0.3332375   2.0129666   2.3970243  )
       142           C   tau( 142) = (   0.5000000   1.7235787   2.3971062  )
       143           C   tau( 143) = (   0.5000000   2.1091668   2.3958000  )
       144           C   tau( 144) = (   0.6665832   1.8202633   2.3980451  )
       145           C   tau( 145) = (   0.6667625   2.0129666   2.3970243  )
       146           C   tau( 146) = (   0.8330755   1.7238013   2.3977227  )
       147           C   tau( 147) = (   0.8336764   2.1093126   2.3968299  )

     number of k points=     6  gaussian smearing, width (Ry)=  0.1000
                       cart. coord. in units 2pi/alat
        k(    1) = (   0.0000000   0.0000000   0.0000000), wk =   0.2500000
        k(    2) = (   0.0000000  -0.2165064   0.0000000), wk =   0.2500000
        k(    3) = (   0.2500000   0.0000000   0.0000000), wk =   0.5000000
        k(    4) = (   0.2500000  -0.2165064   0.0000000), wk =   0.5000000
        k(    5) = (  -0.5000000   0.0000000   0.0000000), wk =   0.2500000
        k(    6) = (  -0.5000000  -0.2165064   0.0000000), wk =   0.2500000

     Dense  grid:  2050409 G-vectors     FFT dimensions: (  80, 192, 270)

     Largest allocated arrays     est. size (Mb)     dimensions
        Kohn-Sham Wavefunctions        54.30 Mb     (    4604,  773)
        NL pseudopotentials           129.75 Mb     (    4604, 1847)
        Each V/rho on FFT grid          1.17 Mb     (   76800)
        Each G-vector array             0.28 Mb     (   36616)
        G-vector shells                 0.14 Mb     (   17932)
     Largest temporary arrays     est. size (Mb)     dimensions
        Auxiliary wavefunctions       217.22 Mb     (    4604, 3092)
        Each subspace H/S matrix        5.83 Mb     (     618,  618)
        Each <psi_i|beta_j> matrix     21.79 Mb     (    1847,  773)
        Arrays for rho mixing           9.38 Mb     (   76800,    8)

     Initial potential from superposition of free atoms
     Check: negative starting charge=   -0.001842

     starting charge 1263.31751, renormalised to 1288.00000

     negative rho (up, down):  1.878E-03 0.000E+00
     Starting wfc are 1276 randomized atomic wfcs

     total cpu time spent up to now is      105.1 secs

     Self-consistent Calculation

     iteration #  1     ecut=    80.00 Ry     beta=0.70
     Davidson diagonalization with overlap
     ethr =  1.00E-04,  avg # of iterations = 20.3

     negative rho (up, down):  2.666E+01 0.000E+00

     total cpu time spent up to now is     1777.9 secs

     total energy              =   -9668.93556567 Ry
     Harris-Foulkes estimate   =  -16821.35992975 Ry
     estimated scf accuracy    <  165290.02777760 Ry

     iteration #  2     ecut=    80.00 Ry     beta=0.70
     Davidson diagonalization with overlap
     ethr =  1.00E-02,  avg # of iterations = 10.0

     negative rho (up, down):  2.745E+01 0.000E+00

     total cpu time spent up to now is     2728.8 secs

     total energy              =  -12815.11300158 Ry
     Harris-Foulkes estimate   =  -13462.13415959 Ry
     estimated scf accuracy    <    8236.19642043 Ry

     iteration #  3     ecut=    80.00 Ry     beta=0.70
     Davidson diagonalization with overlap
     ethr =  1.00E-02,  avg # of iterations =  4.0

     negative rho (up, down):  2.739E+01 0.000E+00

     total cpu time spent up to now is     3083.3 secs

     total energy              =  -13149.45100863 Ry
     Harris-Foulkes estimate   =  -13140.88983811 Ry
     estimated scf accuracy    <   13754.39782188 Ry

     iteration #  4     ecut=    80.00 Ry     beta=0.70
     Davidson diagonalization with overlap
     ethr =  1.00E-02,  avg # of iterations =  1.0

     negative rho (up, down):  2.578E+01 0.000E+00

     total cpu time spent up to now is     3247.5 secs

     total energy              =  -12874.44326537 Ry
     Harris-Foulkes estimate   =  -13150.59920193 Ry
     estimated scf accuracy    <   14564.55081367 Ry

     iteration #  5     ecut=    80.00 Ry     beta=0.70
     Davidson diagonalization with overlap
     ethr =  1.00E-02,  avg # of iterations =  5.2

     negative rho (up, down):  1.994E+01 0.000E+00

     total cpu time spent up to now is     3742.6 secs

     total energy              =  -12982.60164618 Ry
     Harris-Foulkes estimate   =  -13141.33995381 Ry
     estimated scf accuracy    <    5779.19126394 Ry

     iteration #  6     ecut=    80.00 Ry     beta=0.70
     Davidson diagonalization with overlap
     ethr =  1.00E-02,  avg # of iterations =  3.3

     negative rho (up, down):  1.752E+01 0.000E+00

     total cpu time spent up to now is     3997.0 secs

     total energy              =  -12968.72049514 Ry
     Harris-Foulkes estimate   =  -13050.81225858 Ry
     estimated scf accuracy    <    5728.28292117 Ry

     iteration #  7     ecut=    80.00 Ry     beta=0.70
     Davidson diagonalization with overlap
     ethr =  1.00E-02,  avg # of iterations =  5.8

     negative rho (up, down):  1.502E+01 0.000E+00

     total cpu time spent up to now is     4239.3 secs

     total energy              =  -12930.70264383 Ry
     Harris-Foulkes estimate   =  -12997.54231481 Ry
     estimated scf accuracy    <    4462.17183970 Ry

     iteration #  8     ecut=    80.00 Ry     beta=0.70
     Davidson diagonalization with overlap
     ethr =  1.00E-02,  avg # of iterations =  4.0

     negative rho (up, down):  1.231E+01 0.000E+00

     total cpu time spent up to now is     4474.0 secs

     total energy              =  -12876.76953780 Ry
     Harris-Foulkes estimate   =  -12945.95115596 Ry
     estimated scf accuracy    <    3653.61154467 Ry

     iteration #  9     ecut=    80.00 Ry     beta=0.70
     Davidson diagonalization with overlap
     ethr =  1.00E-02,  avg # of iterations =  4.3

     negative rho (up, down):  1.112E+01 0.000E+00

     total cpu time spent up to now is     4693.8 secs

     total energy              =  -12854.84894365 Ry
     Harris-Foulkes estimate   =  -12889.69444158 Ry
     estimated scf accuracy    <    2220.45202682 Ry

     iteration # 10     ecut=    80.00 Ry     beta=0.70
     Davidson diagonalization with overlap
     ethr =  1.00E-02,  avg # of iterations =  2.0

     negative rho (up, down):  9.611E+00 0.000E+00

     total cpu time spent up to now is     4870.5 secs

     total energy              =  -12797.59140255 Ry
     Harris-Foulkes estimate   =  -12858.37436615 Ry
     estimated scf accuracy    <    2076.71646016 Ry

     iteration # 11     ecut=    80.00 Ry     beta=0.70
     Davidson diagonalization with overlap
     ethr =  1.00E-02,  avg # of iterations =  4.0

     negative rho (up, down):  7.432E+00 0.000E+00

     total cpu time spent up to now is     5130.2 secs

     total energy              =  -12787.56615600 Ry
     Harris-Foulkes estimate   =  -12822.56905589 Ry
     estimated scf accuracy    <     578.54361849 Ry

     iteration # 12     ecut=    80.00 Ry     beta=0.70
     Davidson diagonalization with overlap
     ethr =  1.00E-02,  avg # of iterations =  1.2

     negative rho (up, down):  4.938E+00 0.000E+00

     total cpu time spent up to now is     5296.1 secs

     total energy              =  -12771.44922605 Ry
     Harris-Foulkes estimate   =  -12800.36526605 Ry
     estimated scf accuracy    <     329.09484610 Ry

     iteration # 13     ecut=    80.00 Ry     beta=0.70
     Davidson diagonalization with overlap
     ethr =  1.00E-02,  avg # of iterations =  2.5

     negative rho (up, down):  3.291E+00 0.000E+00

     total cpu time spent up to now is     5484.8 secs

     total energy              =  -12760.66790404 Ry
     Harris-Foulkes estimate   =  -12783.74813214 Ry
     estimated scf accuracy    <     273.52867050 Ry

     iteration # 14     ecut=    80.00 Ry     beta=0.70
     Davidson diagonalization with overlap
     ethr =  1.00E-02,  avg # of iterations =  1.3

     negative rho (up, down):  1.509E+00 0.000E+00

     total cpu time spent up to now is     5653.4 secs

     total energy              =  -12739.91132924 Ry
     Harris-Foulkes estimate   =  -12770.95410636 Ry
     estimated scf accuracy    <     298.90260042 Ry

     iteration # 15     ecut=    80.00 Ry     beta=0.70
     Davidson diagonalization with overlap
     ethr =  1.00E-02,  avg # of iterations =  2.2

     negative rho (up, down):  7.048E-01 0.000E+00

     total cpu time spent up to now is     5836.7 secs

     total energy              =  -12736.92613856 Ry
     Harris-Foulkes estimate   =  -12758.84997943 Ry
     estimated scf accuracy    <     261.14371091 Ry

     iteration # 16     ecut=    80.00 Ry     beta=0.70
     Davidson diagonalization with overlap
     ethr =  1.00E-02,  avg # of iterations =  2.0

     negative rho (up, down):  9.063E-01 0.000E+00

     total cpu time spent up to now is     6016.8 secs

     total energy              =  -12736.19593348 Ry
     Harris-Foulkes estimate   =  -12746.29476175 Ry
     estimated scf accuracy    <     331.52263562 Ry

     iteration # 17     ecut=    80.00 Ry     beta=0.70
     Davidson diagonalization with overlap
     ethr =  1.00E-02,  avg # of iterations =  1.0

     negative rho (up, down):  1.326E+00 0.000E+00

     total cpu time spent up to now is     6182.0 secs

     total energy              =  -12733.29696583 Ry
     Harris-Foulkes estimate   =  -12741.35490493 Ry
     estimated scf accuracy    <     300.12101819 Ry

     iteration # 18     ecut=    80.00 Ry     beta=0.70
     Davidson diagonalization with overlap
     ethr =  1.00E-02,  avg # of iterations =  1.0

     negative rho (up, down):  3.333E+00 0.000E+00

     total cpu time spent up to now is     6348.1 secs

     total energy              =  -12719.34348568 Ry
     Harris-Foulkes estimate   =  -12734.13692547 Ry
     estimated scf accuracy    <     249.42461956 Ry

     iteration # 19     ecut=    80.00 Ry     beta=0.70
     Davidson diagonalization with overlap
     ethr =  1.00E-02,  avg # of iterations =  1.0

     negative rho (up, down):  1.747E+00 0.000E+00

     total cpu time spent up to now is     6514.3 secs

     total energy              =  -12691.08895231 Ry
     Harris-Foulkes estimate   =  -12721.41075461 Ry
     estimated scf accuracy    <     230.26734011 Ry

     iteration # 20     ecut=    80.00 Ry     beta=0.70
     Davidson diagonalization with overlap
     ethr =  1.00E-02,  avg # of iterations =  2.0

     negative rho (up, down):  2.677E+00 0.000E+00

     total cpu time spent up to now is     6696.3 secs

     total energy              =  -12695.13700781 Ry
     Harris-Foulkes estimate   =  -12703.68971462 Ry
     estimated scf accuracy    <      48.24155865 Ry

     iteration # 21     ecut=    80.00 Ry     beta=0.70
     Davidson diagonalization with overlap
     ethr =  3.75E-03,  avg # of iterations =  3.7

     negative rho (up, down):  2.964E+00 0.000E+00

     total cpu time spent up to now is     6894.3 secs

     total energy              =  -12694.59849045 Ry
     Harris-Foulkes estimate   =  -12697.38219048 Ry
     estimated scf accuracy    <      26.18033048 Ry

     iteration # 22     ecut=    80.00 Ry     beta=0.70
     Davidson diagonalization with overlap
     ethr =  2.03E-03,  avg # of iterations =  2.0

     negative rho (up, down):  2.209E+00 0.000E+00

     total cpu time spent up to now is     7071.7 secs

     total energy              =  -12693.60531041 Ry
     Harris-Foulkes estimate   =  -12696.56470069 Ry
     estimated scf accuracy    <      19.30710433 Ry

     iteration # 23     ecut=    80.00 Ry     beta=0.70
     Davidson diagonalization with overlap
     ethr =  1.50E-03,  avg # of iterations =  2.2

     negative rho (up, down):  2.695E+00 0.000E+00

     total cpu time spent up to now is     7248.9 secs

     total energy              =  -12691.88361023 Ry
     Harris-Foulkes estimate   =  -12694.06166595 Ry
     estimated scf accuracy    <       9.83753046 Ry

     iteration # 24     ecut=    80.00 Ry     beta=0.70
     Davidson diagonalization with overlap
     ethr =  7.64E-04,  avg # of iterations =  6.8

     negative rho (up, down):  1.611E+00 0.000E+00

     total cpu time spent up to now is     7498.8 secs

     total energy              =  -12691.91212385 Ry
     Harris-Foulkes estimate   =  -12692.69426063 Ry
     estimated scf accuracy    <      23.82467639 Ry

     iteration # 25     ecut=    80.00 Ry     beta=0.70
     Davidson diagonalization with overlap
     ethr =  7.64E-04,  avg # of iterations =  6.2

     negative rho (up, down):  1.817E+00 0.000E+00

     total cpu time spent up to now is     7723.4 secs

     total energy              =  -12691.76771018 Ry
     Harris-Foulkes estimate   =  -12692.33450171 Ry
     estimated scf accuracy    <      10.01984173 Ry

     iteration # 26     ecut=    80.00 Ry     beta=0.70
     Davidson diagonalization with overlap
     ethr =  7.64E-04,  avg # of iterations =  1.2

     negative rho (up, down):  1.564E+00 0.000E+00

     total cpu time spent up to now is     7890.5 secs

     total energy              =  -12690.79020395 Ry
     Harris-Foulkes estimate   =  -12692.18824692 Ry
     estimated scf accuracy    <       7.74366099 Ry

     iteration # 27     ecut=    80.00 Ry     beta=0.70
     Davidson diagonalization with overlap
     ethr =  6.01E-04,  avg # of iterations =  1.3

     negative rho (up, down):  7.443E-01 0.000E+00

     total cpu time spent up to now is     8061.0 secs

     total energy              =  -12688.72509452 Ry
     Harris-Foulkes estimate   =  -12690.90983901 Ry
     estimated scf accuracy    <       7.42837915 Ry

     iteration # 28     ecut=    80.00 Ry     beta=0.70
     Davidson diagonalization with overlap
     ethr =  5.77E-04,  avg # of iterations =  2.2

     negative rho (up, down):  7.496E-01 0.000E+00

     total cpu time spent up to now is     8239.6 secs

     total energy              =  -12687.99690382 Ry
     Harris-Foulkes estimate   =  -12689.00113880 Ry
     estimated scf accuracy    <      14.89800413 Ry

     iteration # 29     ecut=    80.00 Ry     beta=0.70
     Davidson diagonalization with overlap
     ethr =  5.77E-04,  avg # of iterations =  3.7

     negative rho (up, down):  4.184E-01 0.000E+00

     total cpu time spent up to now is     8435.3 secs

     total energy              =  -12686.91405046 Ry
     Harris-Foulkes estimate   =  -12688.27915099 Ry
     estimated scf accuracy    <      10.40627421 Ry

     iteration # 30     ecut=    80.00 Ry     beta=0.70
     Davidson diagonalization with overlap
     ethr =  5.77E-04,  avg # of iterations =  2.3

     negative rho (up, down):  8.756E-01 0.000E+00

     total cpu time spent up to now is     8616.7 secs

     total energy              =  -12687.20967294 Ry
     Harris-Foulkes estimate   =  -12687.63425265 Ry
     estimated scf accuracy    <       3.11545355 Ry

     iteration # 31     ecut=    80.00 Ry     beta=0.70
     Davidson diagonalization with overlap
     ethr =  2.42E-04,  avg # of iterations =  7.7

     negative rho (up, down):  9.019E-01 0.000E+00

     total cpu time spent up to now is     8869.5 secs

     total energy              =  -12687.17958546 Ry
     Harris-Foulkes estimate   =  -12687.37794530 Ry
     estimated scf accuracy    <       1.28258748 Ry

     iteration # 32     ecut=    80.00 Ry     beta=0.70
     Davidson diagonalization with overlap
     ethr =  9.96E-05,  avg # of iterations =  7.0

     negative rho (up, down):  7.657E-01 0.000E+00

     total cpu time spent up to now is     9112.2 secs

     total energy              =  -12687.13400136 Ry
     Harris-Foulkes estimate   =  -12687.26066223 Ry
     estimated scf accuracy    <       0.66969005 Ry

     iteration # 33     ecut=    80.00 Ry     beta=0.70
     Davidson diagonalization with overlap
     ethr =  5.20E-05,  avg # of iterations =  9.0

     negative rho (up, down):  4.365E-01 0.000E+00

     total cpu time spent up to now is     9397.4 secs

     total energy              =  -12687.13705367 Ry
     Harris-Foulkes estimate   =  -12687.17577611 Ry
     estimated scf accuracy    <       0.19830927 Ry

     iteration # 34     ecut=    80.00 Ry     beta=0.70
     Davidson diagonalization with overlap
     ethr =  1.54E-05,  avg # of iterations =  7.2

     negative rho (up, down):  2.575E-01 0.000E+00

     total cpu time spent up to now is     9646.3 secs

     total energy              =  -12687.13777065 Ry
     Harris-Foulkes estimate   =  -12687.15389854 Ry
     estimated scf accuracy    <       0.09065443 Ry

     iteration # 35     ecut=    80.00 Ry     beta=0.70
     Davidson diagonalization with overlap
     ethr =  7.04E-06,  avg # of iterations = 10.0

     negative rho (up, down):  2.209E-01 0.000E+00

     total cpu time spent up to now is     9932.4 secs

     total energy              =  -12687.14209863 Ry
     Harris-Foulkes estimate   =  -12687.14608000 Ry
     estimated scf accuracy    <       0.03585526 Ry

     iteration # 36     ecut=    80.00 Ry     beta=0.70
     Davidson diagonalization with overlap
     ethr =  2.78E-06,  avg # of iterations =  8.2

     negative rho (up, down):  1.137E-01 0.000E+00

     total cpu time spent up to now is    10205.5 secs

     total energy              =  -12687.14028346 Ry
     Harris-Foulkes estimate   =  -12687.14486752 Ry
     estimated scf accuracy    <       0.01551592 Ry

     iteration # 37     ecut=    80.00 Ry     beta=0.70
     Davidson diagonalization with overlap
     ethr =  1.20E-06,  avg # of iterations = 14.7

     negative rho (up, down):  5.480E-02 0.000E+00

     total cpu time spent up to now is    10565.1 secs

     total energy              =  -12687.13931419 Ry
     Harris-Foulkes estimate   =  -12687.14129118 Ry
     estimated scf accuracy    <       0.00442938 Ry

     iteration # 38     ecut=    80.00 Ry     beta=0.70
     Davidson diagonalization with overlap
     c_bands:  1 eigenvalues not converged
     ethr =  3.44E-07,  avg # of iterations = 13.7

     negative rho (up, down):  4.857E-02 0.000E+00

     total cpu time spent up to now is    10908.6 secs

     total energy              =  -12687.13920860 Ry
     Harris-Foulkes estimate   =  -12687.13971637 Ry
     estimated scf accuracy    <       0.00205728 Ry

     iteration # 39     ecut=    80.00 Ry     beta=0.70
     Davidson diagonalization with overlap
     ethr =  1.60E-07,  avg # of iterations =  7.7

     negative rho (up, down):  2.187E-02 0.000E+00

     total cpu time spent up to now is    11165.4 secs

     total energy              =  -12687.13876705 Ry
     Harris-Foulkes estimate   =  -12687.13932984 Ry
     estimated scf accuracy    <       0.00058688 Ry

     iteration # 40     ecut=    80.00 Ry     beta=0.70
     Davidson diagonalization with overlap
     c_bands:  1 eigenvalues not converged
     ethr =  4.56E-08,  avg # of iterations = 12.3

     negative rho (up, down):  4.887E-03 0.000E+00

     total cpu time spent up to now is    11491.7 secs

     total energy              =  -12687.13842545 Ry
     Harris-Foulkes estimate   =  -12687.13879740 Ry
     estimated scf accuracy    <       0.00023678 Ry

     iteration # 41     ecut=    80.00 Ry     beta=0.70
     Davidson diagonalization with overlap
     c_bands:  2 eigenvalues not converged
     ethr =  1.84E-08,  avg # of iterations = 18.0

     negative rho (up, down):  3.232E-03 0.000E+00

     total cpu time spent up to now is    11907.9 secs

     total energy              =  -12687.13841969 Ry
     Harris-Foulkes estimate   =  -12687.13844605 Ry
     estimated scf accuracy    <       0.00003675 Ry

     iteration # 42     ecut=    80.00 Ry     beta=0.70
     Davidson diagonalization with overlap
     ethr =  2.85E-09,  avg # of iterations =  5.3

     negative rho (up, down):  1.728E-03 0.000E+00

     total cpu time spent up to now is    12134.8 secs

     total energy              =  -12687.13841299 Ry
     Harris-Foulkes estimate   =  -12687.13842349 Ry
     estimated scf accuracy    <       0.00001353 Ry

     iteration # 43     ecut=    80.00 Ry     beta=0.70
     Davidson diagonalization with overlap
     ethr =  1.05E-09,  avg # of iterations =  6.5

     negative rho (up, down):  1.524E-03 0.000E+00

     total cpu time spent up to now is    12380.1 secs

     total energy              =  -12687.13841402 Ry
     Harris-Foulkes estimate   =  -12687.13841438 Ry
     estimated scf accuracy    <       0.00000561 Ry

     iteration # 44     ecut=    80.00 Ry     beta=0.70
     Davidson diagonalization with overlap
     ethr =  4.35E-10,  avg # of iterations =  2.0

     negative rho (up, down):  1.531E-03 0.000E+00

     total cpu time spent up to now is    12563.9 secs

     total energy              =  -12687.13841458 Ry
     Harris-Foulkes estimate   =  -12687.13841456 Ry
     estimated scf accuracy    <       0.00000208 Ry

     iteration # 45     ecut=    80.00 Ry     beta=0.70
     Davidson diagonalization with overlap
     ethr =  1.62E-10,  avg # of iterations =  2.2

     negative rho (up, down):  1.644E-03 0.000E+00

     total cpu time spent up to now is    12759.7 secs

     total energy              =  -12687.13841478 Ry
     Harris-Foulkes estimate   =  -12687.13841487 Ry
     estimated scf accuracy    <       0.00000148 Ry

     iteration # 46     ecut=    80.00 Ry     beta=0.70
     Davidson diagonalization with overlap
     ethr =  1.15E-10,  avg # of iterations =  2.7

     negative rho (up, down):  1.800E-03 0.000E+00

     total cpu time spent up to now is    12948.4 secs

     total energy              =  -12687.13841473 Ry
     Harris-Foulkes estimate   =  -12687.13841485 Ry
     estimated scf accuracy    <       0.00000035 Ry

     iteration # 47     ecut=    80.00 Ry     beta=0.70
     Davidson diagonalization with overlap
     ethr =  2.73E-11,  avg # of iterations =  2.3

     negative rho (up, down):  1.878E-03 0.000E+00

     total cpu time spent up to now is    13140.8 secs

     total energy              =  -12687.13841466 Ry
     Harris-Foulkes estimate   =  -12687.13841476 Ry
     estimated scf accuracy    <       0.00000009 Ry

     iteration # 48     ecut=    80.00 Ry     beta=0.70
     Davidson diagonalization with overlap
     ethr =  6.66E-12,  avg # of iterations =  3.0

     negative rho (up, down):  1.874E-03 0.000E+00

     total cpu time spent up to now is    13366.4 secs

     total energy              =  -12687.13841465 Ry
     Harris-Foulkes estimate   =  -12687.13841467 Ry
     estimated scf accuracy    <       0.00000003 Ry

     iteration # 49     ecut=    80.00 Ry     beta=0.70
     Davidson diagonalization with overlap
     ethr =  2.60E-12,  avg # of iterations =  2.0

     negative rho (up, down):  1.904E-03 0.000E+00

     total cpu time spent up to now is    13561.2 secs

     total energy              =  -12687.13841462 Ry
     Harris-Foulkes estimate   =  -12687.13841466 Ry
     estimated scf accuracy    <       0.00000001 Ry

     iteration # 50     ecut=    80.00 Ry     beta=0.70
     Davidson diagonalization with overlap
     ethr =  1.02E-12,  avg # of iterations =  3.0

     negative rho (up, down):  1.910E-03 0.000E+00

     total cpu time spent up to now is    13751.4 secs

     End of self-consistent calculation

          k = 0.0000 0.0000 0.0000 (256287 PWs)   bands (ev):

   -16.0381 -15.7199 -15.5541 -14.6017 -14.5336 -14.0991 -14.0271 -13.7882
   -13.7549 -13.6570 -13.3817 -12.8244 -12.7981 -12.7321 -12.5983 -12.5873
   -11.8635 -11.0446 -10.9546 -10.9440 -10.8278 -10.2275  -9.6030  -9.1702
    -9.0882  -9.0548  -8.6323  -8.2642  -8.2012  -8.0714  -7.7081  -7.2865
    -7.2396  -7.2053  -7.1759  -7.1715  -6.8047  -6.7362  -6.1958  -5.7489
    -5.6595  -5.6379  -5.5748  -5.4969  -5.4857  -5.2184  -5.2138  -5.0811
    -5.0530  -4.9007  -4.6823  -4.4376  -4.3517  -4.2908  -4.2185  -4.2004
    -3.9347  -3.8520  -3.7458  -3.7177  -3.7088  -3.3235  -3.2694  -3.2316
    -3.1551  -3.1392  -3.1327  -3.0900  -3.0476  -2.9679  -2.9048  -2.8734
    -2.7740  -2.7563  -2.7336  -2.7320  -2.7183  -2.6731  -2.6115  -2.5879
    -2.5678  -2.5407  -2.4909  -2.4681  -2.4088  -2.3681  -2.3447  -2.2297
    -2.1981  -2.1663  -2.1463  -2.0909  -2.0150  -2.0085  -1.9367  -1.9282
    -1.9093  -1.8882  -1.8841  -1.8766  -1.8741  -1.8508  -1.8361  -1.8044
    -1.7596  -1.7538  -1.7391  -1.7305  -1.7033  -1.6936  -1.6559  -1.6260
    -1.5575  -1.5048  -1.4823  -1.4658  -1.4609  -1.4531  -1.4296  -1.4105
    -1.4038  -1.3841  -1.3726  -1.3666  -1.3521  -1.3158  -1.3011  -1.2970
    -1.2806  -1.2760  -1.2609  -1.2571  -1.2413  -1.2365  -1.2344  -1.2133
    -1.1870  -1.1778  -1.1528  -1.1440  -1.1371  -1.1125  -1.1103  -1.0643
    -1.0274  -1.0186  -0.9976  -0.9842  -0.9758  -0.9425  -0.9350  -0.9261
    -0.9143  -0.9030  -0.9026  -0.8952  -0.8840  -0.8761  -0.8483  -0.8289
    -0.8136  -0.7917  -0.7755  -0.7714  -0.7662  -0.7651  -0.7542  -0.7541
    -0.7490  -0.7483  -0.7444  -0.7352  -0.7245  -0.7105  -0.6896  -0.6871
    -0.6794  -0.6744  -0.6707  -0.6566  -0.6505  -0.6306  -0.6252  -0.6108
    -0.6068  -0.5987  -0.5971  -0.5897  -0.5891  -0.5888  -0.5816  -0.5789
    -0.5789  -0.5758  -0.5756  -0.5715  -0.5694  -0.5598  -0.5533  -0.5458
    -0.5367  -0.5127  -0.4908  -0.4652  -0.4626  -0.4299  -0.4225  -0.4202
    -0.4126  -0.4077  -0.3985  -0.3932  -0.3738  -0.3733  -0.3539  -0.3510
    -0.3468  -0.3353  -0.3267  -0.3218  -0.3078  -0.3055  -0.3006  -0.2993
    -0.2819  -0.2805  -0.2711  -0.2659  -0.2542  -0.2471  -0.2380  -0.2234
    -0.1939  -0.1776  -0.1742  -0.1658  -0.1649  -0.1587  -0.1492  -0.1465
    -0.1436  -0.1378  -0.1364  -0.1360  -0.1313  -0.1287  -0.1193  -0.1139
    -0.1128  -0.1101  -0.1006  -0.0966  -0.0850  -0.0731  -0.0625  -0.0543
    -0.0365  -0.0319  -0.0272  -0.0252  -0.0186  -0.0052  -0.0029  -0.0000
     0.0057   0.0069   0.0147   0.0239   0.0310   0.0362   0.0376   0.0401
     0.0525   0.0569   0.0600   0.0613   0.0626   0.0634   0.0698   0.0706
     0.0776   0.0873   0.0917   0.0958   0.1238   0.1275   0.1287   0.1297
     0.1346   0.1474   0.1623   0.1780   0.1800   0.1850   0.1939   0.2065
     0.2082   0.2108   0.2151   0.2165   0.2269   0.2327   0.2376   0.2403
     0.2530   0.2610   0.2626   0.2713   0.2721   0.2727   0.2811   0.2888
     0.2989   0.3031   0.3102   0.3112   0.3143   0.3244   0.3280   0.3281
     0.3301   0.3320   0.3409   0.3419   0.3486   0.3685   0.3692   0.3709
     0.3761   0.3934   0.4039   0.4051   0.4227   0.4243   0.4310   0.4426
     0.4487   0.4565   0.4758   0.4837   0.4858   0.4931   0.5020   0.5077
     0.5091   0.5162   0.5309   0.5332   0.5406   0.5472   0.5561   0.5561
     0.5772   0.5844   0.5946   0.6026   0.6034   0.6134   0.6183   0.6208
     0.6232   0.6338   0.6423   0.6538   0.6548   0.6658   0.6738   0.6801
     0.6804   0.6895   0.6921   0.7109   0.7121   0.7185   0.7230   0.7280
     0.7410   0.7447   0.7470   0.7547   0.7614   0.7687   0.7692   0.7745
     0.7767   0.7834   0.7897   0.7955   0.7999   0.8050   0.8102   0.8104
     0.8164   0.8198   0.8246   0.8270   0.8341   0.8422   0.8452   0.8473
     0.8604   0.8613   0.8694   0.8765   0.8858   0.8975   0.8998   0.9009
     0.9066   0.9120   0.9152   0.9212   0.9255   0.9348   0.9358   0.9402
     0.9470   0.9501   0.9504   0.9547   0.9579   0.9640   0.9693   0.9754
     0.9813   0.9860   0.9869   0.9871   0.9959   1.0021   1.0082   1.0098
     1.0107   1.0125   1.0167   1.0192   1.0221   1.0301   1.0337   1.0465
     1.0599   1.0612   1.0738   1.0753   1.0772   1.0848   1.0857   1.0890
     1.1042   1.1118   1.1154   1.1243   1.1274   1.1355   1.1407   1.1450
     1.1493   1.1500   1.1572   1.1638   1.1657   1.1706   1.1809   1.1835
     1.1890   1.1998   1.2013   1.2043   1.2050   1.2130   1.2138   1.2199
     1.2231   1.2284   1.2360   1.2470   1.2538   1.2620   1.2693   1.2695
     1.2724   1.2749   1.2795   1.2802   1.2811   1.2900   1.2904   1.2916
     1.2968   1.3025   1.3052   1.3121   1.3197   1.3214   1.3282   1.3341
     1.3378   1.3447   1.3531   1.3637   1.3644   1.3699   1.3701   1.3760
     1.3806   1.3839   1.3843   1.3868   1.3921   1.3988   1.3999   1.4084
     1.4088   1.4180   1.4254   1.4289   1.4327   1.4346   1.4444   1.4520
     1.4635   1.4660   1.4681   1.4703   1.4735   1.4752   1.4840   1.4911
     1.4923   1.4968   1.5016   1.5054   1.5088   1.5151   1.5190   1.5196
     1.5218   1.5259   1.5334   1.5358   1.5376   1.5438   1.5467   1.5492
     1.5540   1.5586   1.5617   1.5625   1.5653   1.5697   1.5698   1.5744
     1.5778   1.5824   1.5839   1.5847   1.6008   1.6054   1.6171   1.6238
     1.6268   1.6282   1.6343   1.6361   1.6392   1.6433   1.6470   1.6483
     1.6546   1.6589   1.6626   1.6672   1.6717   1.6733   1.6797   1.6828
     1.6938   1.6946   1.6953   1.6989   1.6993   1.7055   1.7063   1.7077
     1.7140   1.7181   1.7185   1.7205   1.7242   1.7310   1.7366   1.7379
     1.7467   1.7536   1.7537   1.7764   1.7798   1.7815   1.7887   1.8069
     1.8153   1.8261   1.8331   1.8356   1.8499   1.8537   1.8607   1.8655
     1.8772   1.8868   1.8962   1.9044   1.9055   1.9098   1.9137   1.9158
     1.9400   2.0847   2.2196   2.2639   2.3752   2.3931   2.4379   2.4478
     2.4661   2.4736   2.4749   2.4800   2.4854   2.4977   2.5032   2.5765
     2.6729   2.6810   2.7227   2.7312   2.7436   2.7475   2.7499   2.8430
     2.9012   2.9062   2.9816   3.0090   3.2759   3.3390   3.4583   3.4898
     3.6308   3.7139   3.8109   3.8399   3.9150   4.0900   4.1010   4.1156
     4.1511   4.1984   4.2081   4.2204   4.2587   4.2632   4.2684   4.2923
     4.3066   4.3243   4.3886   4.4156   4.4554   4.5459   4.5552   4.8218
     4.9191   4.9454   5.0285   5.1139   5.2577   5.2855   5.3430   5.5521
     5.6812   5.7138   5.8252   5.9045   5.9844   6.0548   6.2008   6.2036
     6.2154   6.4321   6.6384   6.6585   6.6855   6.6937   6.7255   6.7269
     6.8169   6.8525   6.8620   6.9339   6.9459   6.9916   7.0077   7.0101
     7.0576   7.0943   7.1440   7.2894   7.3387   7.3807   7.3843   7.4264
     7.4880   7.5472   7.6266   7.7460   7.8771   7.8810   7.8958   7.9246
     7.9661   7.9699   7.9701   7.9894   7.9986   8.0779   8.4212   8.4409
     8.4572   8.4692   8.5374   8.5795   8.5945   8.6005   8.6246   8.6642
     8.6730   8.6861   8.7148   8.7363   8.7563   8.8482   8.8699   8.8938
     8.9491   8.9688   9.0109   9.0587   9.0933   9.1410   9.1426   9.2370
     9.2495   9.2528   9.3373   9.3547   9.3921   9.4070   9.4338   9.4581
     9.5018   9.5248   9.6031   9.6085   9.6631   9.7786   9.8518   9.9715
    10.0084  10.0281  10.0411  10.0909  10.0963

          k = 0.0000-0.2165 0.0000 (256176 PWs)   bands (ev):

   -16.0004 -15.8631 -15.2494 -15.1107 -14.0509 -14.0346 -13.9533 -13.9392
   -13.7615 -13.6243 -13.3451 -13.2848 -13.2021 -12.6971 -11.9593 -11.8696
   -11.8247 -11.8179 -11.6063 -10.9198 -10.0474  -9.9964  -9.9179  -9.4937
    -8.7700  -8.6434  -8.6300  -8.5126  -8.4854  -8.0865  -7.8014  -7.7303
    -7.5757  -7.0088  -6.6131  -6.5711  -6.5513  -6.5051  -6.4762  -6.2220
    -5.9424  -5.8811  -5.6381  -5.6059  -5.5308  -5.2215  -4.8609  -4.8245
    -4.7003  -4.6810  -4.6357  -4.5754  -4.5626  -4.3531  -4.2828  -4.1974
    -4.1247  -4.0431  -3.9945  -3.7815  -3.7578  -3.2970  -3.2645  -3.1642
    -3.0757  -3.0298  -3.0276  -2.9953  -2.9351  -2.9118  -2.8157  -2.7732
    -2.7688  -2.7298  -2.7282  -2.7098  -2.6737  -2.6095  -2.5800  -2.5427
    -2.5178  -2.5118  -2.4422  -2.3306  -2.3257  -2.3232  -2.3131  -2.2977
    -2.2972  -2.2717  -2.2401  -2.2202  -2.0918  -2.0360  -1.9993  -1.9803
    -1.9778  -1.9592  -1.9060  -1.8870  -1.8810  -1.8800  -1.8718  -1.7970
    -1.7622  -1.7454  -1.7110  -1.7086  -1.6903  -1.6873  -1.6359  -1.6279
    -1.6089  -1.5866  -1.5464  -1.4988  -1.4946  -1.4868  -1.4802  -1.4691
    -1.4649  -1.4636  -1.4390  -1.4151  -1.3831  -1.3816  -1.3579  -1.3355
    -1.3110  -1.2673  -1.2165  -1.1923  -1.1854  -1.1826  -1.1690  -1.1570
    -1.1409  -1.1116  -1.0932  -1.0501  -1.0473  -1.0315  -1.0215  -1.0108
    -1.0064  -1.0041  -1.0012  -0.9972  -0.9858  -0.9826  -0.9717  -0.9674
    -0.9641  -0.9390  -0.9356  -0.9250  -0.9165  -0.9026  -0.8747  -0.8641
    -0.8446  -0.8406  -0.8304  -0.8219  -0.8096  -0.7854  -0.7840  -0.7781
    -0.7739  -0.7640  -0.7388  -0.7320  -0.7182  -0.7105  -0.7101  -0.6998
    -0.6907  -0.6898  -0.6604  -0.6563  -0.6504  -0.6428  -0.6404  -0.6275
    -0.6262  -0.6194  -0.6134  -0.6070  -0.5880  -0.5611  -0.5584  -0.5573
    -0.5561  -0.5491  -0.5356  -0.5288  -0.5272  -0.5152  -0.5137  -0.5011
    -0.4929  -0.4802  -0.4797  -0.4479  -0.4475  -0.4015  -0.3947  -0.3766
    -0.3671  -0.3667  -0.3628  -0.3603  -0.3505  -0.3484  -0.3362  -0.3350
    -0.3326  -0.3275  -0.3190  -0.3172  -0.3028  -0.2949  -0.2871  -0.2823
    -0.2725  -0.2650  -0.2645  -0.2536  -0.2419  -0.2385  -0.2197  -0.2190
    -0.2130  -0.2107  -0.2029  -0.2027  -0.1880  -0.1792  -0.1745  -0.1722
    -0.1638  -0.1589  -0.1560  -0.1379  -0.1265  -0.1110  -0.0993  -0.0871
    -0.0788  -0.0688  -0.0617  -0.0593  -0.0458  -0.0353  -0.0339  -0.0338
    -0.0273  -0.0214  -0.0125  -0.0116  -0.0090  -0.0030   0.0002   0.0007
     0.0143   0.0187   0.0197   0.0258   0.0347   0.0373   0.0406   0.0435
     0.0505   0.0509   0.0566   0.0652   0.0785   0.0787   0.0841   0.0861
     0.0898   0.1032   0.1101   0.1241   0.1276   0.1331   0.1399   0.1444
     0.1536   0.1572   0.1617   0.1668   0.1694   0.1834   0.1858   0.1872
     0.1891   0.1947   0.1947   0.1996   0.2044   0.2077   0.2259   0.2423
     0.2438   0.2520   0.2547   0.2637   0.2659   0.2734   0.2753   0.2842
     0.2921   0.2937   0.2980   0.2996   0.3064   0.3083   0.3186   0.3229
     0.3325   0.3346   0.3402   0.3411   0.3491   0.3555   0.3620   0.3650
     0.3797   0.3820   0.3844   0.3867   0.3998   0.4005   0.4132   0.4146
     0.4304   0.4434   0.4533   0.4566   0.4587   0.4618   0.4743   0.4763
     0.4893   0.4937   0.5078   0.5183   0.5321   0.5331   0.5485   0.5537
     0.5695   0.5889   0.6038   0.6207   0.6241   0.6286   0.6362   0.6480
     0.6563   0.6607   0.6706   0.6735   0.6883   0.6983   0.6989   0.7024
     0.7054   0.7130   0.7132   0.7236   0.7263   0.7272   0.7368   0.7393
     0.7405   0.7483   0.7514   0.7521   0.7613   0.7683   0.7754   0.7757
     0.7840   0.7910   0.7948   0.7974   0.7988   0.7988   0.7999   0.8080
     0.8092   0.8190   0.8196   0.8257   0.8261   0.8307   0.8326   0.8343
     0.8365   0.8420   0.8437   0.8459   0.8525   0.8550   0.8721   0.8765
     0.8928   0.8945   0.8994   0.9043   0.9132   0.9147   0.9188   0.9217
     0.9301   0.9339   0.9368   0.9388   0.9438   0.9474   0.9483   0.9503
     0.9697   0.9733   0.9827   0.9842   0.9858   0.9930   0.9996   1.0011
     1.0078   1.0080   1.0123   1.0146   1.0230   1.0292   1.0329   1.0358
     1.0426   1.0437   1.0648   1.0745   1.0960   1.0996   1.1005   1.1094
     1.1188   1.1345   1.1428   1.1483   1.1509   1.1636   1.1647   1.1705
     1.1750   1.1753   1.1810   1.1841   1.1886   1.1960   1.2019   1.2022
     1.2048   1.2084   1.2112   1.2116   1.2175   1.2227   1.2266   1.2273
     1.2300   1.2301   1.2305   1.2323   1.2404   1.2413   1.2481   1.2509
     1.2520   1.2548   1.2572   1.2633   1.2653   1.2682   1.2751   1.2774
     1.2806   1.2841   1.2842   1.2908   1.2930   1.3012   1.3026   1.3075
     1.3115   1.3258   1.3299   1.3365   1.3427   1.3638   1.3717   1.3723
     1.3833   1.3854   1.3869   1.3884   1.3995   1.4015   1.4144   1.4146
     1.4187   1.4237   1.4386   1.4398   1.4425   1.4456   1.4514   1.4549
     1.4624   1.4637   1.4665   1.4693   1.4708   1.4746   1.4774   1.4775
     1.4850   1.4898   1.4936   1.4967   1.4987   1.5027   1.5052   1.5151
     1.5181   1.5234   1.5266   1.5277   1.5284   1.5375   1.5422   1.5456
     1.5509   1.5570   1.5593   1.5630   1.5660   1.5692   1.5727   1.5761
     1.5784   1.5821   1.5879   1.5942   1.5946   1.5986   1.6038   1.6067
     1.6111   1.6119   1.6207   1.6338   1.6354   1.6399   1.6433   1.6450
     1.6530   1.6552   1.6595   1.6608   1.6675   1.6762   1.6862   1.6872
     1.6947   1.6977   1.6987   1.7042   1.7077   1.7108   1.7151   1.7160
     1.7197   1.7278   1.7304   1.7400   1.7478   1.7504   1.7551   1.7638
     1.7709   1.7774   1.7812   1.7826   1.7832   1.7923   1.7988   1.8064
     1.8128   1.8275   1.8525   1.8531   1.8636   1.8724   1.8891   1.9476
     1.9561   1.9726   1.9923   1.9942   2.0048   2.0088   2.0521   2.0547
     2.0687   2.0709   2.0717   2.0772   2.0851   2.1089   2.1231   2.1950
     2.3787   2.4179   2.4882   2.6820   2.6885   2.7097   2.7232   2.7451
     2.7656   2.8196   2.8290   2.8445   2.8509   2.8509   2.9064   2.9605
     2.9654   3.0153   3.0315   3.0467   3.0921   3.1765   3.1813   3.2702
     3.2944   3.3276   3.4241   3.4249   3.6475   3.7850   3.8258   3.8805
     3.9548   4.1102   4.2810   4.3023   4.3183   4.3804   4.4532   4.4694
     4.5318   4.6138   4.6488   4.6721   4.7896   4.8497   4.9164   4.9214
     5.0055   5.0068   5.1756   5.3733   5.4092   5.4250   5.4643   5.6008
     5.6047   5.6320   5.6773   5.7249   5.7698   5.8387   5.9078   6.0221
     6.0642   6.1455   6.1720   6.6794   6.6908   6.7061   6.7592   6.7832
     6.8001   6.8107   6.8692   6.9400   7.0601   7.1235   7.2065   7.2249
     7.2929   7.3093   7.3195   7.3254   7.3376   7.3781   7.3851   7.4225
     7.4290   7.4634   7.4771   7.5586   7.6342   7.6763   7.6769   7.7395
     7.8305   7.9153   7.9759   7.9885   8.0513   8.0606   8.0818   8.3608
     8.4465   8.4579   8.5115   8.5218   8.6232   8.6498   8.6561   8.6987
     8.7025   8.8031   8.8533   8.8836   8.8848   8.9575   8.9614   8.9823
     8.9917   9.0330   9.0724   9.1165   9.1252   9.1577   9.2314   9.2390
     9.2803   9.3005   9.4172   9.4468   9.4527   9.4984   9.5403   9.6125
     9.6138   9.7111   9.7129   9.7745   9.8275   9.8275   9.8574   9.9306
    10.0273  10.0380  10.0600  10.1245  10.1338

          k = 0.2500 0.0000 0.0000 (256240 PWs)   bands (ev):

   -15.9172 -15.5968 -15.4596 -14.9191 -14.6204 -14.5613 -14.4643 -14.1476
   -13.5133 -13.2914 -12.9900 -12.7234 -12.6936 -12.6392 -12.2411 -11.7686
   -11.6581 -11.6157 -11.1615 -10.6133 -10.3741 -10.3572 -10.0456  -9.7496
    -9.4658  -9.2426  -9.1075  -8.7796  -8.6792  -8.2447  -7.8498  -7.2223
    -7.1794  -7.1419  -7.0573  -6.9227  -6.4049  -6.2254  -6.0740  -5.6655
    -5.5755  -5.5607  -5.4859  -5.2317  -5.0530  -5.0407  -4.9599  -4.7802
    -4.6739  -4.5347  -4.3413  -4.2526  -4.2064  -4.1882  -4.1373  -4.0280
    -3.9672  -3.8575  -3.7396  -3.7253  -3.7135  -3.6311  -3.5718  -3.5628
    -3.4980  -3.4495  -3.3482  -3.2863  -3.2177  -3.1846  -3.1782  -3.1434
    -3.0870  -3.0422  -3.0328  -2.9340  -2.9232  -2.8043  -2.7175  -2.6835
    -2.6358  -2.5436  -2.5322  -2.5219  -2.5092  -2.4556  -2.3892  -2.3091
    -2.2732  -2.1930  -2.1594  -2.1130  -2.0775  -2.0289  -1.8747  -1.8430
    -1.8330  -1.8240  -1.8067  -1.7979  -1.7288  -1.7014  -1.6906  -1.6456
    -1.6126  -1.5975  -1.5449  -1.5324  -1.5307  -1.5219  -1.5192  -1.5060
    -1.5011  -1.4751  -1.4473  -1.4404  -1.4343  -1.4260  -1.3964  -1.3831
    -1.3604  -1.3421  -1.3341  -1.3194  -1.3154  -1.3051  -1.2992  -1.2921
    -1.2671  -1.2508  -1.2322  -1.2303  -1.2262  -1.2183  -1.2065  -1.1086
    -1.0930  -1.0729  -1.0548  -1.0482  -1.0311  -1.0180  -0.9920  -0.9781
    -0.9736  -0.9690  -0.9528  -0.9503  -0.9392  -0.9337  -0.9203  -0.9147
    -0.9097  -0.8992  -0.8889  -0.8752  -0.8723  -0.8611  -0.8574  -0.8514
    -0.8422  -0.8401  -0.8360  -0.8302  -0.8216  -0.8035  -0.7959  -0.7918
    -0.7807  -0.7738  -0.7619  -0.7578  -0.7493  -0.7408  -0.7314  -0.7275
    -0.7203  -0.7195  -0.7159  -0.7125  -0.7105  -0.7080  -0.7016  -0.6928
    -0.6850  -0.6774  -0.6646  -0.6530  -0.6505  -0.6367  -0.6354  -0.6316
    -0.6247  -0.5885  -0.5801  -0.5633  -0.5620  -0.5444  -0.5362  -0.5292
    -0.5151  -0.5097  -0.5062  -0.4984  -0.4963  -0.4877  -0.4788  -0.4764
    -0.4674  -0.4485  -0.4287  -0.4054  -0.3776  -0.3620  -0.3362  -0.3318
    -0.3116  -0.3061  -0.3028  -0.2996  -0.2948  -0.2852  -0.2833  -0.2787
    -0.2673  -0.2631  -0.2598  -0.2524  -0.2453  -0.2393  -0.2298  -0.2202
    -0.2161  -0.2085  -0.2031  -0.1965  -0.1942  -0.1869  -0.1773  -0.1585
    -0.1468  -0.1433  -0.1356  -0.1293  -0.1247  -0.1164  -0.1158  -0.1096
    -0.1028  -0.0942  -0.0859  -0.0787  -0.0678  -0.0667  -0.0631  -0.0535
    -0.0399  -0.0353  -0.0317  -0.0218  -0.0188  -0.0127  -0.0077   0.0026
     0.0041   0.0129   0.0173   0.0219   0.0299   0.0346   0.0464   0.0496
     0.0516   0.0657   0.0690   0.0789   0.0820   0.0837   0.0953   0.0990
     0.1108   0.1134   0.1188   0.1232   0.1338   0.1370   0.1434   0.1516
     0.1597   0.1690   0.1895   0.1995   0.2013   0.2100   0.2163   0.2196
     0.2338   0.2345   0.2439   0.2451   0.2539   0.2582   0.2609   0.2642
     0.2665   0.2723   0.2763   0.2809   0.2865   0.2877   0.2958   0.3000
     0.3032   0.3050   0.3060   0.3172   0.3208   0.3426   0.3429   0.3438
     0.3607   0.3641   0.3706   0.3736   0.3840   0.3873   0.3910   0.3983
     0.4019   0.4059   0.4160   0.4206   0.4286   0.4379   0.4443   0.4489
     0.4798   0.4893   0.4961   0.5085   0.5147   0.5197   0.5241   0.5311
     0.5328   0.5356   0.5399   0.5420   0.5455   0.5510   0.5538   0.5585
     0.5660   0.5683   0.5703   0.5756   0.5772   0.5801   0.5850   0.5897
     0.5972   0.5997   0.6099   0.6169   0.6225   0.6284   0.6403   0.6472
     0.6577   0.6698   0.6756   0.6820   0.6873   0.6909   0.6951   0.7004
     0.7104   0.7121   0.7200   0.7290   0.7336   0.7365   0.7423   0.7450
     0.7458   0.7528   0.7546   0.7601   0.7678   0.7812   0.7822   0.7902
     0.7925   0.7947   0.8016   0.8051   0.8100   0.8170   0.8217   0.8272
     0.8295   0.8357   0.8404   0.8456   0.8561   0.8622   0.8632   0.8663
     0.8698   0.8751   0.8780   0.8834   0.8939   0.8990   0.9049   0.9089
     0.9187   0.9248   0.9281   0.9308   0.9402   0.9429   0.9459   0.9560
     0.9692   0.9697   0.9786   0.9830   0.9924   0.9990   1.0083   1.0101
     1.0168   1.0244   1.0257   1.0322   1.0359   1.0375   1.0446   1.0477
     1.0527   1.0583   1.0694   1.0727   1.0863   1.0880   1.0915   1.0950
     1.1096   1.1162   1.1213   1.1242   1.1270   1.1347   1.1365   1.1443
     1.1494   1.1531   1.1556   1.1594   1.1620   1.1645   1.1730   1.1833
     1.1903   1.1992   1.2044   1.2084   1.2155   1.2208   1.2277   1.2323
     1.2346   1.2408   1.2413   1.2467   1.2510   1.2588   1.2615   1.2675
     1.2698   1.2720   1.2772   1.2803   1.2829   1.2851   1.2875   1.2900
     1.2913   1.2920   1.2988   1.3033   1.3094   1.3170   1.3198   1.3245
     1.3295   1.3305   1.3349   1.3364   1.3390   1.3417   1.3497   1.3520
     1.3529   1.3584   1.3665   1.3708   1.3713   1.3873   1.3890   1.3926
     1.3986   1.4019   1.4061   1.4132   1.4165   1.4262   1.4310   1.4361
     1.4447   1.4475   1.4490   1.4600   1.4635   1.4714   1.4817   1.4868
     1.4902   1.5001   1.5068   1.5090   1.5124   1.5146   1.5170   1.5203
     1.5285   1.5340   1.5361   1.5392   1.5423   1.5453   1.5479   1.5509
     1.5532   1.5571   1.5634   1.5648   1.5667   1.5730   1.5755   1.5771
     1.5854   1.5911   1.5944   1.5993   1.6022   1.6053   1.6113   1.6122
     1.6174   1.6205   1.6227   1.6254   1.6311   1.6355   1.6396   1.6438
     1.6477   1.6529   1.6555   1.6675   1.6706   1.6710   1.6794   1.6824
     1.6853   1.6898   1.6914   1.6952   1.6960   1.6987   1.7029   1.7061
     1.7084   1.7160   1.7222   1.7269   1.7328   1.7333   1.7346   1.7355
     1.7433   1.7462   1.7492   1.7508   1.7649   1.7679   1.7741   1.7763
     1.7800   1.7872   1.7918   1.8086   1.8184   1.8227   1.8405   1.8584
     1.8671   1.8805   1.8888   1.8984   1.9251   1.9835   1.9932   2.0010
     2.0228   2.0377   2.0459   2.0703   2.0997   2.1411   2.2412   2.2875
     2.3395   2.3431   2.3716   2.3830   2.4432   2.4985   2.5700   2.6048
     2.7881   2.8044   2.8319   2.8462   3.0370   3.2318   3.2426   3.2796
     3.3360   3.3768   3.4400   3.4626   3.4841   3.4865   3.5865   3.6723
     3.7496   3.7898   3.8716   3.9085   3.9132   3.9183   3.9671   3.9896
     4.0371   4.0814   4.1257   4.2059   4.2114   4.3234   4.4474   4.4948
     4.5548   4.5641   4.5832   4.6599   4.7084   4.8167   4.9092   5.0859
     5.1036   5.1875   5.3172   5.4658   5.4988   5.5183   5.5469   5.6435
     5.6543   5.7558   5.7796   5.7839   5.8254   5.8781   5.8944   5.9486
     6.0000   6.0065   6.0573   6.0879   6.1299   6.2159   6.2752   6.3302
     6.3515   6.3960   6.4616   6.7060   6.8495   6.8968   6.9686   6.9828
     7.0131   7.0476   7.0813   7.2078   7.2574   7.2859   7.2978   7.3287
     7.3908   7.4729   7.5177   7.5280   7.5521   7.6555   7.6719   7.6752
     7.8138   7.8232   7.8746   7.9395   8.0416   8.0514   8.0647   8.1078
     8.1326   8.1636   8.2794   8.2963   8.3039   8.3588   8.3640   8.4364
     8.5656   8.5876   8.6185   8.6347   8.6496   8.6739   8.7201   8.8269
     8.8848   8.9053   8.9172   8.9446   8.9992   9.1851   9.2021   9.3464
     9.3776   9.4000   9.4253   9.4319   9.4359   9.4550   9.4785   9.4936
     9.4992   9.5136   9.5264   9.5464   9.5645   9.6364   9.6562   9.7525
     9.7678   9.8199   9.9205   9.9756   9.9888

          k = 0.2500-0.2165 0.0000 (256316 PWs)   bands (ev):

   -15.8766 -15.7509 -15.1310 -15.0621 -14.8873 -14.6484 -14.1541 -13.9642
   -13.6430 -13.4703 -12.9645 -12.8183 -12.6873 -12.4663 -12.2560 -11.9525
   -11.5450 -11.3600 -10.9590 -10.7713 -10.6436 -10.4735 -10.3264  -9.7217
    -9.2204  -8.9852  -8.7420  -8.6853  -8.5329  -8.3685  -8.0989  -7.9494
    -7.8654  -7.0003  -6.3245  -6.2740  -6.2282  -6.1443  -5.9699  -5.9062
    -5.7982  -5.6614  -5.4683  -5.4365  -5.3933  -5.0680  -4.7867  -4.6227
    -4.5483  -4.4954  -4.4145  -4.4046  -4.3195  -4.1000  -4.0736  -4.0666
    -4.0080  -3.9931  -3.8328  -3.8272  -3.6978  -3.6788  -3.6146  -3.4792
    -3.4407  -3.3916  -3.2893  -3.2052  -3.1910  -3.1871  -3.1546  -3.1504
    -3.1022  -2.9089  -2.8743  -2.8576  -2.7907  -2.7762  -2.7289  -2.6515
    -2.6446  -2.6338  -2.6073  -2.5564  -2.5453  -2.4640  -2.4070  -2.2589
    -2.2432  -2.1223  -2.1136  -2.0568  -2.0328  -2.0083  -1.9049  -1.8961
    -1.8952  -1.8924  -1.8414  -1.8155  -1.7433  -1.7296  -1.7095  -1.6930
    -1.6796  -1.6553  -1.5976  -1.5651  -1.5442  -1.5368  -1.5298  -1.5150
    -1.4844  -1.4605  -1.4533  -1.4439  -1.4325  -1.4258  -1.4186  -1.4067
    -1.4049  -1.4024  -1.3980  -1.3891  -1.3796  -1.3332  -1.3163  -1.2950
    -1.2510  -1.2358  -1.1985  -1.1878  -1.1063  -1.0990  -1.0848  -1.0724
    -1.0587  -1.0544  -1.0179  -1.0074  -1.0000  -0.9992  -0.9928  -0.9869
    -0.9784  -0.9661  -0.9633  -0.9601  -0.9582  -0.9547  -0.9429  -0.9368
    -0.9329  -0.9269  -0.9168  -0.9100  -0.8994  -0.8945  -0.8703  -0.8613
    -0.8529  -0.8478  -0.8472  -0.8438  -0.8388  -0.8212  -0.8147  -0.8058
    -0.8000  -0.7802  -0.7750  -0.7649  -0.7601  -0.7535  -0.7462  -0.7407
    -0.7252  -0.7224  -0.7068  -0.7058  -0.6985  -0.6846  -0.6832  -0.6804
    -0.6715  -0.6629  -0.6512  -0.6444  -0.6401  -0.6158  -0.6077  -0.6020
    -0.5989  -0.5864  -0.5789  -0.5656  -0.5459  -0.5218  -0.5156  -0.5094
    -0.5000  -0.4879  -0.4802  -0.4751  -0.4567  -0.4529  -0.4447  -0.4385
    -0.4275  -0.4223  -0.4174  -0.4125  -0.3944  -0.3856  -0.3799  -0.3712
    -0.3457  -0.3370  -0.3148  -0.3124  -0.3011  -0.2961  -0.2898  -0.2852
    -0.2794  -0.2657  -0.2585  -0.2562  -0.2413  -0.2379  -0.2318  -0.2255
    -0.2192  -0.2081  -0.1978  -0.1953  -0.1875  -0.1765  -0.1581  -0.1539
    -0.1509  -0.1402  -0.1356  -0.1300  -0.1260  -0.1189  -0.1129  -0.1067
    -0.1049  -0.1008  -0.0975  -0.0955  -0.0856  -0.0824  -0.0739  -0.0726
    -0.0688  -0.0636  -0.0494  -0.0427  -0.0316  -0.0253  -0.0203  -0.0059
     0.0075   0.0088   0.0133   0.0161   0.0280   0.0385   0.0469   0.0499
     0.0569   0.0611   0.0630   0.0793   0.0852   0.1012   0.1076   0.1281
     0.1348   0.1486   0.1555   0.1607   0.1642   0.1677   0.1724   0.1784
     0.1802   0.1859   0.1971   0.2015   0.2057   0.2102   0.2131   0.2173
     0.2263   0.2357   0.2396   0.2463   0.2516   0.2555   0.2566   0.2593
     0.2619   0.2672   0.2688   0.2782   0.2809   0.2831   0.2889   0.2958
     0.2977   0.3009   0.3064   0.3145   0.3321   0.3359   0.3397   0.3454
     0.3570   0.3603   0.3674   0.3762   0.3784   0.3830   0.3892   0.4015
     0.4038   0.4098   0.4164   0.4211   0.4262   0.4310   0.4373   0.4430
     0.4499   0.4569   0.4697   0.4744   0.4812   0.5034   0.5159   0.5246
     0.5316   0.5377   0.5397   0.5471   0.5492   0.5525   0.5561   0.5614
     0.5656   0.5709   0.5752   0.5824   0.5842   0.5924   0.5935   0.6020
     0.6071   0.6098   0.6203   0.6344   0.6347   0.6401   0.6486   0.6611
     0.6620   0.6696   0.6748   0.6797   0.6954   0.6994   0.7064   0.7101
     0.7145   0.7162   0.7237   0.7274   0.7321   0.7348   0.7394   0.7444
     0.7478   0.7494   0.7560   0.7664   0.7735   0.7811   0.7848   0.7888
     0.7977   0.8047   0.8103   0.8149   0.8300   0.8379   0.8406   0.8457
     0.8572   0.8579   0.8598   0.8662   0.8692   0.8720   0.8796   0.8832
     0.8872   0.8909   0.8958   0.9067   0.9142   0.9195   0.9230   0.9249
     0.9257   0.9299   0.9325   0.9343   0.9440   0.9471   0.9476   0.9526
     0.9569   0.9592   0.9648   0.9674   0.9688   0.9731   0.9773   0.9806
     0.9842   0.9907   1.0029   1.0050   1.0250   1.0274   1.0288   1.0306
     1.0437   1.0505   1.0573   1.0608   1.0712   1.0746   1.0839   1.0899
     1.0919   1.1006   1.1087   1.1126   1.1147   1.1164   1.1173   1.1252
     1.1278   1.1289   1.1373   1.1424   1.1441   1.1556   1.1607   1.1632
     1.1687   1.1773   1.1835   1.1877   1.1931   1.2062   1.2124   1.2214
     1.2290   1.2294   1.2323   1.2361   1.2409   1.2481   1.2482   1.2533
     1.2592   1.2695   1.2719   1.2820   1.2861   1.2894   1.2905   1.2995
     1.3129   1.3141   1.3204   1.3319   1.3366   1.3406   1.3466   1.3479
     1.3485   1.3506   1.3524   1.3563   1.3586   1.3622   1.3682   1.3725
     1.3727   1.3816   1.3826   1.3913   1.3999   1.4096   1.4123   1.4236
     1.4282   1.4331   1.4354   1.4381   1.4384   1.4452   1.4478   1.4492
     1.4528   1.4557   1.4594   1.4612   1.4619   1.4653   1.4669   1.4745
     1.4781   1.4823   1.4833   1.4870   1.4942   1.4991   1.5021   1.5117
     1.5167   1.5194   1.5247   1.5300   1.5342   1.5413   1.5426   1.5462
     1.5470   1.5580   1.5619   1.5688   1.5715   1.5732   1.5791   1.5807
     1.5878   1.5899   1.5924   1.5956   1.6054   1.6063   1.6076   1.6128
     1.6188   1.6221   1.6278   1.6333   1.6379   1.6383   1.6407   1.6462
     1.6475   1.6496   1.6503   1.6547   1.6609   1.6628   1.6672   1.6740
     1.6795   1.6800   1.6856   1.6896   1.6944   1.6994   1.7010   1.7033
     1.7053   1.7079   1.7109   1.7135   1.7183   1.7222   1.7312   1.7369
     1.7386   1.7460   1.7480   1.7517   1.7639   1.7675   1.7703   1.7757
     1.7837   1.7949   1.8049   1.8114   1.8166   1.8224   1.8370   1.8489
     1.8603   1.9084   1.9195   1.9433   1.9500   1.9982   2.0116   2.0220
     2.0391   2.0487   2.0556   2.0585   2.0938   2.1234   2.1436   2.1846
     2.2537   2.3735   2.3864   2.4122   2.4307   2.5519   2.5717   2.8313
     2.8414   2.8863   2.9835   3.0230   3.0454   3.0497   3.0608   3.0999
     3.1363   3.1919   3.2243   3.3023   3.3510   3.4166   3.5370   3.5923
     3.8135   3.8506   3.9095   3.9531   3.9803   4.0859   4.1199   4.1316
     4.1699   4.2114   4.2968   4.3383   4.3627   4.3935   4.4679   4.4992
     4.6499   4.6706   4.6969   4.7621   4.8126   4.8693   4.9197   4.9494
     5.0642   5.1188   5.1664   5.1972   5.2174   5.2803   5.3919   5.5012
     5.5482   5.6047   5.6376   5.6983   5.7197   5.7257   5.7446   5.8751
     5.9393   6.0331   6.0662   6.1084   6.1516   6.2367   6.2890   6.3433
     6.4091   6.7835   6.8595   6.9189   6.9533   6.9990   7.0091   7.0170
     7.1969   7.2128   7.2611   7.2847   7.3260   7.3562   7.3825   7.4238
     7.4360   7.4935   7.5510   7.5649   7.5803   7.6398   7.6476   7.6733
     7.6749   7.7048   7.7147   7.7465   7.7975   7.9546   8.0519   8.0574
     8.0909   8.1823   8.2356   8.2613   8.3619   8.4417   8.4580   8.5152
     8.5585   8.6016   8.6331   8.6728   8.6973   8.8352   8.8739   8.8996
     8.9303   8.9465   8.9837   9.0103   9.0437   9.0472   9.0538   9.1307
     9.2142   9.2472   9.2701   9.2890   9.3114   9.3142   9.3669   9.4204
     9.4490   9.4770   9.5143   9.5259   9.5740   9.5874   9.6246   9.6341
     9.6711   9.6802   9.7215   9.8509   9.9017

          k =-0.5000 0.0000 0.0000 (256496 PWs)   bands (ev):

   -15.6089 -15.5111 -15.2590 -15.2162 -15.2134 -14.8345 -14.1638 -14.1303
   -14.0611 -13.5964 -12.4030 -12.3673 -12.2413 -12.0857 -11.7224 -11.6689
   -11.4528 -11.4510 -11.2903 -11.0595 -10.7984 -10.5138 -10.4352 -10.0175
    -9.6237  -9.4033  -9.3935  -8.9202  -8.5706  -8.4360  -8.2832  -7.7942
    -7.0872  -7.0737  -7.0276  -6.9913  -6.7159  -5.6900  -5.5059  -5.2721
    -5.0537  -5.0189  -4.7345  -4.7336  -4.5802  -4.5381  -4.5337  -4.5063
    -4.4864  -4.4086  -4.3989  -4.3698  -4.3498  -4.3025  -4.2774  -4.1905
    -4.1485  -4.1084  -4.0365  -3.8560  -3.8454  -3.7632  -3.7080  -3.6870
    -3.6360  -3.6308  -3.6191  -3.2925  -3.2727  -3.2636  -3.2093  -3.1832
    -3.1629  -3.1491  -3.1370  -3.1158  -3.0964  -3.0640  -3.0389  -2.9561
    -2.7564  -2.7038  -2.6048  -2.5372  -2.5309  -2.4697  -2.3988  -2.3146
    -2.2944  -2.2375  -2.2055  -2.1698  -2.1241  -2.0432  -2.0312  -1.9970
    -1.9903  -1.9043  -1.8835  -1.6328  -1.6242  -1.6103  -1.6032  -1.6019
    -1.5992  -1.5716  -1.4953  -1.4884  -1.4801  -1.4651  -1.4580  -1.4243
    -1.3838  -1.3832  -1.3722  -1.3670  -1.3423  -1.3300  -1.3192  -1.3134
    -1.2616  -1.2278  -1.2261  -1.2087  -1.2073  -1.1839  -1.1689  -1.1549
    -1.1476  -1.1445  -1.1400  -1.1298  -1.1066  -1.1036  -1.0916  -1.0853
    -1.0795  -1.0770  -1.0696  -1.0605  -1.0508  -1.0483  -1.0336  -1.0286
    -1.0241  -1.0056  -1.0048  -0.9993  -0.9979  -0.9811  -0.9599  -0.9439
    -0.9334  -0.9313  -0.9251  -0.9139  -0.9060  -0.9047  -0.8954  -0.8915
    -0.8801  -0.8714  -0.8584  -0.8529  -0.8471  -0.8427  -0.8410  -0.8303
    -0.8187  -0.8093  -0.8052  -0.7886  -0.7851  -0.7780  -0.7522  -0.7444
    -0.7206  -0.7163  -0.7155  -0.7136  -0.7084  -0.7027  -0.6960  -0.6922
    -0.6754  -0.6707  -0.6658  -0.6610  -0.6603  -0.6573  -0.6513  -0.6443
    -0.6409  -0.6340  -0.6332  -0.5843  -0.5770  -0.5640  -0.5612  -0.5442
    -0.5084  -0.5081  -0.5051  -0.4659  -0.4533  -0.4466  -0.4365  -0.4297
    -0.4285  -0.4150  -0.4129  -0.3965  -0.3947  -0.3904  -0.3879  -0.3803
    -0.3755  -0.3651  -0.3647  -0.3487  -0.3447  -0.3274  -0.3245  -0.3218
    -0.3108  -0.3055  -0.2980  -0.2881  -0.2505  -0.2440  -0.2251  -0.2150
    -0.2128  -0.1839  -0.1774  -0.1705  -0.1622  -0.1618  -0.1560  -0.1475
    -0.1427  -0.1399  -0.1286  -0.1252  -0.1214  -0.1134  -0.1078  -0.1027
    -0.1022  -0.0962  -0.0871  -0.0612  -0.0602  -0.0535  -0.0504  -0.0358
    -0.0318  -0.0229  -0.0226  -0.0203  -0.0058  -0.0038   0.0118   0.0123
     0.0209   0.0316   0.0319   0.0451   0.0506   0.0561   0.0636   0.0711
     0.0788   0.1122   0.1187   0.1197   0.1231   0.1365   0.1394   0.1489
     0.1519   0.1537   0.1556   0.1603   0.1656   0.1764   0.2029   0.2158
     0.2283   0.2360   0.2380   0.2406   0.2411   0.2429   0.2494   0.2525
     0.2525   0.2553   0.2595   0.2634   0.2698   0.2885   0.3099   0.3156
     0.3219   0.3231   0.3301   0.3349   0.3363   0.3401   0.3423   0.3454
     0.3522   0.3569   0.3579   0.3595   0.3619   0.3643   0.3673   0.3681
     0.3721   0.3722   0.3760   0.3880   0.3891   0.3895   0.3953   0.3964
     0.4013   0.4060   0.4075   0.4117   0.4118   0.4174   0.4194   0.4199
     0.4308   0.4363   0.4546   0.4577   0.4751   0.4999   0.5109   0.5116
     0.5277   0.5296   0.5432   0.5606   0.5708   0.5745   0.5782   0.5805
     0.5808   0.5879   0.5908   0.5993   0.5999   0.6028   0.6042   0.6078
     0.6102   0.6144   0.6158   0.6245   0.6245   0.6338   0.6345   0.6367
     0.6424   0.6451   0.6501   0.6538   0.6601   0.6629   0.6701   0.6719
     0.6822   0.6913   0.6978   0.7086   0.7091   0.7265   0.7358   0.7435
     0.7501   0.7536   0.7545   0.7655   0.7671   0.7705   0.7781   0.7783
     0.7787   0.7858   0.7881   0.7904   0.7915   0.7943   0.7997   0.8080
     0.8083   0.8155   0.8211   0.8212   0.8265   0.8392   0.8405   0.8486
     0.8542   0.8582   0.8629   0.8680   0.8694   0.8765   0.8825   0.8850
     0.8869   0.8892   0.8933   0.9061   0.9121   0.9132   0.9168   0.9176
     0.9209   0.9225   0.9292   0.9358   0.9364   0.9434   0.9504   0.9590
     0.9639   0.9694   0.9732   0.9791   0.9825   0.9942   0.9975   0.9997
     1.0234   1.0269   1.0352   1.0415   1.0450   1.0495   1.0655   1.0854
     1.0909   1.0945   1.0972   1.1005   1.1026   1.1037   1.1074   1.1086
     1.1121   1.1177   1.1276   1.1292   1.1318   1.1329   1.1405   1.1423
     1.1474   1.1475   1.1602   1.1626   1.1752   1.1759   1.1769   1.1810
     1.1985   1.2034   1.2075   1.2116   1.2135   1.2261   1.2278   1.2438
     1.2646   1.2754   1.2809   1.2825   1.2839   1.2934   1.3049   1.3136
     1.3173   1.3196   1.3213   1.3244   1.3302   1.3337   1.3433   1.3510
     1.3510   1.3657   1.3680   1.3698   1.3751   1.3803   1.3813   1.3814
     1.3863   1.3869   1.3896   1.3912   1.3919   1.3953   1.3959   1.4017
     1.4066   1.4115   1.4257   1.4373   1.4403   1.4428   1.4436   1.4509
     1.4533   1.4569   1.4687   1.4739   1.4770   1.4804   1.4850   1.4864
     1.4955   1.4981   1.5028   1.5062   1.5068   1.5115   1.5115   1.5153
     1.5208   1.5260   1.5285   1.5353   1.5455   1.5470   1.5539   1.5570
     1.5615   1.5700   1.5708   1.5757   1.5767   1.5775   1.5781   1.5831
     1.5854   1.5862   1.5895   1.5906   1.5930   1.5935   1.5971   1.6014
     1.6019   1.6033   1.6048   1.6114   1.6123   1.6129   1.6159   1.6214
     1.6241   1.6260   1.6274   1.6423   1.6432   1.6550   1.6679   1.6703
     1.6739   1.6811   1.6823   1.6854   1.6861   1.6864   1.6896   1.6936
     1.6997   1.7013   1.7069   1.7083   1.7100   1.7153   1.7157   1.7234
     1.7259   1.7321   1.7340   1.7395   1.7418   1.7482   1.7534   1.7670
     1.7703   1.7717   1.7742   1.7773   1.7787   1.7790   1.7806   1.8011
     1.8057   1.8262   1.8288   1.8393   1.8578   1.8636   1.8651   1.8719
     1.8826   1.8955   1.9203   2.3014   2.3140   2.3332   2.3384   2.4895
     2.5034   2.5285   2.5334   2.5357   2.5572   2.5647   2.5717   2.8058
     2.8733   2.9303   2.9519   3.0064   3.0206   3.0436   3.0747   3.2634
     3.2978   3.4059   3.4472   3.4646   3.5139   3.5826   3.7635   3.7953
     4.0453   4.0623   4.0633   4.0836   4.1514   4.2421   4.2466   4.3199
     4.3258   4.3672   4.4332   4.4991   4.5222   4.5446   4.6120   4.8727
     4.9141   5.0138   5.0248   5.0734   5.0835   5.0902   5.1069   5.1496
     5.1553   5.2304   5.2674   5.2919   5.2923   5.3049   5.3053   5.3569
     5.3682   5.3838   5.4172   5.4326   5.5290   5.5334   5.5711   5.7411
     5.8351   5.8420   5.9156   5.9558   6.0298   6.1251   6.1550   6.2398
     6.2445   6.2696   6.3047   6.3243   6.3506   6.3911   6.4706   6.4917
     6.5299   6.6803   6.7094   6.7416   7.0030   7.0316   7.2844   7.3362
     7.3514   7.3795   7.4088   7.4996   7.5114   7.8156   7.8390   7.8483
     7.8496   7.8559   7.9127   7.9239   7.9416   8.0503   8.0507   8.0844
     8.1102   8.1433   8.1511   8.1854   8.2266   8.2749   8.3330   8.3653
     8.3830   8.4503   8.4540   8.5485   8.5506   8.5562   8.5565   8.6049
     8.6069   8.6467   8.6608   8.9744   9.0629   9.1150   9.1210   9.1219
     9.1539   9.1577   9.1664   9.2451   9.2958   9.3103   9.3648   9.3727
     9.3867   9.4152   9.4580   9.4877   9.5423   9.6465   9.7469   9.7662
     9.8012   9.8124   9.8598   9.8665   9.8896

          k =-0.5000-0.2165 0.0000 (256328 PWs)   bands (ev):

   -15.5371 -15.5006 -15.4931 -15.2566 -14.8003 -14.7609 -14.7303 -14.2691
   -13.3589 -13.3290 -13.2232 -12.8529 -11.6967 -11.6943 -11.5774 -11.5382
   -11.3183 -11.2760 -11.1770 -11.1312 -11.0809 -11.0301 -10.9421  -9.9426
    -9.3808  -9.3369  -9.0678  -8.8313  -8.4539  -8.4384  -8.2404  -7.9142
    -7.6527  -7.5032  -7.4411  -6.4705  -5.6692  -5.6108  -5.4733  -5.1603
    -4.9714  -4.9587  -4.9360  -4.9117  -4.9001  -4.8908  -4.8095  -4.7155
    -4.7018  -4.5209  -4.4300  -4.2895  -4.2324  -4.0828  -4.0406  -4.0173
    -3.9413  -3.9311  -3.9292  -3.9034  -3.8887  -3.8172  -3.6594  -3.6567
    -3.6045  -3.5937  -3.5801  -3.4928  -3.4427  -3.3930  -3.3366  -3.3290
    -3.3159  -3.2562  -3.2368  -3.1905  -3.0869  -2.8560  -2.8214  -2.7783
    -2.7168  -2.6900  -2.6334  -2.3245  -2.3191  -2.3078  -2.3033  -2.2641
    -2.2494  -2.2457  -2.2303  -2.1618  -2.1162  -2.0932  -1.9675  -1.8914
    -1.8884  -1.8336  -1.7972  -1.7900  -1.7855  -1.7413  -1.7327  -1.7137
    -1.6873  -1.6349  -1.5812  -1.5468  -1.5292  -1.5211  -1.5082  -1.4529
    -1.4282  -1.3871  -1.3680  -1.2621  -1.2523  -1.2356  -1.2320  -1.2295
    -1.2197  -1.2149  -1.2091  -1.1977  -1.1849  -1.1812  -1.1669  -1.1651
    -1.1594  -1.1543  -1.1480  -1.1329  -1.1264  -1.1128  -1.1121  -1.1068
    -1.1031  -1.1009  -1.0922  -1.0865  -1.0851  -1.0760  -1.0737  -1.0634
    -1.0342  -1.0331  -1.0199  -0.9914  -0.9754  -0.9543  -0.9493  -0.9459
    -0.9323  -0.9240  -0.9194  -0.9105  -0.9082  -0.8986  -0.8966  -0.8846
    -0.8616  -0.8593  -0.8560  -0.8547  -0.8511  -0.8507  -0.8460  -0.8238
    -0.8221  -0.8104  -0.8038  -0.7984  -0.7960  -0.7948  -0.7931  -0.7854
    -0.7747  -0.7694  -0.7673  -0.7641  -0.7614  -0.7583  -0.7562  -0.7339
    -0.7225  -0.6699  -0.6610  -0.6504  -0.6171  -0.5985  -0.5939  -0.5881
    -0.5822  -0.5792  -0.5769  -0.5496  -0.5271  -0.5171  -0.5147  -0.5072
    -0.4999  -0.4975  -0.4931  -0.4897  -0.4866  -0.4804  -0.4515  -0.4448
    -0.4360  -0.4334  -0.4307  -0.4296  -0.4259  -0.4236  -0.4167  -0.4099
    -0.4085  -0.3889  -0.3877  -0.3463  -0.3408  -0.3145  -0.3134  -0.3122
    -0.3032  -0.3018  -0.2820  -0.2607  -0.2504  -0.2393  -0.2363  -0.2162
    -0.2157  -0.2024  -0.1943  -0.1806  -0.1719  -0.1706  -0.1645  -0.1594
    -0.1554  -0.1550  -0.1440  -0.1411  -0.1304  -0.1281  -0.1211  -0.1123
    -0.1009  -0.0994  -0.0853  -0.0730  -0.0726  -0.0715  -0.0150  -0.0132
    -0.0066  -0.0020   0.0071   0.0107   0.0156   0.0187   0.0222   0.0259
     0.0297   0.0414   0.0665   0.0874   0.0941   0.1012   0.1108   0.1112
     0.1123   0.1160   0.1211   0.1234   0.1254   0.1273   0.1463   0.1514
     0.1532   0.1537   0.1555   0.1596   0.1668   0.1714   0.1758   0.1773
     0.1880   0.1896   0.1919   0.2225   0.2279   0.2394   0.2524   0.2612
     0.2694   0.2767   0.2799   0.2951   0.3074   0.3124   0.3153   0.3204
     0.3349   0.3353   0.3401   0.3402   0.3475   0.3489   0.3548   0.3551
     0.3585   0.3585   0.3612   0.3623   0.3674   0.3681   0.3710   0.3713
     0.3755   0.3767   0.3854   0.3871   0.3938   0.3952   0.3994   0.4024
     0.4121   0.4129   0.4138   0.4193   0.4232   0.4334   0.4421   0.4459
     0.4569   0.4610   0.4769   0.4797   0.4850   0.4876   0.5079   0.5159
     0.5183   0.5185   0.5378   0.5421   0.5625   0.5648   0.5717   0.5844
     0.5847   0.5886   0.5938   0.5940   0.5986   0.6029   0.6063   0.6067
     0.6132   0.6135   0.6202   0.6223   0.6268   0.6316   0.6346   0.6357
     0.6423   0.6465   0.6498   0.6528   0.6652   0.6681   0.6776   0.6886
     0.6919   0.6980   0.7038   0.7041   0.7112   0.7182   0.7215   0.7252
     0.7283   0.7295   0.7325   0.7357   0.7475   0.7553   0.7637   0.7712
     0.7738   0.7753   0.7848   0.7880   0.7930   0.7995   0.8061   0.8104
     0.8117   0.8156   0.8201   0.8274   0.8314   0.8336   0.8365   0.8372
     0.8381   0.8410   0.8425   0.8473   0.8518   0.8585   0.8613   0.8640
     0.8730   0.8814   0.8873   0.8908   0.9128   0.9273   0.9305   0.9347
     0.9382   0.9393   0.9428   0.9545   0.9568   0.9584   0.9670   0.9684
     0.9701   0.9732   0.9777   0.9815   0.9868   0.9889   0.9938   0.9951
     0.9981   1.0023   1.0088   1.0298   1.0409   1.0451   1.0488   1.0553
     1.0699   1.0710   1.0851   1.0871   1.0899   1.0914   1.1018   1.1093
     1.1096   1.1159   1.1168   1.1333   1.1347   1.1380   1.1549   1.1584
     1.1684   1.1767   1.1780   1.1820   1.2039   1.2085   1.2219   1.2231
     1.2451   1.2528   1.2561   1.2602   1.2692   1.2761   1.2802   1.2806
     1.2879   1.2919   1.2962   1.3023   1.3033   1.3077   1.3078   1.3085
     1.3098   1.3110   1.3117   1.3144   1.3151   1.3248   1.3279   1.3308
     1.3347   1.3390   1.3403   1.3494   1.3508   1.3556   1.3624   1.3653
     1.3667   1.3755   1.3807   1.3824   1.3852   1.3863   1.3884   1.3905
[...]
     atom    3 type  1   force =     0.00000000    0.00008167    0.00014472
     atom    4 type  1   force =     0.00006451   -0.00001154   -0.00016704
     atom    5 type  1   force =     0.00000000    0.00021107   -0.00031488
     atom    6 type  1   force =     0.00014093    0.00047375   -0.00023877
     atom    7 type  1   force =     0.00000000    0.00023313   -0.00037170
     atom    8 type  1   force =    -0.00014093    0.00047375   -0.00023877
     atom    9 type  1   force =     0.00000000    0.00059984    0.00047655
     atom   10 type  1   force =    -0.00010220    0.00009791    0.00045078
     atom   11 type  1   force =     0.00000000    0.00034238    0.00011541
     atom   12 type  1   force =     0.00010220    0.00009791    0.00045078
     atom   13 type  1   force =     0.00000000   -0.00022563    0.00001677
     atom   14 type  1   force =    -0.00001667   -0.00050823   -0.00036647
     atom   15 type  1   force =     0.00000000    0.00009378    0.00002562
     atom   16 type  1   force =     0.00001667   -0.00050823   -0.00036647
     atom   17 type  1   force =     0.00000000   -0.00066024   -0.00026482
     atom   18 type  1   force =    -0.00001809    0.00018692   -0.00003760
     atom   19 type  1   force =     0.00000000   -0.00022601   -0.00066617
     atom   20 type  1   force =     0.00001809    0.00018692   -0.00003760
     atom   21 type  1   force =     0.00000000   -0.00012649    0.00006589
     atom   22 type  1   force =    -0.00003218    0.00030068    0.00038248
     atom   23 type  1   force =     0.00000000    0.00058470    0.00019666
     atom   24 type  1   force =     0.00003218    0.00030068    0.00038248
     atom   25 type  1   force =     0.00000000    0.00017752    0.00035449
     atom   26 type  1   force =     0.00011717    0.00002876    0.00027593
     atom   27 type  1   force =     0.00000000   -0.00048806   -0.00014669
     atom   28 type  1   force =    -0.00011717    0.00002876    0.00027593
     atom   29 type  1   force =     0.00000000    0.00001592    0.00031310
     atom   30 type  1   force =    -0.00013727   -0.00022426    0.00019314
     atom   31 type  1   force =     0.00000000    0.00068089    0.00017187
     atom   32 type  1   force =     0.00013727   -0.00022426    0.00019314
     atom   33 type  1   force =     0.00000000    0.00018693    0.00022289
     atom   34 type  1   force =     0.00014186    0.00033283    0.00068653
     atom   35 type  1   force =     0.00000000    0.00009746   -0.00012830
     atom   36 type  1   force =    -0.00014186    0.00033283    0.00068653
     atom   37 type  1   force =     0.00000000    0.00011992   -0.00033972
     atom   38 type  1   force =    -0.00011139    0.00000476   -0.00081590
     atom   39 type  1   force =     0.00000000    0.00007668   -0.00020738
     atom   40 type  1   force =     0.00011139    0.00000476   -0.00081590
     atom   41 type  1   force =     0.00000000    0.00078209    0.00038869
     atom   42 type  1   force =     0.00020917    0.00055052    0.00032128
     atom   43 type  1   force =     0.00000000    0.00045147    0.00034593
     atom   44 type  1   force =    -0.00020917    0.00055052    0.00032128
     atom   45 type  1   force =     0.00000000    0.00022117    0.00037400
     atom   46 type  1   force =    -0.00002636    0.00029797    0.00007245
     atom   47 type  1   force =     0.00000000    0.00018306    0.00034029
     atom   48 type  1   force =     0.00002636    0.00029797    0.00007245
     atom   49 type  1   force =     0.00000000    0.00078817   -0.00041407
     atom   50 type  1   force =     0.00033970    0.00018283    0.00007950
     atom   51 type  1   force =     0.00000000    0.00041159    0.00074337
     atom   52 type  1   force =    -0.00033970    0.00018283    0.00007950
     atom   53 type  1   force =     0.00000000    0.00028580    0.00053517
     atom   54 type  1   force =    -0.00001520    0.00024191    0.00015086
     atom   55 type  1   force =     0.00000000    0.00010597    0.00046083
     atom   56 type  1   force =     0.00001520    0.00024191    0.00015086
     atom   57 type  1   force =     0.00000000    0.00007331   -0.00028173
     atom   58 type  1   force =     0.00013457   -0.00021058   -0.00012613
     atom   59 type  1   force =     0.00000000   -0.00009467   -0.00021177
     atom   60 type  1   force =    -0.00013457   -0.00021058   -0.00012613
     atom   61 type  1   force =     0.00000000    0.00087427    0.00101181
     atom   62 type  1   force =    -0.00010776    0.00081788   -0.00021844
     atom   63 type  1   force =     0.00000000    0.00012618    0.00033857
     atom   64 type  1   force =     0.00010776    0.00081788   -0.00021844
     atom   65 type  1   force =     0.00000000   -0.00090152   -0.00109784
     atom   66 type  1   force =    -0.00071760    0.00011525    0.00034181
     atom   67 type  1   force =     0.00000000   -0.00053067   -0.00074247
     atom   68 type  1   force =     0.00071760    0.00011525    0.00034181
     atom   69 type  1   force =     0.00000000    0.00110873   -0.00040640
     atom   70 type  1   force =    -0.00046674    0.00021779   -0.00055475
     atom   71 type  1   force =     0.00000000   -0.00009989   -0.00083933
     atom   72 type  1   force =     0.00046674    0.00021779   -0.00055475
     atom   73 type  1   force =     0.00000000    0.00016148    0.00047127
     atom   74 type  1   force =    -0.00079049    0.00003198   -0.00007191
     atom   75 type  1   force =     0.00000000    0.00025001   -0.00056695
     atom   76 type  1   force =     0.00079049    0.00003198   -0.00007191
     atom   77 type  1   force =     0.00000000    0.00006029   -0.00021097
     atom   78 type  1   force =     0.00000725   -0.00019080    0.00035008
     atom   79 type  1   force =     0.00000000   -0.00019195   -0.00045975
     atom   80 type  1   force =    -0.00000725   -0.00019080    0.00035008
     atom   81 type  1   force =     0.00000000   -0.00035136   -0.00079790
     atom   82 type  1   force =    -0.00036735    0.00031156    0.00088942
     atom   83 type  1   force =     0.00000000   -0.00017433   -0.00050114
     atom   84 type  1   force =     0.00036735    0.00031156    0.00088942
     atom   85 type  1   force =     0.00000000    0.00163166   -0.00019202
     atom   86 type  1   force =    -0.00039656    0.00081872   -0.00032131
     atom   87 type  1   force =     0.00000000   -0.00023803    0.00147404
     atom   88 type  1   force =     0.00039656    0.00081872   -0.00032131
     atom   89 type  1   force =     0.00000000    0.00003698    0.00017845
     atom   90 type  1   force =    -0.00117951    0.00089049    0.00080639
     atom   91 type  1   force =     0.00000000    0.00160480   -0.00143850
     atom   92 type  1   force =     0.00117951    0.00089049    0.00080639
     atom   93 type  1   force =     0.00000000    0.00024126   -0.00102203
     atom   94 type  1   force =     0.00018892   -0.00014520    0.00003508
     atom   95 type  1   force =     0.00000000    0.00055655    0.00003748
     atom   96 type  1   force =    -0.00018892   -0.00014520    0.00003508
     atom   97 type  1   force =     0.00000000    0.00029079    0.00072109
     atom   98 type  1   force =     0.00042796    0.00030985    0.00000862
     atom   99 type  1   force =     0.00000000    0.00038031    0.00040822
     atom  100 type  1   force =    -0.00042796    0.00030985    0.00000862
     atom  101 type  2   force =     0.00000000    0.00473399   -0.00174441
     atom  102 type  2   force =     0.00000000    0.00359531   -0.00062541
     atom  103 type  2   force =    -0.00090274   -0.00040518    0.00010914
     atom  104 type  2   force =     0.00204843    0.00058469   -0.00019441
     atom  105 type  2   force =    -0.00031296   -0.00069472    0.00113925
     atom  106 type  2   force =     0.00020303   -0.00270052    0.00089756
     atom  107 type  2   force =     0.00000000   -0.00145692   -0.00035376
     atom  108 type  2   force =     0.00000000   -0.00343341    0.00144893
     atom  109 type  2   force =     0.00031296   -0.00069472    0.00113925
     atom  110 type  2   force =    -0.00020303   -0.00270052    0.00089756
     atom  111 type  2   force =     0.00090274   -0.00040518    0.00010914
     atom  112 type  2   force =    -0.00204843    0.00058469   -0.00019441
     atom  113 type  2   force =     0.00000000   -0.00064594    0.00128272
     atom  114 type  2   force =     0.00000000   -0.00333541   -0.00239591
     atom  115 type  2   force =     0.00103738    0.00060846   -0.00047017
     atom  116 type  2   force =    -0.00144587    0.00054286   -0.00247878
     atom  117 type  2   force =     0.00095741   -0.00133064   -0.00147072
     atom  118 type  2   force =    -0.00049944   -0.00084863    0.00148704
     atom  119 type  2   force =     0.00000000   -0.00195942    0.00183265
     atom  120 type  2   force =    -0.00095741   -0.00133064   -0.00147072
     atom  121 type  2   force =     0.00049944   -0.00084863    0.00148704
     atom  122 type  2   force =    -0.00103738    0.00060846   -0.00047017
     atom  123 type  2   force =     0.00144587    0.00054286   -0.00247878
     atom  124 type  2   force =     0.00000000    0.00202190   -0.00031872
     atom  125 type  2   force =     0.00000000    0.00277613   -0.00104728
     atom  126 type  2   force =    -0.00059685   -0.00047523   -0.00030247
     atom  127 type  2   force =     0.00173959   -0.00070488    0.00046486
     atom  128 type  2   force =     0.00005135   -0.00171775   -0.00067004
     atom  129 type  2   force =     0.00059333   -0.00099759   -0.00098553
     atom  130 type  2   force =     0.00000000   -0.00270913    0.00026481
     atom  131 type  2   force =     0.00000000   -0.00176693   -0.00144493
     atom  132 type  2   force =    -0.00005135   -0.00171775   -0.00067004
     atom  133 type  2   force =    -0.00059333   -0.00099759   -0.00098553
     atom  134 type  2   force =     0.00059685   -0.00047523   -0.00030247
     atom  135 type  2   force =    -0.00173959   -0.00070488    0.00046486
     atom  136 type  2   force =     0.00000000   -0.00183360    0.00011139
     atom  137 type  2   force =     0.00000000   -0.00170565   -0.00013037
     atom  138 type  2   force =     0.00168264    0.00044068    0.00192870
     atom  139 type  2   force =    -0.00032288   -0.00030582    0.00110922
     atom  140 type  2   force =     0.00153368   -0.00026762    0.00007263
     atom  141 type  2   force =     0.00084284    0.00122413   -0.00001475
     atom  142 type  2   force =     0.00000000   -0.00019241   -0.00031690
     atom  143 type  2   force =     0.00000000    0.00026278   -0.00053256
     atom  144 type  2   force =    -0.00153368   -0.00026762    0.00007263
     atom  145 type  2   force =    -0.00084284    0.00122413   -0.00001475
     atom  146 type  2   force =    -0.00168264    0.00044068    0.00192870
     atom  147 type  2   force =     0.00032288   -0.00030582    0.00110922

     Total force =     0.016677     Total SCF correction =     0.000432

     number of scf cycles    =  16
     number of bfgs steps    =  15

     energy   old            =  -12687.1432935102 Ry
     energy   new            =  -12687.1438703512 Ry

     CASE: energy  _new < energy  _old

     new trust radius        =       0.0544788391 bohr
     new conv_thr            =       0.0000000100 Ry


ATOMIC_POSITIONS (angstrom)
Cu       0.000000000   0.052970662   7.416930079
Cu       1.844596610   1.740868724   7.420245577
Cu       3.689036991   0.055568546   7.415447320
Cu       5.533477373   1.740868724   7.420245577
Cu       0.000000000   3.422735534   7.417201718
Cu       1.843919354   5.113369067   7.403858611
Cu       3.689036991   3.422277554   7.418175693
Cu       5.534154629   5.113369067   7.403858611
Cu       0.000000000   6.819436355   7.384721800
Cu       1.844883755   8.540146520   7.379471552
Cu       3.689036991   6.820128849   7.387308442
Cu       5.533190228   8.540146520   7.379471552
Cu       0.000000000  10.264544285   7.392539751
Cu       1.844091324  11.985122573   7.409273208
Cu       3.689036991  10.264589883   7.393460403
Cu       5.533982659  11.985122573   7.409273208
Cu       0.000000000  13.697014015   7.412271162
Cu       1.845744803  15.395475725   7.414428062
Cu       3.689036991  13.690136843   7.418605984
Cu       5.532329180  15.395475725   7.414428062
Cu       0.000000000   1.745127496   9.271277971
Cu       1.843744478   0.053559567   9.260835856
Cu       3.689036991   1.742533090   9.274374966
Cu       5.534329505   0.053559567   9.260835856
Cu       0.000000000   5.128800382   9.239348048
Cu       1.845582247   3.434469274   9.263432470
Cu       3.689036991   5.130760846   9.238394606
Cu       5.532491736   3.434469274   9.263432470
Cu       0.000000000   8.537332569   9.204181987
Cu       1.844023854   6.831619262   9.214775773
Cu       3.689036991   8.538120696   9.203062727
Cu       5.534050129   6.831619262   9.214775773
Cu       0.000000000  11.971443489   9.222917012
Cu       1.844440500  10.249948903   9.209801255
Cu       3.689036991  11.966734709   9.231704180
Cu       5.533633483  10.249948903   9.209801255
Cu       0.000000000  15.392414267   9.247102478
Cu       1.845532708  13.687018876   9.240737755
Cu       3.689036991  15.395382750   9.244331392
Cu       5.532541275  13.687018876   9.240737755
Cu       0.000000000   0.043793114  11.105405503
Cu       1.846210403   1.754165719  11.130384842
Cu       3.689036991   0.039898089  11.106514617
Cu       5.531863580   1.754165719  11.130384842
Cu       0.000000000   3.449128743  11.113590233
Cu       1.846280080   5.145513531  11.091494136
Cu       3.689036991   3.459116734  11.119922132
Cu       5.531793903   5.145513531  11.091494136
Cu       0.000000000   6.839403181  11.059430154
Cu       1.844050229   8.537718061  11.046030554
Cu       3.689036991   6.841002940  11.054314469
Cu       5.534023754   8.537718061  11.046030554
Cu       0.000000000  10.247600278  11.038949453
Cu       1.847096121  11.964116870  11.049210926
Cu       3.689036991  10.234021400  11.054782044
Cu       5.530977862  11.964116870  11.049210926
Cu       0.000000000  13.679261046  11.067427573
Cu       1.842753216  15.385037593  11.086457071
Cu       3.689036991  13.688477198  11.067819836
Cu       5.535320767  15.385037593  11.086457071
Cu       0.000000000   1.749119366  12.947291793
Cu       1.843585703   0.019925594  12.948147032
Cu       3.689036991   1.735182709  12.950225503
Cu       5.534488280   0.019925594  12.948147032
Cu       0.000000000   5.160574094  12.932366124
Cu       1.867487642   3.492433226  12.985441211
Cu       3.689036991   5.213257152  12.977625838
Cu       5.510586341   3.492433226  12.985441211
Cu       0.000000000   8.558576483  12.885345499
Cu       1.858825063   6.860317283  12.907695728
Cu       3.689036991   8.495251786  12.935882440
Cu       5.519248920   6.860317283  12.907695728
Cu       0.000000000  11.967406352  12.869234316
Cu       1.852888346  10.255787258  12.862357763
Cu       3.689036991  11.981807695  12.866164871
Cu       5.525185637  10.255787258  12.862357763
Cu       0.000000000  15.366697592  12.935517885
Cu       1.842523890  13.675722854  12.901209787
Cu       3.689036991  15.369490321  12.945419805
Cu       5.535550093  13.675722854  12.901209787
Cu       0.000000000   0.008313979  14.774286779
Cu       1.813887800   1.722317557  14.742145290
Cu       3.689036991   0.028419641  14.779095064
Cu       5.564186183   1.722317557  14.742145290
Cu       0.000000000   3.494748685  14.725191500
Cu       1.959846697   5.256673333  14.798080199
Cu       3.689036991   3.386911411  14.777949049
Cu       5.418227286   5.256673333  14.798080199
Cu       0.000000000   6.857533682  14.645777449
Cu       1.846106799   8.595864770  14.682089180
Cu       3.689036991   7.037688060  15.567812318
Cu       5.531967184   8.595864770  14.682089180
Cu       0.000000000  10.290500089  14.671219367
Cu       1.836392453  11.969018062  14.691141062
Cu       3.689036991  10.305396498  14.628833372
Cu       5.541681530  11.969018062  14.691141062
Cu       0.000000000  13.650919722  14.737777882
Cu       1.846608565  15.344588194  14.768420506
Cu       3.689036991  13.641780954  14.738230804
Cu       5.531465418  15.344588194  14.768420506
C        0.000000000   0.625479391  17.772016836
C        0.000000000   2.046328282  17.751908929
C        1.231199745  -0.083543888  17.762597416
C        1.228678427   2.756754452  17.669029041
C        2.458823756   0.627218549  17.707158611
C        2.457738714   2.045017891  17.616138313
C        3.689036991  -0.085815902  17.709532353
C        3.689036991   2.750772550  17.478348444
C        4.919250226   0.627218549  17.707158611
C        4.920335268   2.045017891  17.616138313
C        6.146874238  -0.083543888  17.762597416
C        6.149395556   2.756754452  17.669029041
C        0.000000000   4.886097531  17.518238635
C        0.000000000   6.303168409  17.383256112
C        1.227065887   4.169738665  17.531419997
C        1.222664511   6.998127761  17.123974114
C        2.429891273   4.850588316  17.143183465
C        2.325450209   6.197053578  16.699090896
C        3.689036991   4.143156235  17.178794688
C        4.948182709   4.850588316  17.143183465
C        5.052623773   6.197053578  16.699090896
C        6.151008096   4.169738665  17.531419997
C        6.155409472   6.998127761  17.123974114
C        0.000000000   9.137612967  17.319137765
C        0.000000000  10.552715378  17.506878291
C        1.232339138   8.436493670  17.145165750
C        1.227236023  11.269380335  17.602893309
C        2.463876411   9.181069339  17.163790858
C        2.457048666  10.571171579  17.510263424
C        3.689036991   8.588819724  16.789362697
C        3.689036991  11.275727164  17.601231370
C        4.914197571   9.181069339  17.163790858
C        4.921025316  10.571171579  17.510263424
C        6.145734845   8.436493670  17.145165750
C        6.150837960  11.269380335  17.602893309
C        0.000000000  13.404861530  17.723039103
C        0.000000000  14.825277511  17.763953612
C        1.228031953  12.689856061  17.701479122
C        1.230403757  15.534588117  17.762894479
C        2.458209912  13.400112109  17.743894821
C        2.459399704  14.821667243  17.763022899
C        3.689036991  12.690853953  17.722479416
C        3.689036991  15.531671796  17.760838891
C        4.919864070  13.400112109  17.743894821
C        4.918674278  14.821667243  17.763022899
C        6.150042030  12.689856061  17.701479122
C        6.147670226  15.534588117  17.762894479



     Writing output data file gc.save
     Check: negative starting charge=   -0.001860
     NEW-OLD atomic charge density approx. for the potential
     Check: negative starting charge=   -0.001864

     negative rho (up, down):  1.942E-03 0.000E+00

     total cpu time spent up to now is    54848.7 secs

     Self-consistent Calculation

     iteration #  1     ecut=    80.00 Ry     beta=0.70
     Davidson diagonalization with overlap
     ethr =  1.00E-06,  avg # of iterations =  6.5

     negative rho (up, down):  1.697E-03 0.000E+00

     total cpu time spent up to now is    55421.9 secs

     total energy              =  -12687.14165987 Ry
     Harris-Foulkes estimate   =  -12687.15229248 Ry
     estimated scf accuracy    <       0.09929464 Ry

     iteration #  2     ecut=    80.00 Ry     beta=0.70
     Davidson diagonalization with overlap
     ethr =  7.71E-06,  avg # of iterations =  1.2

     negative rho (up, down):  1.638E-03 0.000E+00

     total cpu time spent up to now is    55600.3 secs

     total energy              =  -12687.14228824 Ry
     Harris-Foulkes estimate   =  -12687.14712988 Ry
     estimated scf accuracy    <       0.01785489 Ry

     iteration #  3     ecut=    80.00 Ry     beta=0.70
     Davidson diagonalization with overlap
