
     Program PWSCF v.5.4.0 starts on 12Mar2017 at  8:16: 3 

     This program is part of the open-source Quantum ESPRESSO suite
     for quantum simulation of materials; please cite
         "P. Giannozzi et al., J. Phys.:Condens. Matter 21 395502 (2009);
          URL http://www.quantum-espresso.org", 
     in publications or presentations arising from this work. More details at
     http://www.quantum-espresso.org/quote

     Parallel version (MPI & OpenMP), running on      56 processor cores
     Number of MPI processes:                56
     Threads/MPI process:                     1
     R & G space division:  proc/nbgrp/npool/nimage =      56
     Waiting for input...
     Reading input from standard input

     Current dimensions of program PWSCF are:
     Max number of different atomic species (ntypx) = 10
     Max number of k-points (npk) =  40000
     Max angular momentum in pseudopotentials (lmaxx) =  3

     -------------------------------------
     Parameters for Dispersion Correction:
     -------------------------------------
       atom      VdW radius       C_6     

        Cu         2.952        374.666
        C          2.744         60.710

     Subspace diagonalization in iterative solution of the eigenvalue problem:
     one sub-group per band group will be used
     scalapack distributed-memory algorithm (size of sub-group:  5*  5 procs)

 
     Parallelization info
     --------------------
     sticks:   dense  smooth     PW     G-vecs:    dense   smooth      PW
     Min         204     204     54                36612    36612    4962
     Max         205     205     55                36617    36617    4968
     Sum       11433   11433   3039              2050409  2050409  278033
 


     bravais-lattice index     =            0
     lattice parameter (alat)  =      13.9425  a.u.
     unit-cell volume          =   21209.0878 (a.u.)^3
     number of atoms/cell      =          147
     number of atomic types    =            2
     number of electrons       =      1288.00
     number of Kohn-Sham states=          773
     kinetic-energy cutoff     =      80.0000  Ry
     charge density cutoff     =     320.0000  Ry
     convergence threshold     =      1.0E-08
     mixing beta               =       0.7000
     number of iterations used =            8  local-TF  mixing
     Exchange-correlation      =  SLA  PW   PBX  PBC ( 1  4  3  4 0 0)
     nstep                     =           50


     celldm(1)=  13.942539  celldm(2)=   0.000000  celldm(3)=   0.000000
     celldm(4)=   0.000000  celldm(5)=   0.000000  celldm(6)=   0.000000

     crystal axes: (cart. coord. in units of alat)
               a(1) = (   1.000000   0.000000   0.000000 )  
               a(2) = (   0.000000   2.309401   0.000000 )  
               a(3) = (   0.000000   0.000000   3.388418 )  

     reciprocal axes: (cart. coord. in units 2 pi/alat)
               b(1) = (  1.000000  0.000000  0.000000 )  
               b(2) = (  0.000000  0.433013  0.000000 )  
               b(3) = (  0.000000  0.000000  0.295123 )  


     PseudoPot. # 1 for Cu read from file:
     /home/549/hxw549/Short/pseudopotentials/Cu.pbe-n-van_ak.UPF
     MD5 check sum: 601f7c30f7467666bec936e0661ce3e1
     Pseudo is Ultrasoft + core correction, Zval = 11.0
     Generated by new atomic code, or converted to UPF format
     Using radial grid of  867 points,  6 beta functions with: 
                l(1) =   0
                l(2) =   0
                l(3) =   1
                l(4) =   1
                l(5) =   2
                l(6) =   2
     Q(r) pseudized with  8 coefficients,  rinner =    1.400   1.400   1.400
                                                       1.400   1.400

     PseudoPot. # 2 for C  read from file:
     /home/549/hxw549/Short/pseudopotentials/C.pbe-mt_gipaw.UPF
     MD5 check sum: 5ac2f21f2c440b14befe521540822c15
     Pseudo is Norm-conserving, Zval =  4.0
     Generated by new atomic code, or converted to UPF format
     Using radial grid of 1073 points,  1 beta functions with: 
                l(1) =   0

     atomic species   valence    mass     pseudopotential
        Cu            11.00    63.54600     Cu( 1.00)
        C              4.00    12.01070     C ( 1.00)

      2 Sym. Ops. (no inversion) found



   Cartesian axes

     site n.     atom                  positions (alat units)
         1           Cu  tau(   1) = (   0.0000000  -0.0000891   0.9977236  )
         2           Cu  tau(   2) = (   0.2500295   0.2308774   0.9978273  )
         3           Cu  tau(   3) = (   0.5000000   0.0001971   0.9976767  )
         4           Cu  tau(   4) = (   0.7499705   0.2308774   0.9978273  )
         5           Cu  tau(   5) = (   0.0000000   0.4617790   0.9979691  )
         6           Cu  tau(   6) = (   0.2499784   0.6926679   0.9975064  )
         7           Cu  tau(   7) = (   0.5000000   0.4616431   0.9975224  )
         8           Cu  tau(   8) = (   0.7500216   0.6926679   0.9975064  )
         9           Cu  tau(   9) = (   0.0000000   0.9238513   0.9973267  )
        10           Cu  tau(  10) = (   0.2499971   1.1547959   0.9974474  )
        11           Cu  tau(  11) = (   0.5000000   0.9235693   0.9974281  )
        12           Cu  tau(  12) = (   0.7500029   1.1547959   0.9974474  )
        13           Cu  tau(  13) = (   0.0000000   1.3858076   0.9976501  )
        14           Cu  tau(  14) = (   0.2499295   1.6166677   0.9978767  )
        15           Cu  tau(  15) = (   0.5000000   1.3858162   0.9977347  )
        16           Cu  tau(  16) = (   0.7500705   1.6166677   0.9978767  )
        17           Cu  tau(  17) = (   0.0000000   1.8474213   0.9977017  )
        18           Cu  tau(  18) = (   0.2500089   2.0784642   0.9975790  )
        19           Cu  tau(  19) = (   0.5000000   1.8475533   0.9978379  )
        20           Cu  tau(  20) = (   0.7499911   2.0784642   0.9975790  )
        21           Cu  tau(  21) = (   0.0000000   0.2310334   1.2463085  )
        22           Cu  tau(  22) = (   0.2500695   0.0000854   1.2461266  )
        23           Cu  tau(  23) = (   0.5000000   0.2313580   1.2468558  )
        24           Cu  tau(  24) = (   0.7499305   0.0000854   1.2461266  )
        25           Cu  tau(  25) = (   0.0000000   0.6929958   1.2462978  )
        26           Cu  tau(  26) = (   0.2501318   0.4620586   1.2465127  )
        27           Cu  tau(  27) = (   0.5000000   0.6926300   1.2456583  )
        28           Cu  tau(  28) = (   0.7498682   0.4620586   1.2465127  )
        29           Cu  tau(  29) = (   0.0000000   1.1545003   1.2461578  )
        30           Cu  tau(  30) = (   0.2498104   0.9237170   1.2456199  )
        31           Cu  tau(  31) = (   0.5000000   1.1548747   1.2453866  )
        32           Cu  tau(  32) = (   0.7501896   0.9237170   1.2456199  )
        33           Cu  tau(  33) = (   0.0000000   1.6164144   1.2466381  )
        34           Cu  tau(  34) = (   0.2499315   1.3854974   1.2463877  )
        35           Cu  tau(  35) = (   0.5000000   1.6161673   1.2466355  )
        36           Cu  tau(  36) = (   0.7500685   1.3854974   1.2463877  )
        37           Cu  tau(  37) = (   0.0000000   2.0785400   1.2459505  )
        38           Cu  tau(  38) = (   0.2499257   1.8474210   1.2461976  )
        39           Cu  tau(  39) = (   0.5000000   2.0784160   1.2458610  )
        40           Cu  tau(  40) = (   0.7500743   1.8474210   1.2461976  )
        41           Cu  tau(  41) = (   0.0000000   0.0000991   1.4957952  )
        42           Cu  tau(  42) = (   0.2502162   0.2317946   1.4964986  )
        43           Cu  tau(  43) = (   0.5000000  -0.0001863   1.4954521  )
        44           Cu  tau(  44) = (   0.7497838   0.2317946   1.4964986  )
        45           Cu  tau(  45) = (   0.0000000   0.4628565   1.4967342  )
        46           Cu  tau(  46) = (   0.2506761   0.6943535   1.4977493  )
        47           Cu  tau(  47) = (   0.5000000   0.4653033   1.4993143  )
        48           Cu  tau(  48) = (   0.7493239   0.6943535   1.4977493  )
        49           Cu  tau(  49) = (   0.0000000   0.9239637   1.4979948  )
        50           Cu  tau(  50) = (   0.2505628   1.1533749   1.4973756  )
        51           Cu  tau(  51) = (   0.5000000   0.9237200   1.4952218  )
        52           Cu  tau(  52) = (   0.7494372   1.1533749   1.4973756  )
        53           Cu  tau(  53) = (   0.0000000   1.3844301   1.4969988  )
        54           Cu  tau(  54) = (   0.2501075   1.6156225   1.4965688  )
        55           Cu  tau(  55) = (   0.5000000   1.3820631   1.4993160  )
        56           Cu  tau(  56) = (   0.7498925   1.6156225   1.4965688  )
        57           Cu  tau(  57) = (   0.0000000   1.8474669   1.4956704  )
        58           Cu  tau(  58) = (   0.2499560   2.0784248   1.4955920  )
        59           Cu  tau(  59) = (   0.5000000   1.8476381   1.4957228  )
        60           Cu  tau(  60) = (   0.7500440   2.0784248   1.4955920  )
        61           Cu  tau(  61) = (   0.0000000   0.2321743   1.7447772  )
        62           Cu  tau(  62) = (   0.2499943  -0.0000543   1.7448893  )
        63           Cu  tau(  63) = (   0.5000000   0.2310795   1.7447789  )
        64           Cu  tau(  64) = (   0.7500057  -0.0000543   1.7448893  )
        65           Cu  tau(  65) = (   0.0000000   0.6951847   1.7476310  )
        66           Cu  tau(  66) = (   0.2520208   0.4658807   1.7478662  )
        67           Cu  tau(  67) = (   0.5000000   0.7092789   1.7658414  )
        68           Cu  tau(  68) = (   0.7479792   0.4658807   1.7478662  )
        69           Cu  tau(  69) = (   0.0000000   1.1530462   1.7491523  )
        70           Cu  tau(  70) = (   0.2584114   0.9248535   1.7562279  )
        71           Cu  tau(  71) = (   0.5000000   1.1372656   1.7657926  )
        72           Cu  tau(  72) = (   0.7415886   0.9248535   1.7562279  )
        73           Cu  tau(  73) = (   0.0000000   1.6151745   1.7453057  )
        74           Cu  tau(  74) = (   0.2514154   1.3812684   1.7480401  )
        75           Cu  tau(  75) = (   0.5000000   1.6162576   1.7443757  )
        76           Cu  tau(  76) = (   0.7485846   1.3812684   1.7480401  )
        77           Cu  tau(  77) = (   0.0000000   2.0781131   1.7452813  )
        78           Cu  tau(  78) = (   0.2498486   1.8474008   1.7450966  )
        79           Cu  tau(  79) = (   0.5000000   2.0789086   1.7453362  )
        80           Cu  tau(  80) = (   0.7501514   1.8474008   1.7450966  )
        81           Cu  tau(  81) = (   0.0000000   0.0006737   1.9903944  )
        82           Cu  tau(  82) = (   0.2496070   0.2306056   1.9911989  )
        83           Cu  tau(  83) = (   0.5000000   0.0004321   1.9927998  )
        84           Cu  tau(  84) = (   0.7503930   0.2306056   1.9911989  )
        85           Cu  tau(  85) = (   0.0000000   0.4631849   1.9918915  )
        86           Cu  tau(  86) = (   0.2523755   0.6950950   1.9998981  )
        87           Cu  tau(  87) = (   0.5000000   0.4584521   1.9941790  )
        88           Cu  tau(  88) = (   0.7476245   0.6950950   1.9998981  )
        89           Cu  tau(  89) = (   0.0000000   0.9239578   1.9871295  )
        90           Cu  tau(  90) = (   0.2513246   1.1550616   2.0038061  )
        91           Cu  tau(  91) = (   0.5000000   0.9275731   2.1422586  )
        92           Cu  tau(  92) = (   0.7486754   1.1550616   2.0038061  )
        93           Cu  tau(  93) = (   0.0000000   1.3850458   1.9951130  )
        94           Cu  tau(  94) = (   0.2491230   1.6162998   1.9913471  )
        95           Cu  tau(  95) = (   0.5000000   1.3883485   1.9907683  )
        96           Cu  tau(  96) = (   0.7508770   1.6162998   1.9913471  )
        97           Cu  tau(  97) = (   0.0000000   1.8469677   1.9924304  )
        98           Cu  tau(  98) = (   0.2497675   2.0785716   1.9913059  )
        99           Cu  tau(  99) = (   0.5000000   1.8470688   1.9903554  )
       100           Cu  tau( 100) = (   0.7502325   2.0785716   1.9913059  )
       101           C   tau( 101) = (   0.0000000   0.1015339   2.3875912  )
       102           C   tau( 102) = (   0.0000000   0.2958812   2.3920647  )
       103           C   tau( 103) = (   0.1659741   0.0026561   2.3870603  )
       104           C   tau( 104) = (   0.1670768   0.3919487   2.3936599  )
       105           C   tau( 105) = (   0.3329431   0.0999873   2.3853930  )
       106           C   tau( 106) = (   0.3330512   0.2943707   2.3866418  )
       107           C   tau( 107) = (   0.5000000   0.0019626   2.3838656  )
       108           C   tau( 108) = (   0.5000000   0.3909380   2.3862831  )
       109           C   tau( 109) = (   0.6670569   0.0999873   2.3853930  )
       110           C   tau( 110) = (   0.6669488   0.2943707   2.3866418  )
       111           C   tau( 111) = (   0.8340259   0.0026561   2.3870603  )
       112           C   tau( 112) = (   0.8329232   0.3919487   2.3936599  )
       113           C   tau( 113) = (   0.0000000   0.6780613   2.3954887  )
       114           C   tau( 114) = (   0.0000000   0.8686449   2.3953667  )
       115           C   tau( 115) = (   0.1670586   0.5845240   2.3943403  )
       116           C   tau( 116) = (   0.1650251   0.9642146   2.3639768  )
       117           C   tau( 117) = (   0.3343996   0.6823613   2.3610915  )
       118           C   tau( 118) = (   0.3250681   0.8703559   2.2947840  )
       119           C   tau( 119) = (   0.5000000   0.5846187   2.3734335  )
       120           C   tau( 120) = (   0.6656004   0.6823613   2.3610915  )
       121           C   tau( 121) = (   0.6749319   0.8703559   2.2947840  )
       122           C   tau( 122) = (   0.8329414   0.5845240   2.3943403  )
       123           C   tau( 123) = (   0.8349749   0.9642146   2.3639768  )
       124           C   tau( 124) = (   0.0000000   1.2493893   2.3896634  )
       125           C   tau( 125) = (   0.0000000   1.4396038   2.3872955  )
       126           C   tau( 126) = (   0.1648726   1.1536171   2.3766533  )
       127           C   tau( 127) = (   0.1681606   1.5323757   2.3882646  )
       128           C   tau( 128) = (   0.3362345   1.2394629   2.3702783  )
       129           C   tau( 129) = (   0.3349104   1.4343567   2.3889040  )
       130           C   tau( 130) = (   0.5000000   1.1415720   2.3453701  )
       131           C   tau( 131) = (   0.5000000   1.5317945   2.3910850  )
       132           C   tau( 132) = (   0.6637655   1.2394629   2.3702783  )
       133           C   tau( 133) = (   0.6650896   1.4343567   2.3889040  )
       134           C   tau( 134) = (   0.8351274   1.1536171   2.3766533  )
       135           C   tau( 135) = (   0.8318394   1.5323757   2.3882646  )
       136           C   tau( 136) = (   0.0000000   1.8227366   2.3840877  )
       137           C   tau( 137) = (   0.0000000   2.0173012   2.3860515  )
       138           C   tau( 138) = (   0.1675852   1.7258043   2.3865410  )
       139           C   tau( 139) = (   0.1660805   2.1167362   2.3863187  )
       140           C   tau( 140) = (   0.3337191   1.8236419   2.3876524  )
       141           C   tau( 141) = (   0.3333709   2.0182460   2.3864802  )
       142           C   tau( 142) = (   0.5000000   1.7258095   2.3894940  )
       143           C   tau( 143) = (   0.5000000   2.1167356   2.3865094  )
       144           C   tau( 144) = (   0.6662809   1.8236419   2.3876524  )
       145           C   tau( 145) = (   0.6666291   2.0182460   2.3864802  )
       146           C   tau( 146) = (   0.8324148   1.7258043   2.3865410  )
       147           C   tau( 147) = (   0.8339195   2.1167362   2.3863187  )

     number of k points=     6  gaussian smearing, width (Ry)=  0.1000
                       cart. coord. in units 2pi/alat
        k(    1) = (   0.0000000   0.0000000   0.0000000), wk =   0.2500000
        k(    2) = (   0.0000000  -0.2165064   0.0000000), wk =   0.2500000
        k(    3) = (   0.2500000   0.0000000   0.0000000), wk =   0.5000000
        k(    4) = (   0.2500000  -0.2165064   0.0000000), wk =   0.5000000
        k(    5) = (  -0.5000000   0.0000000   0.0000000), wk =   0.2500000
        k(    6) = (  -0.5000000  -0.2165064   0.0000000), wk =   0.2500000

     Dense  grid:  2050409 G-vectors     FFT dimensions: (  80, 192, 270)

     Largest allocated arrays     est. size (Mb)     dimensions
        Kohn-Sham Wavefunctions        54.30 Mb     (    4604,  773)
        NL pseudopotentials           129.75 Mb     (    4604, 1847)
        Each V/rho on FFT grid          1.17 Mb     (   76800)
        Each G-vector array             0.28 Mb     (   36616)
        G-vector shells                 0.14 Mb     (   17932)
     Largest temporary arrays     est. size (Mb)     dimensions
        Auxiliary wavefunctions       217.22 Mb     (    4604, 3092)
        Each subspace H/S matrix        5.83 Mb     (     618,  618)
        Each <psi_i|beta_j> matrix     21.79 Mb     (    1847,  773)
        Arrays for rho mixing           9.38 Mb     (   76800,    8)

     Initial potential from superposition of free atoms
     Check: negative starting charge=   -0.001867

     starting charge 1263.31751, renormalised to 1288.00000

     negative rho (up, down):  1.903E-03 0.000E+00
     Starting wfc are 1276 randomized atomic wfcs

     total cpu time spent up to now is      103.9 secs

     Self-consistent Calculation

     iteration #  1     ecut=    80.00 Ry     beta=0.70
     Davidson diagonalization with overlap
     c_bands:  2 eigenvalues not converged
     c_bands:  5 eigenvalues not converged
     ethr =  1.00E-04,  avg # of iterations = 20.7

     negative rho (up, down):  2.745E+01 0.000E+00

     total cpu time spent up to now is     1787.7 secs

     total energy              =   -9532.01913198 Ry
     Harris-Foulkes estimate   =  -16884.26357829 Ry
     estimated scf accuracy    <  169395.34863859 Ry

     iteration #  2     ecut=    80.00 Ry     beta=0.70
     Davidson diagonalization with overlap
     ethr =  1.00E-02,  avg # of iterations = 10.0

     negative rho (up, down):  2.826E+01 0.000E+00

     total cpu time spent up to now is     2697.9 secs

     total energy              =  -12647.03305783 Ry
     Harris-Foulkes estimate   =  -13494.63896107 Ry
     estimated scf accuracy    <   10457.13806224 Ry

     iteration #  3     ecut=    80.00 Ry     beta=0.70
     Davidson diagonalization with overlap
     ethr =  1.00E-02,  avg # of iterations =  6.5

     negative rho (up, down):  3.148E+01 0.000E+00

     total cpu time spent up to now is     3164.0 secs

     total energy              =  -12742.93190948 Ry
     Harris-Foulkes estimate   =  -13189.95161369 Ry
     estimated scf accuracy    <   10251.48408221 Ry

     iteration #  4     ecut=    80.00 Ry     beta=0.70
     Davidson diagonalization with overlap
     ethr =  1.00E-02,  avg # of iterations =  7.5

     negative rho (up, down):  2.172E+01 0.000E+00

     total cpu time spent up to now is     3721.5 secs

     total energy              =  -12814.96202925 Ry
     Harris-Foulkes estimate   =  -13014.28918365 Ry
     estimated scf accuracy    <     649.45158119 Ry

     iteration #  5     ecut=    80.00 Ry     beta=0.70
     Davidson diagonalization with overlap
     ethr =  1.00E-02,  avg # of iterations =  3.0

     negative rho (up, down):  1.884E+01 0.000E+00

     total cpu time spent up to now is     3974.4 secs

     total energy              =  -12831.61634502 Ry
     Harris-Foulkes estimate   =  -12886.45623928 Ry
     estimated scf accuracy    <    1887.06152994 Ry

     iteration #  6     ecut=    80.00 Ry     beta=0.70
     Davidson diagonalization with overlap
     ethr =  1.00E-02,  avg # of iterations =  1.5

     negative rho (up, down):  1.450E+01 0.000E+00

     total cpu time spent up to now is     4142.9 secs

     total energy              =  -12821.93580138 Ry
     Harris-Foulkes estimate   =  -12870.43616864 Ry
     estimated scf accuracy    <     911.00772347 Ry

     iteration #  7     ecut=    80.00 Ry     beta=0.70
     Davidson diagonalization with overlap
     ethr =  1.00E-02,  avg # of iterations =  2.3

     negative rho (up, down):  1.155E+01 0.000E+00

     total cpu time spent up to now is     4324.1 secs

     total energy              =  -12817.55990901 Ry
     Harris-Foulkes estimate   =  -12843.35932747 Ry
     estimated scf accuracy    <     305.02595602 Ry

     iteration #  8     ecut=    80.00 Ry     beta=0.70
     Davidson diagonalization with overlap
     ethr =  1.00E-02,  avg # of iterations =  1.7

     negative rho (up, down):  7.680E+00 0.000E+00

     total cpu time spent up to now is     4494.2 secs

     total energy              =  -12790.54028670 Ry
     Harris-Foulkes estimate   =  -12824.08297842 Ry
     estimated scf accuracy    <     272.47133517 Ry

     iteration #  9     ecut=    80.00 Ry     beta=0.70
     Davidson diagonalization with overlap
     ethr =  1.00E-02,  avg # of iterations =  1.0

     negative rho (up, down):  4.750E+00 0.000E+00

     total cpu time spent up to now is     4657.3 secs

     total energy              =  -12761.03710169 Ry
     Harris-Foulkes estimate   =  -12792.89434501 Ry
     estimated scf accuracy    <     212.37991068 Ry

     iteration # 10     ecut=    80.00 Ry     beta=0.70
     Davidson diagonalization with overlap
     ethr =  1.00E-02,  avg # of iterations =  1.0

     negative rho (up, down):  1.672E+00 0.000E+00

     total cpu time spent up to now is     4820.7 secs

     total energy              =  -12718.20126097 Ry
     Harris-Foulkes estimate   =  -12764.57907641 Ry
     estimated scf accuracy    <     192.03348608 Ry

     iteration # 11     ecut=    80.00 Ry     beta=0.70
     Davidson diagonalization with overlap
     ethr =  1.00E-02,  avg # of iterations =  3.0

     negative rho (up, down):  2.205E+00 0.000E+00

     total cpu time spent up to now is     5011.7 secs

     total energy              =  -12705.56967018 Ry
     Harris-Foulkes estimate   =  -12729.55719498 Ry
     estimated scf accuracy    <     274.90524599 Ry

     iteration # 12     ecut=    80.00 Ry     beta=0.70
     Davidson diagonalization with overlap
     ethr =  1.00E-02,  avg # of iterations =  2.0

     negative rho (up, down):  4.181E+00 0.000E+00

     total cpu time spent up to now is     5187.6 secs

     total energy              =  -12702.47953812 Ry
     Harris-Foulkes estimate   =  -12718.62579784 Ry
     estimated scf accuracy    <     162.99018752 Ry

     iteration # 13     ecut=    80.00 Ry     beta=0.70
     Davidson diagonalization with overlap
     ethr =  1.00E-02,  avg # of iterations =  2.0

     negative rho (up, down):  6.598E+00 0.000E+00

     total cpu time spent up to now is     5364.1 secs

     total energy              =  -12700.82454219 Ry
     Harris-Foulkes estimate   =  -12711.35121113 Ry
     estimated scf accuracy    <      63.49946148 Ry

     iteration # 14     ecut=    80.00 Ry     beta=0.70
     Davidson diagonalization with overlap
     ethr =  4.93E-03,  avg # of iterations =  1.0

     negative rho (up, down):  7.737E+00 0.000E+00

     total cpu time spent up to now is     5527.9 secs

     total energy              =  -12698.67424374 Ry
     Harris-Foulkes estimate   =  -12702.85806809 Ry
     estimated scf accuracy    <      36.92570897 Ry

     iteration # 15     ecut=    80.00 Ry     beta=0.70
     Davidson diagonalization with overlap
     ethr =  2.87E-03,  avg # of iterations =  1.8

     negative rho (up, down):  8.828E+00 0.000E+00

     total cpu time spent up to now is     5700.2 secs

     total energy              =  -12695.50243214 Ry
     Harris-Foulkes estimate   =  -12700.17615036 Ry
     estimated scf accuracy    <      31.97613454 Ry

     iteration # 16     ecut=    80.00 Ry     beta=0.70
     Davidson diagonalization with overlap
     ethr =  2.48E-03,  avg # of iterations =  2.0

     negative rho (up, down):  7.195E+00 0.000E+00

     total cpu time spent up to now is     5877.5 secs

     total energy              =  -12695.77511713 Ry
     Harris-Foulkes estimate   =  -12697.64760622 Ry
     estimated scf accuracy    <      20.38571711 Ry

     iteration # 17     ecut=    80.00 Ry     beta=0.70
     Davidson diagonalization with overlap
     ethr =  1.58E-03,  avg # of iterations =  1.0

     negative rho (up, down):  5.263E+00 0.000E+00

     total cpu time spent up to now is     6041.6 secs

     total energy              =  -12694.31025330 Ry
     Harris-Foulkes estimate   =  -12696.24406687 Ry
     estimated scf accuracy    <      14.66388436 Ry

     iteration # 18     ecut=    80.00 Ry     beta=0.70
     Davidson diagonalization with overlap
     ethr =  1.14E-03,  avg # of iterations =  1.3

     negative rho (up, down):  2.293E+00 0.000E+00

     total cpu time spent up to now is     6209.4 secs

     total energy              =  -12691.48230605 Ry
     Harris-Foulkes estimate   =  -12694.55050708 Ry
     estimated scf accuracy    <      10.96996273 Ry

     iteration # 19     ecut=    80.00 Ry     beta=0.70
     Davidson diagonalization with overlap
     ethr =  8.52E-04,  avg # of iterations =  7.8

     negative rho (up, down):  1.422E+00 0.000E+00

     total cpu time spent up to now is     6456.4 secs

     total energy              =  -12691.26319770 Ry
     Harris-Foulkes estimate   =  -12692.21847830 Ry
     estimated scf accuracy    <      27.27879109 Ry

     iteration # 20     ecut=    80.00 Ry     beta=0.70
     Davidson diagonalization with overlap
     ethr =  8.52E-04,  avg # of iterations =  2.5

     negative rho (up, down):  1.468E+00 0.000E+00

     total cpu time spent up to now is     6636.8 secs

     total energy              =  -12691.42612251 Ry
     Harris-Foulkes estimate   =  -12691.85098479 Ry
     estimated scf accuracy    <      10.01541249 Ry

     iteration # 21     ecut=    80.00 Ry     beta=0.70
     Davidson diagonalization with overlap
     ethr =  7.78E-04,  avg # of iterations =  1.0

     negative rho (up, down):  6.818E-01 0.000E+00

     total cpu time spent up to now is     6800.6 secs

     total energy              =  -12690.38423147 Ry
     Harris-Foulkes estimate   =  -12691.65852062 Ry
     estimated scf accuracy    <       7.56519340 Ry

     iteration # 22     ecut=    80.00 Ry     beta=0.70
     Davidson diagonalization with overlap
     ethr =  5.87E-04,  avg # of iterations =  6.2

     negative rho (up, down):  1.011E-01 0.000E+00

     total cpu time spent up to now is     7024.1 secs

     total energy              =  -12689.23663545 Ry
     Harris-Foulkes estimate   =  -12690.74856426 Ry
     estimated scf accuracy    <       8.32028033 Ry

     iteration # 23     ecut=    80.00 Ry     beta=0.70
     Davidson diagonalization with overlap
     ethr =  5.87E-04,  avg # of iterations =  2.2

     negative rho (up, down):  1.550E-01 0.000E+00

     total cpu time spent up to now is     7202.2 secs

     total energy              =  -12687.95805520 Ry
     Harris-Foulkes estimate   =  -12689.36421177 Ry
     estimated scf accuracy    <       7.77954906 Ry

     iteration # 24     ecut=    80.00 Ry     beta=0.70
     Davidson diagonalization with overlap
     ethr =  5.87E-04,  avg # of iterations =  1.0

     negative rho (up, down):  1.482E-01 0.000E+00

     total cpu time spent up to now is     7366.3 secs

     total energy              =  -12687.73728358 Ry
     Harris-Foulkes estimate   =  -12688.27741651 Ry
     estimated scf accuracy    <       4.25592083 Ry

     iteration # 25     ecut=    80.00 Ry     beta=0.70
     Davidson diagonalization with overlap
     ethr =  3.30E-04,  avg # of iterations =  4.7

     negative rho (up, down):  6.748E-01 0.000E+00

     total cpu time spent up to now is     7570.8 secs

     total energy              =  -12687.51451155 Ry
     Harris-Foulkes estimate   =  -12687.97344593 Ry
     estimated scf accuracy    <       2.88657981 Ry

     iteration # 26     ecut=    80.00 Ry     beta=0.70
     Davidson diagonalization with overlap
     ethr =  2.24E-04,  avg # of iterations =  4.2

     negative rho (up, down):  4.375E-01 0.000E+00

     total cpu time spent up to now is     7771.2 secs

     total energy              =  -12687.21013886 Ry
     Harris-Foulkes estimate   =  -12687.58712756 Ry
     estimated scf accuracy    <       1.65764020 Ry

     iteration # 27     ecut=    80.00 Ry     beta=0.70
     Davidson diagonalization with overlap
     ethr =  1.29E-04,  avg # of iterations =  7.8

     negative rho (up, down):  2.615E-01 0.000E+00

     total cpu time spent up to now is     8022.1 secs

     total energy              =  -12686.99472476 Ry
     Harris-Foulkes estimate   =  -12687.25061426 Ry
     estimated scf accuracy    <       1.28696401 Ry

     iteration # 28     ecut=    80.00 Ry     beta=0.70
     Davidson diagonalization with overlap
     ethr =  9.99E-05,  avg # of iterations =  7.3

     negative rho (up, down):  1.578E-01 0.000E+00

     total cpu time spent up to now is     8289.4 secs

     total energy              =  -12687.00597024 Ry
     Harris-Foulkes estimate   =  -12687.06010093 Ry
     estimated scf accuracy    <       0.96626469 Ry

     iteration # 29     ecut=    80.00 Ry     beta=0.70
     Davidson diagonalization with overlap
     ethr =  7.50E-05,  avg # of iterations =  8.8

     negative rho (up, down):  1.472E-01 0.000E+00

     total cpu time spent up to now is     8552.2 secs

     total energy              =  -12687.01418782 Ry
     Harris-Foulkes estimate   =  -12687.03713821 Ry
     estimated scf accuracy    <       0.49029471 Ry

     iteration # 30     ecut=    80.00 Ry     beta=0.70
     Davidson diagonalization with overlap
     ethr =  3.81E-05,  avg # of iterations =  2.0

     negative rho (up, down):  1.270E-01 0.000E+00

     total cpu time spent up to now is     8728.7 secs

     total energy              =  -12686.99665617 Ry
     Harris-Foulkes estimate   =  -12687.02063957 Ry
     estimated scf accuracy    <       0.28387490 Ry

     iteration # 31     ecut=    80.00 Ry     beta=0.70
     Davidson diagonalization with overlap
     ethr =  2.20E-05,  avg # of iterations =  7.5

     negative rho (up, down):  5.022E-02 0.000E+00

     total cpu time spent up to now is     8976.5 secs

     total energy              =  -12686.97352388 Ry
     Harris-Foulkes estimate   =  -12687.00221174 Ry
     estimated scf accuracy    <       0.18106895 Ry

     iteration # 32     ecut=    80.00 Ry     beta=0.70
     Davidson diagonalization with overlap
     ethr =  1.41E-05,  avg # of iterations =  7.5

     negative rho (up, down):  3.117E-02 0.000E+00

     total cpu time spent up to now is     9230.0 secs

     total energy              =  -12686.98057594 Ry
     Harris-Foulkes estimate   =  -12686.98425753 Ry
     estimated scf accuracy    <       0.03527402 Ry

     iteration # 33     ecut=    80.00 Ry     beta=0.70
     Davidson diagonalization with overlap
     c_bands:  1 eigenvalues not converged
     ethr =  2.74E-06,  avg # of iterations = 12.2

     negative rho (up, down):  2.499E-02 0.000E+00

     total cpu time spent up to now is     9557.3 secs

     total energy              =  -12686.98234211 Ry
     Harris-Foulkes estimate   =  -12686.98346790 Ry
     estimated scf accuracy    <       0.00451931 Ry

     iteration # 34     ecut=    80.00 Ry     beta=0.70
     Davidson diagonalization with overlap
     ethr =  3.51E-07,  avg # of iterations =  8.7

     negative rho (up, down):  1.575E-02 0.000E+00

     total cpu time spent up to now is     9856.5 secs

     total energy              =  -12686.98256403 Ry
     Harris-Foulkes estimate   =  -12686.98337370 Ry
     estimated scf accuracy    <       0.00499761 Ry

     iteration # 35     ecut=    80.00 Ry     beta=0.70
     Davidson diagonalization with overlap
     c_bands:  1 eigenvalues not converged
     ethr =  3.51E-07,  avg # of iterations =  9.2

     negative rho (up, down):  1.115E-02 0.000E+00

     total cpu time spent up to now is    10127.2 secs

     total energy              =  -12686.98275298 Ry
     Harris-Foulkes estimate   =  -12686.98289047 Ry
     estimated scf accuracy    <       0.00026012 Ry

     iteration # 36     ecut=    80.00 Ry     beta=0.70
     Davidson diagonalization with overlap
     ethr =  2.02E-08,  avg # of iterations =  6.8

     negative rho (up, down):  4.883E-03 0.000E+00

     total cpu time spent up to now is    10388.7 secs

     total energy              =  -12686.98267760 Ry
     Harris-Foulkes estimate   =  -12686.98279219 Ry
     estimated scf accuracy    <       0.00007093 Ry

     iteration # 37     ecut=    80.00 Ry     beta=0.70
     Davidson diagonalization with overlap
     c_bands:  2 eigenvalues not converged
     c_bands:  2 eigenvalues not converged
     ethr =  5.51E-09,  avg # of iterations = 13.3

     negative rho (up, down):  3.414E-03 0.000E+00

     total cpu time spent up to now is    10711.7 secs

     total energy              =  -12686.98266347 Ry
     Harris-Foulkes estimate   =  -12686.98268300 Ry
     estimated scf accuracy    <       0.00003013 Ry

     iteration # 38     ecut=    80.00 Ry     beta=0.70
     Davidson diagonalization with overlap
     ethr =  2.34E-09,  avg # of iterations =  5.7

     negative rho (up, down):  2.353E-03 0.000E+00

     total cpu time spent up to now is    10933.2 secs

     total energy              =  -12686.98265893 Ry
     Harris-Foulkes estimate   =  -12686.98266483 Ry
     estimated scf accuracy    <       0.00000478 Ry

     iteration # 39     ecut=    80.00 Ry     beta=0.70
     Davidson diagonalization with overlap
     ethr =  3.71E-10,  avg # of iterations =  3.2

     negative rho (up, down):  2.050E-03 0.000E+00

     total cpu time spent up to now is    11131.2 secs

     total energy              =  -12686.98265891 Ry
     Harris-Foulkes estimate   =  -12686.98265948 Ry
     estimated scf accuracy    <       0.00000224 Ry

     iteration # 40     ecut=    80.00 Ry     beta=0.70
     Davidson diagonalization with overlap
     ethr =  1.74E-10,  avg # of iterations =  2.3

     negative rho (up, down):  2.015E-03 0.000E+00

     total cpu time spent up to now is    11316.5 secs

     total energy              =  -12686.98265926 Ry
     Harris-Foulkes estimate   =  -12686.98265911 Ry
     estimated scf accuracy    <       0.00000062 Ry

     iteration # 41     ecut=    80.00 Ry     beta=0.70
     Davidson diagonalization with overlap
     ethr =  4.83E-11,  avg # of iterations =  2.5

     negative rho (up, down):  2.022E-03 0.000E+00

     total cpu time spent up to now is    11510.6 secs

     total energy              =  -12686.98265938 Ry
     Harris-Foulkes estimate   =  -12686.98265934 Ry
     estimated scf accuracy    <       0.00000040 Ry

     iteration # 42     ecut=    80.00 Ry     beta=0.70
     Davidson diagonalization with overlap
     ethr =  3.12E-11,  avg # of iterations =  2.0

     negative rho (up, down):  2.062E-03 0.000E+00

     total cpu time spent up to now is    11691.2 secs

     total energy              =  -12686.98265951 Ry
     Harris-Foulkes estimate   =  -12686.98265941 Ry
     estimated scf accuracy    <       0.00000019 Ry

     iteration # 43     ecut=    80.00 Ry     beta=0.70
     Davidson diagonalization with overlap
     ethr =  1.47E-11,  avg # of iterations =  2.0

     negative rho (up, down):  2.034E-03 0.000E+00

     total cpu time spent up to now is    11874.0 secs

     total energy              =  -12686.98265955 Ry
     Harris-Foulkes estimate   =  -12686.98265952 Ry
     estimated scf accuracy    <       0.00000006 Ry

     iteration # 44     ecut=    80.00 Ry     beta=0.70
     Davidson diagonalization with overlap
     ethr =  4.84E-12,  avg # of iterations =  2.0

     negative rho (up, down):  1.990E-03 0.000E+00

     total cpu time spent up to now is    12057.3 secs

     total energy              =  -12686.98265959 Ry
     Harris-Foulkes estimate   =  -12686.98265956 Ry
     estimated scf accuracy    <       0.00000002 Ry

     iteration # 45     ecut=    80.00 Ry     beta=0.70
     Davidson diagonalization with overlap
     ethr =  1.83E-12,  avg # of iterations =  3.0

     negative rho (up, down):  1.968E-03 0.000E+00

     total cpu time spent up to now is    12246.6 secs

     End of self-consistent calculation

          k = 0.0000 0.0000 0.0000 (256287 PWs)   bands (ev):

   -15.9649 -15.6624 -15.4915 -14.5262 -14.4566 -14.0064 -13.9504 -13.7126
   -13.6986 -13.5686 -13.3383 -12.7475 -12.7330 -12.6177 -12.5515 -12.5072
   -11.9280 -10.9318 -10.8818 -10.8267 -10.8005 -10.2084  -9.5928  -9.0105
    -8.9972  -8.9866  -8.6112  -8.1684  -8.1634  -7.9864  -7.6749  -7.2201
    -7.1647  -7.1308  -7.0974  -7.0789  -6.7617  -6.7536  -6.2110  -5.7270
    -5.5956  -5.5866  -5.5356  -5.4432  -5.3424  -5.1929  -5.1881  -5.0867
    -5.0272  -4.8508  -4.7359  -4.3596  -4.3201  -4.2519  -4.2314  -4.0665
    -3.9164  -3.8054  -3.6926  -3.6915  -3.6731  -3.3404  -3.1580  -3.1499
    -3.1192  -3.1091  -3.0248  -3.0191  -2.9730  -2.9109  -2.8790  -2.8433
    -2.7906  -2.7196  -2.7174  -2.7124  -2.7007  -2.6356  -2.6051  -2.5619
    -2.5455  -2.5199  -2.4730  -2.4306  -2.3909  -2.3182  -2.2941  -2.2656
    -2.2302  -2.1048  -2.0990  -2.0541  -2.0042  -1.9766  -1.9721  -1.9059
    -1.8998  -1.8663  -1.8649  -1.8619  -1.8611  -1.8503  -1.8296  -1.7495
    -1.7455  -1.7366  -1.7244  -1.7023  -1.7010  -1.6783  -1.6613  -1.5902
    -1.5585  -1.5309  -1.4956  -1.4736  -1.4610  -1.4576  -1.4503  -1.4384
    -1.4119  -1.4028  -1.3766  -1.3717  -1.3578  -1.3355  -1.3143  -1.2988
    -1.2855  -1.2750  -1.2524  -1.2497  -1.2475  -1.2294  -1.2266  -1.2124
    -1.1980  -1.1495  -1.1480  -1.1368  -1.1289  -1.1004  -1.0963  -1.0619
    -1.0240  -1.0214  -0.9916  -0.9862  -0.9642  -0.9447  -0.9275  -0.9233
    -0.9163  -0.9090  -0.8908  -0.8875  -0.8808  -0.8526  -0.8397  -0.8219
    -0.8121  -0.7766  -0.7659  -0.7619  -0.7587  -0.7555  -0.7515  -0.7482
    -0.7455  -0.7379  -0.7342  -0.7234  -0.7154  -0.7029  -0.7008  -0.6865
    -0.6739  -0.6706  -0.6626  -0.6577  -0.6429  -0.6311  -0.6288  -0.6195
    -0.6135  -0.5894  -0.5882  -0.5855  -0.5833  -0.5799  -0.5778  -0.5763
    -0.5724  -0.5701  -0.5656  -0.5602  -0.5552  -0.5551  -0.5521  -0.5388
    -0.5164  -0.5115  -0.5025  -0.4856  -0.4308  -0.4296  -0.4139  -0.4046
    -0.3995  -0.3993  -0.3980  -0.3749  -0.3664  -0.3551  -0.3472  -0.3439
    -0.3359  -0.3306  -0.3270  -0.3196  -0.3134  -0.3134  -0.2902  -0.2895
    -0.2870  -0.2838  -0.2737  -0.2691  -0.2622  -0.2604  -0.2200  -0.2103
    -0.1892  -0.1884  -0.1730  -0.1705  -0.1575  -0.1555  -0.1550  -0.1427
    -0.1402  -0.1395  -0.1335  -0.1329  -0.1249  -0.1186  -0.1151  -0.1125
    -0.1115  -0.1105  -0.0989  -0.0935  -0.0932  -0.0815  -0.0704  -0.0685
    -0.0404  -0.0327  -0.0291  -0.0264   0.0011   0.0043   0.0044   0.0073
     0.0093   0.0163   0.0200   0.0219   0.0282   0.0326   0.0373   0.0463
     0.0466   0.0493   0.0531   0.0554   0.0627   0.0640   0.0685   0.0770
     0.0783   0.0829   0.0939   0.1081   0.1176   0.1295   0.1401   0.1419
     0.1470   0.1474   0.1670   0.1762   0.1938   0.1960   0.2045   0.2050
     0.2103   0.2126   0.2156   0.2190   0.2258   0.2381   0.2429   0.2463
     0.2544   0.2621   0.2625   0.2691   0.2698   0.2780   0.2822   0.2825
     0.2922   0.3028   0.3075   0.3146   0.3170   0.3172   0.3200   0.3289
     0.3294   0.3369   0.3419   0.3560   0.3564   0.3620   0.3641   0.3693
     0.3739   0.3934   0.3973   0.4046   0.4128   0.4347   0.4363   0.4519
     0.4542   0.4549   0.4870   0.4944   0.4947   0.5012   0.5178   0.5198
     0.5267   0.5286   0.5364   0.5393   0.5429   0.5473   0.5541   0.5616
     0.5909   0.5929   0.6012   0.6110   0.6200   0.6214   0.6221   0.6333
     0.6384   0.6467   0.6549   0.6572   0.6573   0.6621   0.6685   0.6819
     0.6841   0.6891   0.7049   0.7134   0.7172   0.7216   0.7251   0.7427
     0.7480   0.7511   0.7548   0.7558   0.7596   0.7727   0.7736   0.7776
     0.7777   0.7854   0.7887   0.7928   0.7944   0.8016   0.8057   0.8062
     0.8145   0.8176   0.8178   0.8269   0.8391   0.8407   0.8426   0.8496
     0.8577   0.8704   0.8709   0.8789   0.8903   0.8960   0.9035   0.9058
     0.9099   0.9140   0.9189   0.9209   0.9284   0.9293   0.9336   0.9403
     0.9424   0.9457   0.9491   0.9538   0.9560   0.9608   0.9723   0.9782
     0.9796   0.9820   0.9879   0.9917   0.9953   0.9995   0.9996   1.0017
     1.0031   1.0051   1.0131   1.0268   1.0299   1.0522   1.0608   1.0657
     1.0713   1.0748   1.0778   1.0800   1.0818   1.0856   1.0913   1.1000
     1.1027   1.1141   1.1217   1.1263   1.1310   1.1343   1.1398   1.1432
     1.1466   1.1527   1.1594   1.1638   1.1694   1.1741   1.1743   1.1916
     1.2007   1.2044   1.2048   1.2102   1.2140   1.2178   1.2209   1.2271
     1.2307   1.2404   1.2470   1.2511   1.2558   1.2600   1.2611   1.2699
     1.2712   1.2743   1.2785   1.2791   1.2809   1.2865   1.2891   1.2958
     1.2977   1.3010   1.3043   1.3128   1.3191   1.3210   1.3280   1.3297
     1.3344   1.3414   1.3444   1.3563   1.3608   1.3660   1.3672   1.3708
     1.3716   1.3724   1.3732   1.3742   1.3796   1.3888   1.3917   1.3924
     1.3953   1.4186   1.4251   1.4282   1.4311   1.4453   1.4496   1.4522
     1.4562   1.4574   1.4605   1.4681   1.4733   1.4816   1.4818   1.4880
     1.4911   1.4968   1.5058   1.5079   1.5086   1.5109   1.5114   1.5188
     1.5203   1.5223   1.5258   1.5298   1.5360   1.5410   1.5416   1.5433
     1.5526   1.5536   1.5539   1.5582   1.5608   1.5640   1.5657   1.5664
     1.5703   1.5717   1.5730   1.5812   1.5928   1.6031   1.6084   1.6109
     1.6150   1.6271   1.6284   1.6314   1.6339   1.6363   1.6380   1.6390
     1.6426   1.6533   1.6584   1.6600   1.6671   1.6756   1.6773   1.6789
     1.6820   1.6865   1.6868   1.6894   1.6924   1.6952   1.6975   1.7035
     1.7058   1.7074   1.7103   1.7143   1.7146   1.7232   1.7285   1.7295
     1.7338   1.7373   1.7510   1.7611   1.7740   1.7842   1.7892   1.8028
     1.8035   1.8143   1.8213   1.8328   1.8394   1.8407   1.8520   1.8522
     1.8717   1.8788   1.8871   1.8900   1.8933   1.8957   1.9011   1.9110
     1.9145   2.0984   2.1940   2.2086   2.3664   2.3776   2.4099   2.4524
     2.4531   2.4654   2.4700   2.4727   2.4768   2.4926   2.5064   2.5136
     2.6266   2.6621   2.6896   2.7086   2.7187   2.7238   2.7478   2.8073
     2.8764   2.9618   2.9754   3.0242   3.3274   3.3402   3.4524   3.4732
     3.6911   3.7720   3.7769   3.8288   4.0127   4.0655   4.1008   4.1084
     4.1234   4.1749   4.2011   4.2149   4.2288   4.2370   4.2589   4.2616
     4.2728   4.2841   4.3454   4.3887   4.4433   4.4983   4.5188   4.6448
     4.8484   4.8801   4.8975   5.1100   5.2783   5.2893   5.3840   5.5389
     5.6212   5.6918   5.7832   5.8793   5.9497   5.9768   5.9914   6.2096
     6.2206   6.2267   6.5638   6.6146   6.6618   6.6674   6.6994   6.7251
     6.7635   6.7962   6.8826   6.8963   6.9571   6.9667   7.0049   7.0320
     7.0627   7.1018   7.1564   7.2653   7.2784   7.2991   7.3269   7.3291
     7.3947   7.4694   7.6110   7.7037   7.8044   7.8703   7.8889   7.9067
     7.9209   7.9399   7.9464   7.9716   7.9753   8.0283   8.3618   8.3797
     8.4467   8.4557   8.4692   8.5470   8.5778   8.5821   8.5976   8.6239
     8.6287   8.6749   8.6873   8.7373   8.7540   8.7957   8.8041   8.8413
     8.9024   8.9070   8.9310   9.0048   9.0701   9.0767   9.0908   9.1332
     9.2553   9.2609   9.2883   9.3098   9.3427   9.3565   9.3736   9.3933
     9.4080   9.4528   9.5348   9.5353   9.6000   9.7161   9.8312   9.9428
     9.9507  10.0101  10.0474  10.1143  10.2174

          k = 0.0000-0.2165 0.0000 (256176 PWs)   bands (ev):

   -15.9144 -15.8209 -15.1732 -15.0520 -13.9536 -13.9473 -13.8789 -13.8516
   -13.6919 -13.5857 -13.2311 -13.2300 -13.1292 -12.7113 -11.8406 -11.8174
   -11.7365 -11.7335 -11.5778 -10.9620  -9.9740  -9.8943  -9.8090  -9.4685
    -8.6751  -8.6250  -8.4894  -8.4410  -8.4365  -8.0486  -7.6915  -7.6851
    -7.5270  -7.0190  -6.5485  -6.4999  -6.4460  -6.4454  -6.3638  -6.1842
    -6.0336  -5.8517  -5.6146  -5.5750  -5.4703  -5.1688  -4.7887  -4.7755
    -4.6851  -4.6419  -4.6270  -4.5446  -4.5431  -4.2958  -4.1716  -4.1644
    -4.0857  -3.9546  -3.9302  -3.7444  -3.6925  -3.3769  -3.2691  -3.2218
    -3.0348  -3.0321  -2.9995  -2.9649  -2.8916  -2.8071  -2.7992  -2.7509
    -2.7416  -2.7306  -2.6859  -2.6470  -2.6093  -2.6011  -2.5135  -2.4820
    -2.4130  -2.4010  -2.3105  -2.3034  -2.2996  -2.2937  -2.2865  -2.2733
    -2.2550  -2.2353  -2.1967  -2.1729  -2.1164  -2.0854  -1.9785  -1.9691
    -1.9508  -1.9375  -1.9233  -1.8838  -1.8832  -1.8619  -1.8553  -1.8208
    -1.8193  -1.8007  -1.6959  -1.6953  -1.6726  -1.6711  -1.6135  -1.6028
    -1.5593  -1.5347  -1.5345  -1.5039  -1.4831  -1.4739  -1.4704  -1.4555
    -1.4545  -1.4452  -1.4412  -1.4339  -1.3945  -1.3763  -1.3608  -1.3453
    -1.3297  -1.2598  -1.2279  -1.1951  -1.1950  -1.1764  -1.1701  -1.1430
    -1.1192  -1.1047  -1.1042  -1.0890  -1.0586  -1.0491  -1.0088  -1.0029
    -1.0003  -0.9983  -0.9926  -0.9879  -0.9812  -0.9757  -0.9686  -0.9628
    -0.9574  -0.9432  -0.9387  -0.9280  -0.9166  -0.9100  -0.8858  -0.8738
    -0.8576  -0.8516  -0.8444  -0.8188  -0.8068  -0.8042  -0.7705  -0.7663
    -0.7633  -0.7617  -0.7610  -0.7467  -0.7187  -0.7173  -0.7172  -0.6980
    -0.6876  -0.6838  -0.6649  -0.6570  -0.6406  -0.6335  -0.6324  -0.6314
    -0.6280  -0.6277  -0.6199  -0.5952  -0.5841  -0.5781  -0.5627  -0.5607
    -0.5576  -0.5451  -0.5424  -0.5306  -0.5289  -0.5090  -0.4998  -0.4886
    -0.4775  -0.4700  -0.4683  -0.4639  -0.4565  -0.4265  -0.3897  -0.3877
    -0.3667  -0.3505  -0.3472  -0.3468  -0.3368  -0.3354  -0.3328  -0.3303
    -0.3187  -0.3172  -0.3158  -0.3089  -0.2967  -0.2861  -0.2820  -0.2754
    -0.2634  -0.2586  -0.2557  -0.2414  -0.2409  -0.2284  -0.2283  -0.2277
    -0.2277  -0.1951  -0.1917  -0.1792  -0.1790  -0.1777  -0.1744  -0.1683
    -0.1638  -0.1538  -0.1498  -0.1479  -0.1276  -0.1170  -0.0967  -0.0945
    -0.0828  -0.0671  -0.0610  -0.0519  -0.0485  -0.0333  -0.0324  -0.0306
    -0.0243  -0.0235  -0.0128  -0.0087  -0.0036  -0.0006   0.0060   0.0092
     0.0167   0.0177   0.0208   0.0214   0.0251   0.0298   0.0390   0.0534
     0.0562   0.0600   0.0641   0.0738   0.0817   0.0837   0.0910   0.1012
     0.1116   0.1208   0.1225   0.1295   0.1336   0.1367   0.1428   0.1505
     0.1527   0.1603   0.1653   0.1707   0.1797   0.1831   0.1851   0.1870
     0.1979   0.1980   0.2013   0.2172   0.2264   0.2351   0.2442   0.2502
     0.2520   0.2543   0.2660   0.2709   0.2714   0.2754   0.2780   0.2785
     0.2832   0.2945   0.2997   0.3106   0.3156   0.3219   0.3298   0.3308
     0.3333   0.3365   0.3421   0.3506   0.3592   0.3603   0.3646   0.3695
     0.3760   0.3853   0.3935   0.3966   0.4034   0.4064   0.4132   0.4172
     0.4467   0.4470   0.4500   0.4504   0.4532   0.4639   0.4765   0.4786
     0.4927   0.4950   0.5070   0.5211   0.5448   0.5466   0.5484   0.5629
     0.5860   0.6041   0.6344   0.6364   0.6454   0.6516   0.6644   0.6654
     0.6679   0.6692   0.6728   0.6894   0.6924   0.6958   0.7010   0.7052
     0.7072   0.7113   0.7141   0.7182   0.7213   0.7311   0.7316   0.7398
     0.7423   0.7475   0.7532   0.7581   0.7623   0.7672   0.7702   0.7766
     0.7771   0.7798   0.7856   0.7876   0.7878   0.7960   0.7985   0.8062
     0.8093   0.8133   0.8145   0.8191   0.8267   0.8312   0.8342   0.8350
     0.8386   0.8416   0.8438   0.8460   0.8497   0.8568   0.8659   0.8841
     0.8938   0.9029   0.9070   0.9076   0.9137   0.9175   0.9190   0.9222
     0.9252   0.9316   0.9338   0.9346   0.9375   0.9398   0.9416   0.9542
     0.9786   0.9842   0.9852   0.9873   0.9903   0.9980   0.9992   1.0028
     1.0050   1.0107   1.0126   1.0171   1.0233   1.0271   1.0301   1.0335
     1.0472   1.0631   1.0737   1.0819   1.0839   1.0910   1.1057   1.1216
     1.1408   1.1443   1.1490   1.1599   1.1640   1.1657   1.1687   1.1687
     1.1705   1.1750   1.1767   1.1820   1.1854   1.1888   1.1916   1.1978
     1.2016   1.2056   1.2076   1.2151   1.2170   1.2182   1.2185   1.2221
     1.2239   1.2266   1.2288   1.2320   1.2392   1.2410   1.2416   1.2445
     1.2448   1.2579   1.2588   1.2603   1.2640   1.2672   1.2698   1.2725
     1.2742   1.2804   1.2815   1.2893   1.2925   1.2965   1.2988   1.3041
     1.3172   1.3172   1.3285   1.3414   1.3617   1.3741   1.3799   1.3821
     1.3847   1.3876   1.3937   1.3970   1.4020   1.4056   1.4115   1.4167
     1.4191   1.4304   1.4344   1.4383   1.4477   1.4489   1.4518   1.4534
     1.4537   1.4554   1.4569   1.4581   1.4649   1.4657   1.4704   1.4747
     1.4765   1.4767   1.4795   1.4829   1.4900   1.4991   1.5000   1.5034
     1.5100   1.5146   1.5161   1.5216   1.5258   1.5282   1.5313   1.5408
     1.5429   1.5490   1.5525   1.5555   1.5618   1.5642   1.5655   1.5655
     1.5688   1.5787   1.5800   1.5864   1.5880   1.5903   1.5979   1.6024
     1.6029   1.6098   1.6138   1.6230   1.6261   1.6389   1.6397   1.6410
     1.6432   1.6500   1.6527   1.6551   1.6648   1.6676   1.6748   1.6775
     1.6822   1.6831   1.6948   1.6962   1.7000   1.7040   1.7052   1.7073
     1.7081   1.7116   1.7214   1.7311   1.7408   1.7410   1.7458   1.7636
     1.7673   1.7683   1.7727   1.7739   1.7758   1.7827   1.7847   1.7946
     1.8082   1.8259   1.8415   1.8424   1.8435   1.8490   1.9112   1.9429
     1.9497   1.9655   1.9788   1.9951   2.0031   2.0112   2.0257   2.0441
     2.0449   2.0524   2.0603   2.0704   2.0731   2.1043   2.1061   2.1483
     2.3717   2.4872   2.5684   2.6561   2.6683   2.6725   2.6949   2.7431
     2.7658   2.7960   2.8018   2.8279   2.8286   2.8646   2.8991   2.9293
     2.9563   2.9646   3.0167   3.0261   3.0600   3.1707   3.1770   3.2371
     3.2692   3.4152   3.4153   3.4599   3.6266   3.7564   3.7800   3.8929
     3.9493   4.0841   4.2909   4.3102   4.3330   4.3525   4.4326   4.4629
     4.5225   4.5883   4.6140   4.6361   4.7405   4.7961   4.8849   4.9310
     4.9481   4.9636   5.0029   5.3081   5.3660   5.3715   5.4432   5.5430
     5.5997   5.6282   5.6580   5.6789   5.7102   5.7683   5.9142   6.0302
     6.0797   6.1582   6.1603   6.6249   6.6390   6.6644   6.6648   6.7504
     6.7709   6.7800   6.7831   6.9185   6.9639   7.0457   7.0464   7.1347
     7.2390   7.3119   7.3161   7.3381   7.3513   7.3609   7.3726   7.3898
     7.3956   7.4498   7.4883   7.5462   7.5481   7.6022   7.6291   7.6875
     7.7673   7.8158   7.9266   7.9433   8.0030   8.0579   8.0748   8.3131
     8.3950   8.4071   8.5226   8.5280   8.6019   8.6346   8.6524   8.6632
     8.6682   8.7912   8.8096   8.8605   8.8850   8.8955   8.9296   8.9477
     8.9688   8.9722   8.9986   9.0743   9.1129   9.1146   9.1733   9.2245
     9.2361   9.2676   9.3387   9.3565   9.3775   9.4217   9.4715   9.6186
     9.6385   9.6629   9.7078   9.7133   9.7221   9.7983   9.8263   9.8701
     9.8744   9.9295  10.0278  10.0615  10.1745

          k = 0.2500 0.0000 0.0000 (256240 PWs)   bands (ev):

   -15.8452 -15.5396 -15.3949 -14.8312 -14.5621 -14.4743 -14.3832 -14.1035
   -13.4290 -13.2486 -12.9010 -12.6456 -12.5938 -12.5760 -12.2347 -11.6795
   -11.5732 -11.5453 -11.1672 -10.5202 -10.2814 -10.2351 -10.0039  -9.6469
    -9.4180  -9.2381  -9.0682  -8.7127  -8.6342  -8.2661  -7.8154  -7.1582
    -7.0661  -7.0260  -6.9695  -6.8989  -6.3792  -6.1562  -6.0974  -5.5658
    -5.5522  -5.5407  -5.4066  -5.2506  -5.0196  -5.0190  -4.9044  -4.7146
    -4.5970  -4.5236  -4.2661  -4.2029  -4.1732  -4.1124  -4.0954  -3.9413
    -3.9089  -3.8034  -3.7083  -3.7012  -3.6874  -3.5689  -3.5444  -3.5430
    -3.3930  -3.3879  -3.3278  -3.1970  -3.1859  -3.1630  -3.0963  -3.0898
    -3.0263  -2.9800  -2.9750  -2.9149  -2.8575  -2.7491  -2.7283  -2.6916
    -2.6216  -2.5195  -2.5048  -2.4835  -2.4731  -2.4526  -2.3565  -2.3544
    -2.2818  -2.2725  -2.1171  -2.1046  -2.0533  -2.0397  -1.9795  -1.8153
    -1.8107  -1.8058  -1.7900  -1.7715  -1.7313  -1.7193  -1.6939  -1.6247
    -1.6119  -1.5949  -1.5538  -1.5292  -1.5168  -1.5144  -1.5070  -1.4991
    -1.4916  -1.4749  -1.4675  -1.4430  -1.4324  -1.4202  -1.3703  -1.3664
    -1.3490  -1.3300  -1.3229  -1.3098  -1.3028  -1.2952  -1.2890  -1.2812
    -1.2617  -1.2563  -1.2482  -1.2298  -1.2171  -1.2143  -1.1950  -1.1582
    -1.1022  -1.0571  -1.0560  -1.0314  -1.0232  -1.0004  -0.9800  -0.9747
    -0.9674  -0.9655  -0.9583  -0.9465  -0.9400  -0.9302  -0.9113  -0.9049
    -0.8983  -0.8893  -0.8862  -0.8853  -0.8657  -0.8608  -0.8552  -0.8504
    -0.8436  -0.8350  -0.8344  -0.8264  -0.8145  -0.8049  -0.7852  -0.7810
    -0.7691  -0.7669  -0.7628  -0.7542  -0.7406  -0.7340  -0.7301  -0.7248
    -0.7238  -0.7192  -0.7184  -0.7109  -0.7068  -0.7031  -0.6985  -0.6899
    -0.6862  -0.6756  -0.6649  -0.6511  -0.6463  -0.6332  -0.6181  -0.6170
    -0.6069  -0.5906  -0.5831  -0.5673  -0.5501  -0.5417  -0.5267  -0.5233
    -0.5143  -0.5045  -0.5003  -0.4962  -0.4898  -0.4882  -0.4825  -0.4750
    -0.4548  -0.4483  -0.4402  -0.4202  -0.4081  -0.3597  -0.3402  -0.3293
    -0.3138  -0.3035  -0.3012  -0.2940  -0.2824  -0.2814  -0.2718  -0.2706
    -0.2657  -0.2612  -0.2544  -0.2533  -0.2408  -0.2322  -0.2290  -0.2165
    -0.2124  -0.2109  -0.2050  -0.1977  -0.1930  -0.1864  -0.1860  -0.1721
    -0.1577  -0.1357  -0.1316  -0.1250  -0.1223  -0.1139  -0.1108  -0.1002
    -0.0937  -0.0894  -0.0885  -0.0828  -0.0752  -0.0695  -0.0622  -0.0478
    -0.0340  -0.0269  -0.0225  -0.0132  -0.0103  -0.0079  -0.0024   0.0057
     0.0117   0.0184   0.0215   0.0296   0.0367   0.0425   0.0456   0.0519
     0.0626   0.0694   0.0758   0.0814   0.0844   0.0881   0.0951   0.1000
     0.1132   0.1193   0.1219   0.1231   0.1463   0.1497   0.1532   0.1611
     0.1704   0.1891   0.1928   0.2013   0.2048   0.2183   0.2291   0.2312
     0.2348   0.2379   0.2423   0.2484   0.2528   0.2550   0.2579   0.2646
     0.2674   0.2693   0.2734   0.2759   0.2831   0.2888   0.2923   0.2985
     0.3008   0.3068   0.3112   0.3127   0.3290   0.3313   0.3425   0.3457
     0.3531   0.3687   0.3760   0.3822   0.3850   0.3867   0.3890   0.3969
     0.4016   0.4085   0.4122   0.4317   0.4429   0.4460   0.4563   0.4638
     0.4817   0.5017   0.5071   0.5128   0.5197   0.5238   0.5309   0.5335
     0.5381   0.5436   0.5469   0.5505   0.5555   0.5584   0.5632   0.5663
     0.5683   0.5732   0.5740   0.5800   0.5811   0.5843   0.5890   0.5964
     0.6009   0.6086   0.6191   0.6201   0.6339   0.6388   0.6465   0.6479
     0.6614   0.6728   0.6806   0.6865   0.6887   0.6993   0.7033   0.7060
     0.7121   0.7181   0.7279   0.7320   0.7348   0.7385   0.7489   0.7521
     0.7559   0.7569   0.7589   0.7611   0.7765   0.7793   0.7860   0.7916
     0.7980   0.8034   0.8050   0.8088   0.8144   0.8193   0.8224   0.8273
     0.8373   0.8384   0.8409   0.8495   0.8527   0.8559   0.8620   0.8641
     0.8709   0.8724   0.8836   0.8901   0.8916   0.9041   0.9060   0.9076
     0.9174   0.9189   0.9262   0.9286   0.9346   0.9532   0.9593   0.9634
     0.9717   0.9733   0.9749   0.9935   0.9994   1.0039   1.0063   1.0068
     1.0115   1.0260   1.0298   1.0338   1.0349   1.0396   1.0433   1.0622
     1.0642   1.0654   1.0677   1.0763   1.0818   1.0969   1.1013   1.1052
     1.1163   1.1199   1.1232   1.1263   1.1308   1.1357   1.1420   1.1437
     1.1457   1.1472   1.1547   1.1559   1.1615   1.1749   1.1812   1.1892
     1.1918   1.2038   1.2090   1.2143   1.2163   1.2233   1.2270   1.2325
     1.2373   1.2382   1.2493   1.2523   1.2541   1.2601   1.2618   1.2659
     1.2689   1.2707   1.2720   1.2746   1.2804   1.2839   1.2846   1.2876
     1.2899   1.2945   1.2964   1.3002   1.3085   1.3113   1.3149   1.3174
     1.3214   1.3228   1.3253   1.3290   1.3386   1.3403   1.3454   1.3510
     1.3565   1.3606   1.3624   1.3639   1.3695   1.3779   1.3806   1.3876
     1.3929   1.3977   1.4034   1.4097   1.4152   1.4236   1.4286   1.4337
     1.4377   1.4389   1.4444   1.4529   1.4594   1.4778   1.4812   1.4829
     1.4899   1.4934   1.4986   1.5027   1.5062   1.5087   1.5117   1.5149
     1.5214   1.5261   1.5274   1.5347   1.5376   1.5394   1.5439   1.5463
     1.5491   1.5519   1.5586   1.5640   1.5665   1.5701   1.5727   1.5772
     1.5793   1.5829   1.5871   1.5917   1.5941   1.5969   1.6027   1.6063
     1.6074   1.6106   1.6149   1.6153   1.6205   1.6269   1.6333   1.6361
     1.6409   1.6426   1.6507   1.6582   1.6675   1.6730   1.6761   1.6765
     1.6792   1.6809   1.6867   1.6887   1.6904   1.6932   1.6948   1.6960
     1.7080   1.7096   1.7164   1.7185   1.7214   1.7230   1.7235   1.7282
     1.7347   1.7384   1.7413   1.7456   1.7549   1.7559   1.7623   1.7627
     1.7792   1.7846   1.7948   1.7982   1.8128   1.8198   1.8304   1.8543
     1.8645   1.8730   1.8783   1.8834   1.9275   1.9517   1.9909   2.0074
     2.0249   2.0303   2.0387   2.0586   2.0888   2.0985   2.2608   2.2891
     2.3062   2.3299   2.3515   2.3660   2.4361   2.4638   2.5217   2.5368
     2.7786   2.8120   2.8150   2.8256   2.9663   3.2340   3.2367   3.2801
     3.3274   3.4324   3.4551   3.4775   3.4786   3.5433   3.5934   3.7254
     3.7449   3.7594   3.8343   3.8738   3.9027   3.9098   3.9639   3.9723
     4.0375   4.0778   4.1193   4.1791   4.1874   4.3307   4.4022   4.4752
     4.4875   4.5021   4.5456   4.5528   4.5958   4.8429   4.9010   5.0444
     5.0966   5.1393   5.2309   5.4052   5.4845   5.4929   5.5203   5.6281
     5.6375   5.7251   5.7396   5.7712   5.8085   5.8444   5.8845   5.9264
     5.9511   5.9774   6.0062   6.0463   6.0707   6.1474   6.2354   6.2745
     6.3139   6.3339   6.4271   6.5363   6.8303   6.9417   6.9445   6.9852
     7.0158   7.0352   7.0422   7.1696   7.2269   7.2722   7.2774   7.2899
     7.3470   7.3828   7.4939   7.5302   7.5378   7.5605   7.5851   7.6221
     7.7448   7.7711   7.8126   7.8142   7.9737   8.0074   8.0552   8.0637
     8.1093   8.1147   8.2472   8.2713   8.2950   8.3143   8.3785   8.4253
     8.4877   8.5153   8.5530   8.6061   8.6306   8.6378   8.6584   8.7092
     8.7837   8.8769   8.8978   8.9293   8.9341   9.1830   9.1953   9.2708
     9.3854   9.4072   9.4235   9.4285   9.4324   9.4453   9.4525   9.4561
     9.4829   9.4893   9.4920   9.5127   9.5385   9.5775   9.5907   9.6495
     9.7517   9.7613   9.8505   9.9459   9.9538

          k = 0.2500-0.2165 0.0000 (256316 PWs)   bands (ev):

   -15.7913 -15.7083 -15.0598 -14.9918 -14.7947 -14.5974 -14.0702 -13.8999
   -13.5654 -13.4142 -12.8703 -12.7754 -12.6103 -12.4159 -12.1640 -11.8966
   -11.5284 -11.2721 -10.8610 -10.6969 -10.6033 -10.3694 -10.2101  -9.7493
    -9.1676  -8.9702  -8.7104  -8.5644  -8.5114  -8.2661  -7.9681  -7.8974
    -7.8475  -7.1046  -6.2895  -6.1861  -6.1601  -6.0197  -5.9151  -5.8453
    -5.6667  -5.6411  -5.4390  -5.4312  -5.3660  -5.0486  -4.7223  -4.5281
    -4.5044  -4.4112  -4.3845  -4.3826  -4.2713  -4.0873  -4.0772  -4.0273
    -4.0012  -3.9603  -3.8064  -3.7319  -3.6615  -3.5708  -3.5211  -3.4317
    -3.3260  -3.2754  -3.2665  -3.2155  -3.1848  -3.1688  -3.1543  -3.1311
    -3.0823  -2.8856  -2.8535  -2.8037  -2.7332  -2.6758  -2.6605  -2.6257
    -2.6179  -2.6084  -2.5821  -2.5502  -2.5096  -2.4645  -2.3555  -2.2580
    -2.2244  -2.1714  -2.0458  -2.0357  -2.0112  -1.9890  -1.9232  -1.8910
    -1.8786  -1.8769  -1.8691  -1.8479  -1.7724  -1.7259  -1.7234  -1.7050
    -1.6844  -1.6448  -1.5916  -1.5431  -1.5295  -1.5253  -1.5182  -1.4996
    -1.4826  -1.4576  -1.4419  -1.4341  -1.4305  -1.4288  -1.4230  -1.4129
    -1.4007  -1.3877  -1.3848  -1.3818  -1.3593  -1.3364  -1.3250  -1.3120
    -1.2769  -1.2577  -1.1937  -1.1848  -1.1235  -1.0817  -1.0755  -1.0633
    -1.0552  -1.0466  -1.0149  -1.0098  -0.9867  -0.9834  -0.9818  -0.9742
    -0.9718  -0.9657  -0.9647  -0.9625  -0.9535  -0.9489  -0.9483  -0.9366
    -0.9318  -0.9269  -0.9188  -0.9054  -0.8890  -0.8860  -0.8699  -0.8636
    -0.8583  -0.8432  -0.8391  -0.8301  -0.8265  -0.8189  -0.8143  -0.8124
    -0.7924  -0.7867  -0.7700  -0.7675  -0.7533  -0.7501  -0.7414  -0.7357
    -0.7174  -0.7154  -0.7121  -0.7062  -0.6907  -0.6899  -0.6837  -0.6768
    -0.6713  -0.6691  -0.6645  -0.6497  -0.6376  -0.6231  -0.6034  -0.5977
    -0.5875  -0.5819  -0.5776  -0.5672  -0.5306  -0.5156  -0.5124  -0.5096
    -0.5001  -0.4883  -0.4791  -0.4697  -0.4530  -0.4518  -0.4372  -0.4330
    -0.4210  -0.4162  -0.4124  -0.3963  -0.3933  -0.3731  -0.3691  -0.3580
    -0.3535  -0.3378  -0.3159  -0.3071  -0.2944  -0.2895  -0.2813  -0.2802
    -0.2746  -0.2698  -0.2593  -0.2537  -0.2403  -0.2343  -0.2287  -0.2257
    -0.2216  -0.1972  -0.1933  -0.1892  -0.1840  -0.1786  -0.1745  -0.1440
    -0.1419  -0.1408  -0.1315  -0.1286  -0.1171  -0.1118  -0.1107  -0.1075
    -0.1041  -0.1025  -0.0987  -0.0942  -0.0857  -0.0838  -0.0773  -0.0722
    -0.0597  -0.0584  -0.0495  -0.0384  -0.0353  -0.0306  -0.0129  -0.0078
     0.0066   0.0143   0.0158   0.0308   0.0330   0.0370   0.0400   0.0453
     0.0480   0.0630   0.0658   0.0824   0.1005   0.1105   0.1285   0.1362
     0.1411   0.1501   0.1558   0.1624   0.1636   0.1672   0.1715   0.1780
     0.1872   0.1977   0.2017   0.2052   0.2116   0.2150   0.2165   0.2172
     0.2297   0.2392   0.2410   0.2510   0.2540   0.2568   0.2594   0.2638
     0.2654   0.2673   0.2728   0.2781   0.2863   0.2916   0.2955   0.2960
     0.3065   0.3079   0.3174   0.3238   0.3290   0.3363   0.3398   0.3540
     0.3590   0.3668   0.3705   0.3747   0.3871   0.3920   0.4000   0.4016
     0.4087   0.4123   0.4161   0.4169   0.4277   0.4338   0.4372   0.4513
     0.4528   0.4604   0.4630   0.4880   0.4957   0.5032   0.5270   0.5325
     0.5396   0.5403   0.5478   0.5491   0.5515   0.5542   0.5638   0.5710
     0.5730   0.5745   0.5800   0.5870   0.5906   0.5969   0.6019   0.6047
     0.6085   0.6218   0.6253   0.6309   0.6324   0.6386   0.6533   0.6590
     0.6642   0.6646   0.6715   0.6760   0.7018   0.7037   0.7071   0.7143
     0.7204   0.7220   0.7246   0.7307   0.7316   0.7347   0.7390   0.7439
     0.7464   0.7609   0.7714   0.7751   0.7807   0.7834   0.7950   0.8004
     0.8041   0.8165   0.8231   0.8308   0.8387   0.8417   0.8495   0.8542
     0.8561   0.8608   0.8673   0.8701   0.8762   0.8812   0.8908   0.8926
     0.9010   0.9030   0.9059   0.9089   0.9117   0.9164   0.9192   0.9239
     0.9258   0.9274   0.9341   0.9379   0.9401   0.9444   0.9466   0.9507
     0.9517   0.9566   0.9658   0.9675   0.9703   0.9719   0.9732   0.9787
     0.9805   0.9993   1.0132   1.0145   1.0188   1.0204   1.0250   1.0268
     1.0470   1.0604   1.0619   1.0698   1.0825   1.0840   1.0847   1.0914
     1.0963   1.1046   1.1055   1.1070   1.1083   1.1119   1.1187   1.1206
     1.1280   1.1328   1.1422   1.1441   1.1474   1.1492   1.1599   1.1655
     1.1712   1.1789   1.1863   1.1942   1.1979   1.2048   1.2159   1.2191
     1.2238   1.2272   1.2300   1.2366   1.2435   1.2501   1.2524   1.2585
     1.2640   1.2708   1.2763   1.2821   1.2847   1.2914   1.2962   1.3091
     1.3164   1.3179   1.3235   1.3265   1.3356   1.3387   1.3406   1.3436
     1.3451   1.3489   1.3517   1.3562   1.3597   1.3606   1.3640   1.3708
     1.3743   1.3798   1.3832   1.3936   1.3965   1.4085   1.4127   1.4173
     1.4242   1.4283   1.4286   1.4318   1.4354   1.4365   1.4401   1.4452
     1.4464   1.4489   1.4516   1.4529   1.4590   1.4597   1.4636   1.4696
     1.4709   1.4734   1.4808   1.4832   1.4868   1.4902   1.4968   1.4985
     1.5050   1.5168   1.5180   1.5250   1.5284   1.5305   1.5390   1.5411
     1.5446   1.5497   1.5538   1.5593   1.5639   1.5656   1.5742   1.5774
     1.5792   1.5854   1.5893   1.5951   1.5993   1.5995   1.6090   1.6108
     1.6127   1.6180   1.6193   1.6281   1.6327   1.6331   1.6351   1.6384
     1.6403   1.6442   1.6490   1.6507   1.6531   1.6557   1.6611   1.6670
     1.6757   1.6805   1.6824   1.6858   1.6902   1.6909   1.6922   1.6946
     1.6993   1.7030   1.7067   1.7080   1.7084   1.7119   1.7230   1.7283
     1.7298   1.7401   1.7434   1.7473   1.7581   1.7667   1.7677   1.7766
     1.7783   1.7804   1.7951   1.8017   1.8087   1.8123   1.8344   1.8473
     1.8647   1.9038   1.9211   1.9293   1.9327   2.0009   2.0058   2.0173
     2.0284   2.0318   2.0362   2.0439   2.0545   2.0886   2.1012   2.1466
     2.2489   2.3786   2.3813   2.4084   2.4197   2.5390   2.5497   2.7703
     2.8414   2.8428   3.0189   3.0353   3.0453   3.0554   3.0608   3.0690
     3.0999   3.1995   3.2003   3.2425   3.3281   3.3728   3.5084   3.7707
     3.8095   3.8388   3.8868   3.9292   3.9508   4.0120   4.0963   4.1128
     4.1593   4.1839   4.2869   4.3227   4.3452   4.3974   4.4524   4.4989
     4.6132   4.6545   4.6922   4.7490   4.8033   4.8542   4.9283   4.9859
     5.0502   5.0657   5.1020   5.1401   5.1703   5.2414   5.3465   5.4185
     5.4838   5.5096   5.5815   5.6756   5.6999   5.7037   5.7167   5.7919
     5.8883   5.9879   6.0398   6.0655   6.1465   6.1918   6.2008   6.3268
     6.3498   6.7498   6.8435   6.8815   6.8904   6.9602   6.9731   6.9792
     7.0810   7.1652   7.1716   7.2595   7.3022   7.3339   7.3405   7.3528
     7.4581   7.4643   7.5117   7.5377   7.5625   7.5695   7.6011   7.6470
     7.6575   7.6664   7.6957   7.6971   7.7270   7.9237   7.9968   8.0272
     8.0514   8.1243   8.2330   8.2451   8.2624   8.4228   8.4492   8.4701
     8.5219   8.5400   8.5952   8.6916   8.6967   8.7590   8.8482   8.8660
     8.8835   8.9221   8.9511   8.9955   9.0444   9.0484   9.0521   9.0640
     9.1612   9.1732   9.2346   9.2729   9.2868   9.3037   9.3368   9.3924
     9.4167   9.4529   9.4703   9.4813   9.4889   9.5190   9.5851   9.6241
     9.6289   9.6417   9.6670   9.7037   9.7803

          k =-0.5000 0.0000 0.0000 (256496 PWs)   bands (ev):

   -15.5591 -15.4173 -15.2037 -15.1437 -15.1349 -14.7663 -14.0955 -14.0604
   -13.9682 -13.5871 -12.3189 -12.2883 -12.1755 -12.0077 -11.6463 -11.5723
   -11.3871 -11.3841 -11.2265 -11.0030 -10.6683 -10.4679 -10.3313  -9.9471
    -9.6237  -9.3587  -9.3423  -8.8727  -8.5324  -8.4199  -8.2880  -7.8687
    -6.9758  -6.9508  -6.9062  -6.8701  -6.7240  -5.8249  -5.4098  -5.2404
    -5.0265  -5.0057  -4.7466  -4.5931  -4.5244  -4.5174  -4.5044  -4.4901
    -4.4208  -4.3365  -4.2966  -4.2758  -4.2609  -4.1682  -4.1456  -4.1020
    -4.0760  -4.0339  -3.9620  -3.8071  -3.7305  -3.7051  -3.6937  -3.6503
    -3.6333  -3.6212  -3.5634  -3.3249  -3.2643  -3.2383  -3.2260  -3.1726
    -3.1390  -3.1277  -3.1118  -3.1062  -3.0043  -2.9854  -2.9259  -2.9099
    -2.6826  -2.6815  -2.5658  -2.4869  -2.4456  -2.4175  -2.4043  -2.3450
    -2.3127  -2.2759  -2.2293  -2.0976  -2.0867  -2.0589  -2.0341  -2.0289
    -1.9924  -1.9900  -1.9375  -1.7698  -1.6014  -1.5973  -1.5956  -1.5864
    -1.5818  -1.5784  -1.5204  -1.5111  -1.4739  -1.4734  -1.4664  -1.3845
    -1.3738  -1.3736  -1.3696  -1.3598  -1.3246  -1.3227  -1.3068  -1.2985
    -1.2565  -1.2309  -1.2242  -1.2148  -1.1792  -1.1721  -1.1543  -1.1513
    -1.1430  -1.1344  -1.1328  -1.1192  -1.1020  -1.0964  -1.0777  -1.0775
    -1.0725  -1.0721  -1.0682  -1.0630  -1.0622  -1.0547  -1.0438  -1.0345
    -1.0277  -1.0166  -1.0105  -0.9995  -0.9898  -0.9872  -0.9640  -0.9421
    -0.9342  -0.9331  -0.9075  -0.9053  -0.9015  -0.8985  -0.8960  -0.8883
    -0.8876  -0.8804  -0.8789  -0.8674  -0.8610  -0.8452  -0.8394  -0.8370
    -0.8285  -0.8074  -0.8064  -0.7984  -0.7850  -0.7811  -0.7702  -0.7476
    -0.7216  -0.7180  -0.7055  -0.7012  -0.7004  -0.6960  -0.6893  -0.6832
    -0.6774  -0.6708  -0.6617  -0.6562  -0.6551  -0.6538  -0.6387  -0.6374
    -0.6332  -0.6249  -0.6212  -0.5812  -0.5741  -0.5716  -0.5531  -0.5465
    -0.5312  -0.5213  -0.4999  -0.4883  -0.4369  -0.4329  -0.4274  -0.4262
    -0.4129  -0.4115  -0.4073  -0.3989  -0.3850  -0.3805  -0.3771  -0.3720
    -0.3702  -0.3695  -0.3621  -0.3521  -0.3503  -0.3440  -0.3206  -0.3164
    -0.3108  -0.3008  -0.2961  -0.2839  -0.2592  -0.2248  -0.2135  -0.2056
    -0.1978  -0.1887  -0.1874  -0.1790  -0.1684  -0.1567  -0.1460  -0.1437
    -0.1352  -0.1328  -0.1218  -0.1164  -0.1155  -0.1107  -0.1104  -0.1079
    -0.0891  -0.0856  -0.0830  -0.0705  -0.0544  -0.0543  -0.0521  -0.0299
    -0.0294  -0.0227  -0.0155  -0.0125  -0.0100   0.0012   0.0159   0.0163
     0.0275   0.0378   0.0548   0.0584   0.0601   0.0754   0.0900   0.0980
     0.1009   0.1185   0.1245   0.1253   0.1327   0.1339   0.1384   0.1390
     0.1502   0.1620   0.1679   0.1825   0.1840   0.2120   0.2157   0.2213
     0.2223   0.2344   0.2360   0.2365   0.2374   0.2381   0.2416   0.2464
     0.2552   0.2624   0.2792   0.2835   0.2852   0.2926   0.3200   0.3275
     0.3295   0.3318   0.3330   0.3357   0.3393   0.3481   0.3486   0.3493
     0.3497   0.3559   0.3565   0.3586   0.3619   0.3683   0.3686   0.3693
     0.3696   0.3721   0.3778   0.3819   0.3880   0.3926   0.3932   0.3954
     0.3971   0.4005   0.4014   0.4030   0.4043   0.4107   0.4142   0.4146
     0.4360   0.4407   0.4545   0.4548   0.4640   0.4931   0.5237   0.5361
     0.5450   0.5469   0.5683   0.5738   0.5857   0.5864   0.5896   0.5908
     0.5939   0.5972   0.6002   0.6041   0.6042   0.6087   0.6090   0.6106
     0.6116   0.6185   0.6244   0.6264   0.6313   0.6360   0.6389   0.6422
     0.6433   0.6493   0.6543   0.6592   0.6658   0.6669   0.6701   0.6725
     0.6851   0.7062   0.7127   0.7130   0.7248   0.7307   0.7479   0.7537
     0.7569   0.7587   0.7653   0.7706   0.7776   0.7827   0.7840   0.7841
     0.7866   0.7869   0.7896   0.7920   0.7954   0.8030   0.8092   0.8111
     0.8165   0.8222   0.8262   0.8270   0.8339   0.8354   0.8418   0.8521
     0.8583   0.8650   0.8662   0.8736   0.8745   0.8847   0.8850   0.8889
     0.8930   0.8954   0.8980   0.9070   0.9080   0.9101   0.9103   0.9151
     0.9204   0.9272   0.9309   0.9320   0.9336   0.9523   0.9607   0.9619
     0.9655   0.9681   0.9725   0.9814   0.9903   1.0054   1.0096   1.0097
     1.0185   1.0202   1.0298   1.0363   1.0512   1.0643   1.0821   1.0881
     1.0888   1.0913   1.0928   1.0952   1.0986   1.1048   1.1048   1.1098
     1.1099   1.1156   1.1240   1.1244   1.1317   1.1373   1.1387   1.1399
     1.1537   1.1582   1.1609   1.1615   1.1734   1.1785   1.1795   1.1858
     1.1910   1.1998   1.2005   1.2028   1.2063   1.2626   1.2643   1.2676
     1.2678   1.2697   1.2782   1.2794   1.2904   1.2909   1.3075   1.3106
     1.3142   1.3158   1.3208   1.3233   1.3327   1.3395   1.3430   1.3505
     1.3580   1.3605   1.3663   1.3710   1.3738   1.3745   1.3757   1.3764
     1.3789   1.3796   1.3811   1.3855   1.3869   1.3888   1.3922   1.3931
     1.4005   1.4110   1.4171   1.4300   1.4302   1.4353   1.4414   1.4451
     1.4488   1.4552   1.4615   1.4658   1.4720   1.4763   1.4797   1.4852
     1.4899   1.4904   1.4990   1.4991   1.5041   1.5051   1.5069   1.5092
     1.5126   1.5165   1.5178   1.5309   1.5452   1.5462   1.5508   1.5543
     1.5576   1.5660   1.5675   1.5715   1.5719   1.5731   1.5749   1.5764
     1.5788   1.5792   1.5811   1.5837   1.5856   1.5870   1.5918   1.5933
     1.5949   1.6000   1.6011   1.6021   1.6053   1.6060   1.6099   1.6149
     1.6228   1.6261   1.6309   1.6401   1.6460   1.6461   1.6507   1.6609
     1.6676   1.6680   1.6706   1.6720   1.6735   1.6807   1.6887   1.6918
     1.6943   1.6948   1.7016   1.7026   1.7054   1.7118   1.7125   1.7162
     1.7231   1.7245   1.7303   1.7338   1.7383   1.7399   1.7452   1.7550
     1.7564   1.7600   1.7646   1.7674   1.7679   1.7702   1.7716   1.7792
     1.7959   1.8194   1.8230   1.8248   1.8441   1.8486   1.8601   1.8606
     1.8653   1.8999   1.9411   2.2614   2.2749   2.3061   2.3211   2.4531
     2.4971   2.4971   2.5323   2.5340   2.5420   2.5469   2.5644   2.7165
     2.8524   2.8831   2.9055   2.9861   3.0285   3.0656   3.0923   3.2248
     3.2943   3.4454   3.4475   3.4544   3.5005   3.7302   3.7778   3.8459
     4.0146   4.0343   4.0375   4.0584   4.1582   4.2101   4.2207   4.2911
     4.3121   4.3353   4.3736   4.4208   4.4928   4.4942   4.6454   4.8511
     4.8936   4.9680   4.9742   4.9918   5.0432   5.0947   5.1030   5.1205
     5.1387   5.1597   5.2732   5.2786   5.2825   5.3153   5.3246   5.3277
     5.3401   5.3439   5.3741   5.4151   5.4573   5.5190   5.5292   5.7249
     5.7671   5.8091   5.8565   5.9048   5.9369   6.0148   6.0481   6.2110
     6.2413   6.2460   6.2621   6.2991   6.3257   6.3525   6.4678   6.5080
     6.5417   6.6549   6.6820   6.7772   6.7927   6.8441   7.0946   7.3128
     7.3264   7.3450   7.3568   7.4148   7.4764   7.7440   7.8187   7.8466
     7.8530   7.8576   7.8673   7.8853   7.9148   8.0571   8.0618   8.0852
     8.0995   8.1214   8.1251   8.1322   8.1937   8.2208   8.2903   8.3264
     8.3455   8.3871   8.3892   8.4034   8.4224   8.5542   8.5594   8.5675
     8.5818   8.6333   8.6451   8.8637   9.0169   9.0941   9.1048   9.1182
     9.1533   9.1536   9.1545   9.1899   9.2504   9.2560   9.2997   9.3159
     9.3334   9.4021   9.4293   9.5097   9.5105   9.6385   9.6404   9.7412
     9.7666   9.7690   9.7851   9.8089   9.9099

          k =-0.5000-0.2165 0.0000 (256328 PWs)   bands (ev):

   -15.5046 -15.4124 -15.4014 -15.1922 -14.7375 -14.6923 -14.6285 -14.2379
   -13.2803 -13.2592 -13.1400 -12.8321 -11.6029 -11.5955 -11.5231 -11.4795
   -11.2689 -11.1448 -11.1429 -11.0020 -10.9986 -10.9450 -10.8492  -9.9881
    -9.3202  -9.2616  -9.1109  -8.8302  -8.4156  -8.3003  -8.1498  -7.8349
    -7.6429  -7.5230  -7.3703  -6.5629  -5.5521  -5.5091  -5.4081  -5.0614
    -4.9193  -4.9097  -4.9095  -4.8748  -4.8627  -4.8315  -4.7772  -4.6115
    -4.5620  -4.5010  -4.3343  -4.2921  -4.0980  -4.0447  -4.0274  -3.9856
    -3.9148  -3.9122  -3.9052  -3.8880  -3.8094  -3.7173  -3.7042  -3.6002
    -3.5606  -3.5563  -3.5414  -3.4321  -3.3972  -3.3202  -3.2841  -3.2654
    -3.2169  -3.1832  -3.1481  -3.1016  -3.0782  -2.8865  -2.7889  -2.7305
    -2.7181  -2.6258  -2.5858  -2.4124  -2.2963  -2.2890  -2.2861  -2.2751
    -2.2618  -2.2599  -2.2502  -2.1577  -2.0994  -2.0986  -1.9398  -1.9283
    -1.8439  -1.8151  -1.8038  -1.7893  -1.7777  -1.7458  -1.7341  -1.7299
    -1.6880  -1.6750  -1.5965  -1.5369  -1.5309  -1.5154  -1.4821  -1.4279
    -1.3944  -1.3900  -1.3651  -1.3502  -1.2640  -1.2310  -1.2225  -1.2110
    -1.2041  -1.2020  -1.1963  -1.1953  -1.1835  -1.1728  -1.1706  -1.1696
    -1.1680  -1.1540  -1.1258  -1.1181  -1.1149  -1.1119  -1.1055  -1.0950
    -1.0921  -1.0903  -1.0870  -1.0865  -1.0753  -1.0664  -1.0442  -1.0423
    -1.0398  -1.0369  -1.0252  -1.0034  -0.9764  -0.9669  -0.9586  -0.9365
    -0.9247  -0.9224  -0.9100  -0.9062  -0.8959  -0.8947  -0.8926  -0.8866
    -0.8649  -0.8619  -0.8545  -0.8532  -0.8498  -0.8494  -0.8472  -0.8315
    -0.8250  -0.8233  -0.8175  -0.7993  -0.7943  -0.7900  -0.7886  -0.7850
    -0.7752  -0.7744  -0.7742  -0.7711  -0.7661  -0.7507  -0.7374  -0.7266
    -0.7141  -0.6974  -0.6807  -0.6231  -0.6228  -0.6086  -0.6077  -0.5841
    -0.5751  -0.5662  -0.5652  -0.5562  -0.5123  -0.5111  -0.5099  -0.5066
    -0.4988  -0.4940  -0.4884  -0.4858  -0.4701  -0.4676  -0.4489  -0.4484
    -0.4316  -0.4286  -0.4264  -0.4233  -0.4203  -0.4135  -0.4093  -0.4088
    -0.3947  -0.3918  -0.3898  -0.3435  -0.3274  -0.3176  -0.3134  -0.3120
    -0.3061  -0.3040  -0.2991  -0.2701  -0.2540  -0.2527  -0.2278  -0.2237
    -0.2169  -0.2123  -0.1969  -0.1865  -0.1781  -0.1770  -0.1705  -0.1701
    -0.1639  -0.1519  -0.1500  -0.1406  -0.1399  -0.1249  -0.1177  -0.1109
    -0.0965  -0.0945  -0.0771  -0.0759  -0.0735  -0.0251  -0.0149  -0.0144
    -0.0012   0.0021   0.0076   0.0082   0.0152   0.0200   0.0225   0.0283
     0.0381   0.0663   0.0953   0.0962   0.0987   0.0997   0.1070   0.1096
     0.1113   0.1151   0.1167   0.1250   0.1265   0.1302   0.1439   0.1470
     0.1492   0.1508   0.1587   0.1598   0.1621   0.1682   0.1795   0.1807
     0.1900   0.1997   0.2313   0.2324   0.2394   0.2482   0.2610   0.2666
     0.2688   0.2817   0.2836   0.3084   0.3152   0.3266   0.3267   0.3292
     0.3325   0.3340   0.3362   0.3435   0.3447   0.3470   0.3505   0.3507
     0.3574   0.3580   0.3592   0.3603   0.3622   0.3633   0.3657   0.3671
     0.3822   0.3846   0.3871   0.3873   0.3913   0.3931   0.3964   0.4001
     0.4011   0.4036   0.4158   0.4169   0.4204   0.4283   0.4347   0.4354
     0.4567   0.4690   0.4762   0.4786   0.4818   0.4897   0.5069   0.5226
     0.5270   0.5510   0.5681   0.5682   0.5772   0.5877   0.5899   0.5964
     0.5986   0.6024   0.6082   0.6096   0.6116   0.6123   0.6207   0.6215
     0.6235   0.6293   0.6297   0.6319   0.6341   0.6399   0.6467   0.6507
     0.6575   0.6667   0.6715   0.6828   0.6829   0.6901   0.6923   0.6935
     0.7008   0.7036   0.7066   0.7163   0.7188   0.7198   0.7262   0.7318
     0.7320   0.7355   0.7479   0.7523   0.7572   0.7609   0.7641   0.7701
     0.7754   0.7769   0.7866   0.8006   0.8046   0.8089   0.8176   0.8206
     0.8210   0.8217   0.8252   0.8273   0.8299   0.8320   0.8349   0.8373
     0.8380   0.8392   0.8430   0.8491   0.8553   0.8590   0.8651   0.8684
     0.8700   0.8923   0.8988   0.9046   0.9220   0.9305   0.9329   0.9362
     0.9410   0.9443   0.9477   0.9516   0.9549   0.9640   0.9661   0.9703
     0.9706   0.9743   0.9818   0.9827   0.9857   0.9876   0.9891   1.0047
     1.0077   1.0086   1.0182   1.0423   1.0446   1.0462   1.0575   1.0594
     1.0699   1.0733   1.0829   1.0870   1.0940   1.0993   1.1042   1.1085
     1.1102   1.1187   1.1273   1.1292   1.1365   1.1504   1.1566   1.1580
     1.1677   1.1809   1.1810   1.1966   1.1982   1.2064   1.2116   1.2384
     1.2533   1.2553   1.2678   1.2693   1.2711   1.2737   1.2799   1.2852
     1.2886   1.2901   1.2969   1.2979   1.2992   1.3006   1.3012   1.3016
     1.3032   1.3055   1.3106   1.3118   1.3129   1.3245   1.3276   1.3295
     1.3363   1.3373   1.3401   1.3429   1.3453   1.3478   1.3562   1.3611
     1.3633   1.3756   1.3757   1.3763   1.3778   1.3821   1.3825   1.3898
     1.3914   1.3959   1.3970   1.3991   1.4140   1.4190   1.4371   1.4401
     1.4405   1.4452   1.4469   1.4495   1.4580   1.4639   1.4654   1.4726
     1.4764   1.4898   1.4920   1.4958   1.4974   1.4998   1.5015   1.5076
     1.5184   1.5208   1.5222   1.5242   1.5314   1.5327   1.5354   1.5355
     1.5370   1.5377   1.5431   1.5547   1.5556   1.5609   1.5727   1.5878
     1.6025   1.6029   1.6068   1.6089   1.6104   1.6119   1.6140   1.6190
     1.6228   1.6263   1.6290   1.6293   1.6304   1.6344   1.6393   1.6406
     1.6411   1.6420   1.6424   1.6462   1.6494   1.6525   1.6551   1.6590
     1.6622   1.6656   1.6684   1.6687   1.6719   1.6727   1.6819   1.6844
     1.6891   1.6909   1.6988   1.7038   1.7081   1.7107   1.7139   1.7185
     1.7187   1.7240   1.7309   1.7403   1.7425   1.7542   1.7548   1.7598
     1.7730   1.7879   1.7984   1.8061   1.8142   1.8219   1.8270   1.8283
     1.8291   1.8424   1.8479   1.8518   1.8558   1.8590   1.8677   1.8698
     1.8750   1.8764   1.8916   1.9146   1.9373   2.0818   2.0846   2.1056
     2.1160   2.4996   2.5881   2.5951   2.6351   2.7631   2.8048   2.8185
     2.8296   2.8801   2.9925   3.0438   3.0682   3.1419   3.2557   3.3537
     3.3540   3.4475   3.4539   3.6984   3.7123   3.7268   3.7474   3.8716
     3.8904   3.9140   3.9741   4.0029   4.1893   4.1968   4.2129   4.2182
     4.4453   4.4889   4.4936   4.5310   4.5521   4.5600   4.5739   4.6932
     4.7807   4.8232   4.8262   4.8593   4.8676   4.8741   4.9894   4.9929
     5.1275   5.1386   5.1742   5.2503   5.2727   5.3505   5.3641   5.4142
     5.4199   5.4519   5.4630   5.5041   5.5066   5.5763   5.5857   5.6367
     5.6582   5.7094   5.7841   5.8535   5.8773   5.9336   5.9391   5.9968
     6.0116   6.0530   6.0681   6.1010   6.1575   6.4138   6.4479   7.0036
     7.0342   7.0758   7.1511   7.1888   7.3555   7.3597   7.3751   7.3818
     7.3842   7.4077   7.4432   7.4757   7.4990   7.5307   7.5665   7.5788
[...]
     ewald contribution        =   45136.04051118 Ry
     Dispersion Correction     =      -2.99180371 Ry
     smearing contrib. (-TS)   =      -3.38063828 Ry

     convergence has been achieved in  15 iterations

     negative rho (up, down):  1.943E-03 0.000E+00

     Forces acting on atoms (Ry/au):

     atom    1 type  1   force =     0.00000000    0.00036566    0.00090738
     atom    2 type  1   force =     0.00001365    0.00001648    0.00032402
     atom    3 type  1   force =     0.00000000    0.00018105    0.00071305
     atom    4 type  1   force =    -0.00001365    0.00001648    0.00032402
     atom    5 type  1   force =     0.00000000    0.00011209   -0.00006611
     atom    6 type  1   force =    -0.00000290    0.00021540   -0.00001499
     atom    7 type  1   force =     0.00000000    0.00010793    0.00026692
     atom    8 type  1   force =     0.00000290    0.00021540   -0.00001499
     atom    9 type  1   force =     0.00000000   -0.00000901   -0.00033703
     atom   10 type  1   force =     0.00003049   -0.00027190   -0.00003443
     atom   11 type  1   force =     0.00000000    0.00000034    0.00005116
     atom   12 type  1   force =    -0.00003049   -0.00027190   -0.00003443
     atom   13 type  1   force =     0.00000000   -0.00027092   -0.00006233
     atom   14 type  1   force =     0.00001268    0.00006150    0.00008642
     atom   15 type  1   force =     0.00000000   -0.00025011    0.00023156
     atom   16 type  1   force =    -0.00001268    0.00006150    0.00008642
     atom   17 type  1   force =     0.00000000    0.00028168    0.00049359
     atom   18 type  1   force =     0.00001067    0.00042592    0.00080002
     atom   19 type  1   force =     0.00000000    0.00037253    0.00030003
     atom   20 type  1   force =    -0.00001067    0.00042592    0.00080002
     atom   21 type  1   force =     0.00000000    0.00031852    0.00077489
     atom   22 type  1   force =    -0.00003319    0.00049109    0.00080743
     atom   23 type  1   force =     0.00000000    0.00027476    0.00100642
     atom   24 type  1   force =     0.00003319    0.00049109    0.00080743
     atom   25 type  1   force =     0.00000000   -0.00019724    0.00061167
     atom   26 type  1   force =     0.00008023   -0.00031434    0.00029351
     atom   27 type  1   force =     0.00000000   -0.00146914   -0.00064528
     atom   28 type  1   force =    -0.00008023   -0.00031434    0.00029351
     atom   29 type  1   force =     0.00000000   -0.00019841    0.00084155
     atom   30 type  1   force =    -0.00080973   -0.00020522    0.00034163
     atom   31 type  1   force =     0.00000000    0.00091469   -0.00022923
     atom   32 type  1   force =     0.00080973   -0.00020522    0.00034163
     atom   33 type  1   force =     0.00000000    0.00035918   -0.00017419
     atom   34 type  1   force =    -0.00004048    0.00012782    0.00021347
     atom   35 type  1   force =     0.00000000    0.00050779   -0.00016626
     atom   36 type  1   force =     0.00004048    0.00012782    0.00021347
     atom   37 type  1   force =     0.00000000    0.00066656    0.00025486
     atom   38 type  1   force =    -0.00002468    0.00073843   -0.00021211
     atom   39 type  1   force =     0.00000000    0.00057754    0.00054866
     atom   40 type  1   force =     0.00002468    0.00073843   -0.00021211
     atom   41 type  1   force =     0.00000000    0.00070882    0.00080567
     atom   42 type  1   force =    -0.00003214    0.00103343    0.00115564
     atom   43 type  1   force =     0.00000000    0.00096070    0.00072999
     atom   44 type  1   force =     0.00003214    0.00103343    0.00115564
     atom   45 type  1   force =     0.00000000    0.00034545    0.00132520
     atom   46 type  1   force =     0.00024905    0.00044287    0.00114440
     atom   47 type  1   force =     0.00000000    0.00122825    0.00162049
     atom   48 type  1   force =    -0.00024905    0.00044287    0.00114440
     atom   49 type  1   force =     0.00000000   -0.00020618    0.00031940
     atom   50 type  1   force =     0.00023615   -0.00080042    0.00090682
     atom   51 type  1   force =     0.00000000   -0.00037958   -0.00023016
     atom   52 type  1   force =    -0.00023615   -0.00080042    0.00090682
     atom   53 type  1   force =     0.00000000    0.00006582    0.00111262
     atom   54 type  1   force =     0.00002688    0.00021373   -0.00000494
     atom   55 type  1   force =     0.00000000   -0.00045721    0.00067611
     atom   56 type  1   force =    -0.00002688    0.00021373   -0.00000494
     atom   57 type  1   force =     0.00000000    0.00074831   -0.00027942
     atom   58 type  1   force =     0.00016771    0.00050390    0.00010793
     atom   59 type  1   force =     0.00000000    0.00045012   -0.00006877
     atom   60 type  1   force =    -0.00016771    0.00050390    0.00010793
     atom   61 type  1   force =     0.00000000    0.00200301    0.00199019
     atom   62 type  1   force =     0.00011358    0.00066244    0.00028088
     atom   63 type  1   force =     0.00000000    0.00075939    0.00128919
     atom   64 type  1   force =    -0.00011358    0.00066244    0.00028088
     atom   65 type  1   force =     0.00000000   -0.00097606   -0.00298086
     atom   66 type  1   force =    -0.00020048    0.00165130    0.00182047
     atom   67 type  1   force =     0.00000000   -0.00376843   -0.00069760
     atom   68 type  1   force =     0.00020048    0.00165130    0.00182047
     atom   69 type  1   force =     0.00000000    0.00094328    0.00026183
     atom   70 type  1   force =    -0.00266985    0.00035481   -0.00205666
     atom   71 type  1   force =     0.00000000    0.00313827   -0.00160900
     atom   72 type  1   force =     0.00266985    0.00035481   -0.00205666
     atom   73 type  1   force =     0.00000000   -0.00077723    0.00044864
     atom   74 type  1   force =    -0.00054852   -0.00133717    0.00054826
     atom   75 type  1   force =     0.00000000    0.00021019    0.00010671
     atom   76 type  1   force =     0.00054852   -0.00133717    0.00054826
     atom   77 type  1   force =     0.00000000    0.00008536   -0.00015004
     atom   78 type  1   force =     0.00028815    0.00019170    0.00009829
     atom   79 type  1   force =     0.00000000    0.00049377    0.00005459
     atom   80 type  1   force =    -0.00028815    0.00019170    0.00009829
     atom   81 type  1   force =     0.00000000   -0.00104245    0.00053949
     atom   82 type  1   force =    -0.00081126    0.00039186    0.00070348
     atom   83 type  1   force =     0.00000000    0.00063503    0.00034157
     atom   84 type  1   force =     0.00081126    0.00039186    0.00070348
     atom   85 type  1   force =     0.00000000    0.00172918    0.00031735
     atom   86 type  1   force =     0.00123113    0.00333108    0.00144810
     atom   87 type  1   force =     0.00000000   -0.00043851    0.00216345
     atom   88 type  1   force =    -0.00123113    0.00333108    0.00144810
     atom   89 type  1   force =     0.00000000   -0.00015906   -0.00030824
     atom   90 type  1   force =    -0.00075716    0.00166381    0.00155855
     atom   91 type  1   force =     0.00000000    0.00092352   -0.01557635
     atom   92 type  1   force =     0.00075716    0.00166381    0.00155855
     atom   93 type  1   force =     0.00000000   -0.00120256   -0.00170948
     atom   94 type  1   force =     0.00065515   -0.00032756   -0.00015133
     atom   95 type  1   force =     0.00000000   -0.00002626   -0.00079818
     atom   96 type  1   force =    -0.00065515   -0.00032756   -0.00015133
     atom   97 type  1   force =     0.00000000    0.00049250    0.00024676
     atom   98 type  1   force =     0.00016428    0.00024929    0.00051123
     atom   99 type  1   force =     0.00000000    0.00048812    0.00045063
     atom  100 type  1   force =    -0.00016428    0.00024929    0.00051123
     atom  101 type  2   force =     0.00000000   -0.00696026    0.00055379
     atom  102 type  2   force =     0.00000000   -0.00399913   -0.00226012
     atom  103 type  2   force =     0.00035206   -0.00412387    0.00080791
     atom  104 type  2   force =     0.00548614    0.00361186   -0.00007676
     atom  105 type  2   force =     0.00177298   -0.00244569    0.00075268
     atom  106 type  2   force =    -0.00070880   -0.00494696    0.00014536
     atom  107 type  2   force =     0.00000000   -0.00077850   -0.00046762
     atom  108 type  2   force =     0.00000000   -0.00479594   -0.00141745
     atom  109 type  2   force =    -0.00177298   -0.00244569    0.00075268
     atom  110 type  2   force =     0.00070880   -0.00494696    0.00014536
     atom  111 type  2   force =    -0.00035206   -0.00412387    0.00080791
     atom  112 type  2   force =    -0.00548614    0.00361186   -0.00007676
     atom  113 type  2   force =     0.00000000   -0.00085468    0.00233494
     atom  114 type  2   force =     0.00000000   -0.00333385    0.00105861
     atom  115 type  2   force =     0.00798468    0.00023702    0.00046673
     atom  116 type  2   force =    -0.00079049   -0.00240581   -0.00392540
     atom  117 type  2   force =     0.00712661    0.00681768   -0.00440275
     atom  118 type  2   force =     0.01311489    0.00406010   -0.00611781
     atom  119 type  2   force =     0.00000000   -0.00133063    0.00410451
     atom  120 type  2   force =    -0.00712661    0.00681768   -0.00440275
     atom  121 type  2   force =    -0.01311489    0.00406010   -0.00611781
     atom  122 type  2   force =    -0.00798468    0.00023702    0.00046673
     atom  123 type  2   force =     0.00079049   -0.00240581   -0.00392540
     atom  124 type  2   force =     0.00000000   -0.00528121   -0.00441118
     atom  125 type  2   force =     0.00000000   -0.00012635    0.00371572
     atom  126 type  2   force =     0.00481373   -0.00519442   -0.00022275
     atom  127 type  2   force =     0.00063632   -0.00438640    0.00155165
     atom  128 type  2   force =     0.00003483   -0.00580540   -0.00294731
     atom  129 type  2   force =     0.00354726   -0.00295082   -0.00107786
     atom  130 type  2   force =     0.00000000   -0.01165433   -0.00085525
     atom  131 type  2   force =     0.00000000   -0.00272716   -0.00117251
     atom  132 type  2   force =    -0.00003483   -0.00580540   -0.00294731
     atom  133 type  2   force =    -0.00354726   -0.00295082   -0.00107786
     atom  134 type  2   force =    -0.00481373   -0.00519442   -0.00022275
     atom  135 type  2   force =    -0.00063632   -0.00438640    0.00155165
     atom  136 type  2   force =     0.00000000    0.00490744    0.00048685
     atom  137 type  2   force =     0.00000000    0.00386334    0.00318232
     atom  138 type  2   force =     0.00014674    0.00764786   -0.00159314
     atom  139 type  2   force =     0.00358000    0.00191654    0.00112893
     atom  140 type  2   force =     0.00210607    0.00304303    0.00160787
     atom  141 type  2   force =     0.00258986    0.00108172    0.00148079
     atom  142 type  2   force =     0.00000000    0.00434382    0.00242256
     atom  143 type  2   force =     0.00000000    0.00777296    0.00050329
     atom  144 type  2   force =    -0.00210607    0.00304303    0.00160787
     atom  145 type  2   force =    -0.00258986    0.00108172    0.00148079
     atom  146 type  2   force =    -0.00014674    0.00764786   -0.00159314
     atom  147 type  2   force =    -0.00358000    0.00191654    0.00112893

     Total force =     0.049425     Total SCF correction =     0.000473

     number of scf cycles    =  13
     number of bfgs steps    =  12

     energy   old            =  -12687.1194722663 Ry
     energy   new            =  -12687.1227903630 Ry

     CASE: energy  _new < energy  _old

     new trust radius        =       0.0822851070 bohr
     new conv_thr            =       0.0000000100 Ry


ATOMIC_POSITIONS (angstrom)
Cu       0.000000000   0.010254218   7.384333393
Cu       1.844036585   1.717812351   7.384662390
Cu       3.689036991   0.014674282   7.385413057
Cu       5.534037398   1.717812351   7.384662390
Cu       0.000000000   3.415742584   7.378242574
Cu       1.845374361   5.114883709   7.371292980
Cu       3.689036991   3.417957761   7.379986564
Cu       5.532699622   5.114883709   7.371292980
Cu       0.000000000   6.815972265   7.370259150
Cu       1.845301715   8.517281214   7.370638272
Cu       3.689036991   6.815496746   7.366010709
Cu       5.532772268   8.517281214   7.370638272
Cu       0.000000000  10.216342613   7.376996274
Cu       1.844167626  11.914650118   7.383051979
Cu       3.689036991  10.215359250   7.378396803
Cu       5.533906357  11.914650118   7.383051979
Cu       0.000000000  13.624448432   7.381274919
Cu       1.845988504  15.337071179   7.383288004
Cu       3.689036991  13.618171721   7.384069235
Cu       5.532085479  15.337071179   7.383288004
Cu       0.000000000   1.725070809   9.221920542
Cu       1.844065019   0.017206966   9.216220499
Cu       3.689036991   1.726011539   9.223663960
Cu       5.534008964   0.017206966   9.216220499
Cu       0.000000000   5.120587801   9.205251667
Cu       1.846042814   3.424610878   9.216679170
Cu       3.689036991   5.123730317   9.213907088
Cu       5.532031169   3.424610878   9.216679170
Cu       0.000000000   8.509546094   9.204804272
Cu       1.847421791   6.815574196   9.205890256
Cu       3.689036991   8.506452181   9.211845734
Cu       5.530652192   6.815574196   9.205890256
Cu       0.000000000  11.913698008   9.209385925
Cu       1.847122340  10.206558645   9.213854028
Cu       3.689036991  11.909791325   9.217879823
Cu       5.530951643  10.206558645   9.213854028
Cu       0.000000000  15.338793440   9.207683570
Cu       1.845179942  13.622757833   9.207583164
Cu       3.689036991  15.337580012   9.202359222
Cu       5.532894041  13.622757833   9.207583164
Cu       0.000000000   0.020823866  11.051795854
Cu       1.846488006   1.743159806  11.077162177
Cu       3.689036991   0.008761659  11.044750276
Cu       5.531585977   1.743159806  11.077162177
Cu       0.000000000   3.439401902  11.074313795
Cu       1.844420253   5.120073165  11.063629746
Cu       3.689036991   3.446492991  11.085907205
Cu       5.533653730   5.120073165  11.063629746
Cu       0.000000000   6.810420534  11.054354523
Cu       1.844732276   8.503437988  11.062910975
Cu       3.689036991   6.809463593  11.060658358
Cu       5.533341707   8.503437988  11.062910975
Cu       0.000000000  10.209863631  11.045958381
Cu       1.848155062  11.918042548  11.043443788
Cu       3.689036991  10.192453972  11.067608481
Cu       5.529918921  11.918042548  11.043443788
Cu       0.000000000  13.625650159  11.038181486
Cu       1.841272422  15.338513852  11.038826157
Cu       3.689036991  13.634108546  11.041381309
Cu       5.536801561  15.338513852  11.038826157
Cu       0.000000000   1.753226390  12.899562530
Cu       1.841740879   0.006690020  12.878104918
Cu       3.689036991   1.721591327  12.886955294
Cu       5.536333104   0.006690020  12.878104918
Cu       0.000000000   5.137514916  12.935033697
Cu       1.864219257   3.496600076  12.979060388
Cu       3.689036991   5.196970149  13.003446616
Cu       5.513854726   3.496600076  12.979060388
Cu       0.000000000   8.511636991  12.892382758
Cu       1.852929730   6.798016868  12.919563376
Cu       3.689036991   8.435042585  12.967468349
Cu       5.525144253   6.798016868  12.919563376
Cu       0.000000000  11.926583076  12.871478762
Cu       1.857217672  10.218693869  12.880137154
Cu       3.689036991  11.931656994  12.873315278
Cu       5.520856311  10.218693869  12.880137154
Cu       0.000000000  15.334543163  12.875528204
Cu       1.842319870  13.634021354  12.873314408
Cu       3.689036991  15.340670475  12.882538149
Cu       5.535754113  13.634021354  12.873314408
Cu       0.000000000  -0.001999786  14.685204883
Cu       1.812699293   1.704872421  14.700039698
Cu       3.689036991   0.016741925  14.701770766
Cu       5.565374690   1.704872421  14.700039698
Cu       0.000000000   3.503951086  14.741342140
Cu       2.053910676   5.317044767  14.921722897
Cu       3.689036991   3.363744994  14.736600948
Cu       5.324163307   5.317044767  14.921722897
Cu       0.000000000   6.804264630  14.675357766
Cu       1.852975502   8.516093037  14.670757364
Cu       3.689036991   7.123991519  15.816804506
Cu       5.525098481   8.516093037  14.670757364
Cu       0.000000000  10.240443002  14.699613574
Cu       1.836267426  11.937438688  14.693302485
Cu       3.689036991  10.239518970  14.675851473
Cu       5.541806557  11.937438688  14.693302485
Cu       0.000000000  13.632491123  14.698644740
Cu       1.847914622  15.335005808  14.691972007
Cu       3.689036991  13.623046733  14.689609943
Cu       5.530159361  15.335005808  14.691972007
C        0.000000000   0.677528806  17.698454362
C        0.000000000   2.088376291  17.758372028
C        1.231878541  -0.023275350  17.646441296
C        1.223978109   2.803764514  17.707278108
C        2.460470762   0.690501916  17.634303746
C        2.458855290   2.107620117  17.630409042
C        3.689036991  -0.025094868  17.595834794
C        3.689036991   2.821703561  17.537182719
C        4.917603220   0.690501916  17.634303746
C        4.919218692   2.107620117  17.630409042
C        6.146195442  -0.023275350  17.646441296
C        6.154095874   2.803764514  17.707278108
C        0.000000000   4.938433643  17.625371677
C        0.000000000   6.366398469  17.557860590
C        1.218618895   4.213414586  17.623481064
C        1.220087344   7.070432396  17.339650184
C        2.422260276   4.910128182  17.278412486
C        2.308217919   6.271238322  16.893010186
C        3.689036991   4.215727640  17.298019315
C        4.955813706   4.910128182  17.278412486
C        5.069856063   6.271238322  16.893010186
C        6.159455088   4.213414586  17.623481064
C        6.157986639   7.070432396  17.339650184
C        0.000000000   9.208876191  17.516461969
C        0.000000000  10.625601903  17.609333801
C        1.229694163   8.506088263  17.373924732
C        1.225791396  11.339034530  17.656067888
C        2.461326806   9.243204821  17.387044814
C        2.455915165  10.642759064  17.634987231
C        3.689036991   8.648206049  17.047764527
C        3.689036991  11.344380536  17.674876145
C        4.916747176   9.243204821  17.387044814
C        4.922158817  10.642759064  17.634987231
C        6.148379820   8.506088263  17.373924732
C        6.152282587  11.339034530  17.656067888
C        0.000000000  13.464158326  17.628135714
C        0.000000000  14.884443122  17.602442479
C        1.227393257  12.756123905  17.658436831
C        1.229407736  15.595864085  17.599893147
C        2.457168586  13.461017850  17.642508460
C        2.457970434  14.881155536  17.599165029
C        3.689036991  12.759101592  17.670987894
C        3.689036991  15.591280720  17.595654787
C        4.920905396  13.461017850  17.642508460
C        4.920103548  14.881155536  17.599165029
C        6.150680726  12.756123905  17.658436831
C        6.148666247  15.595864085  17.599893147



     Writing output data file gc.save
     Check: negative starting charge=   -0.001850
     NEW-OLD atomic charge density approx. for the potential
     Check: negative starting charge=   -0.001847

     negative rho (up, down):  1.970E-03 0.000E+00

     total cpu time spent up to now is    51375.7 secs

     Self-consistent Calculation

     iteration #  1     ecut=    80.00 Ry     beta=0.70
     Davidson diagonalization with overlap
     ethr =  1.00E-06,  avg # of iterations = 10.2

     negative rho (up, down):  1.490E-03 0.000E+00

     total cpu time spent up to now is    51968.5 secs

     total energy              =  -12687.12269045 Ry
     Harris-Foulkes estimate   =  -12687.13215570 Ry
     estimated scf accuracy    <       0.09166868 Ry

     iteration #  2     ecut=    80.00 Ry     beta=0.70
     Davidson diagonalization with overlap
