
     Program PWSCF v.5.4.0 starts on  7Apr2017 at 17:29:39 

     This program is part of the open-source Quantum ESPRESSO suite
     for quantum simulation of materials; please cite
         "P. Giannozzi et al., J. Phys.:Condens. Matter 21 395502 (2009);
          URL http://www.quantum-espresso.org", 
     in publications or presentations arising from this work. More details at
     http://www.quantum-espresso.org/quote

     Parallel version (MPI & OpenMP), running on      56 processor cores
     Number of MPI processes:                56
     Threads/MPI process:                     1
     R & G space division:  proc/nbgrp/npool/nimage =      56
     Waiting for input...
     Reading input from standard input

     Current dimensions of program PWSCF are:
     Max number of different atomic species (ntypx) = 10
     Max number of k-points (npk) =  40000
     Max angular momentum in pseudopotentials (lmaxx) =  3

     -------------------------------------
     Parameters for Dispersion Correction:
     -------------------------------------
       atom      VdW radius       C_6     

        Cu         2.952        374.666
        C          2.744         60.710

     Subspace diagonalization in iterative solution of the eigenvalue problem:
     one sub-group per band group will be used
     scalapack distributed-memory algorithm (size of sub-group:  5*  5 procs)

 
     Parallelization info
     --------------------
     sticks:   dense  smooth     PW     G-vecs:    dense   smooth      PW
     Min         204     204     54                36612    36612    4962
     Max         205     205     55                36617    36617    4968
     Sum       11433   11433   3039              2050409  2050409  278033
 
     Generating pointlists ...
     new r_m :   0.1099 (alat units)  1.5317 (a.u.) for type    1
     new r_m :   0.0789 (alat units)  1.1002 (a.u.) for type    2


     bravais-lattice index     =            0
     lattice parameter (alat)  =      13.9425  a.u.
     unit-cell volume          =   21209.0878 (a.u.)^3
     number of atoms/cell      =          147
     number of atomic types    =            2
     number of electrons       =      1288.00
     number of Kohn-Sham states=          773
     kinetic-energy cutoff     =      80.0000  Ry
     charge density cutoff     =     320.0000  Ry
     convergence threshold     =      1.0E-08
     mixing beta               =       0.7000
     number of iterations used =            8  local-TF  mixing
     Exchange-correlation      =  SLA  PW   PBX  PBC ( 1  4  3  4 0 0)
     nstep                     =           50


     celldm(1)=  13.942539  celldm(2)=   0.000000  celldm(3)=   0.000000
     celldm(4)=   0.000000  celldm(5)=   0.000000  celldm(6)=   0.000000

     crystal axes: (cart. coord. in units of alat)
               a(1) = (   1.000000   0.000000   0.000000 )  
               a(2) = (   0.000000   2.309401   0.000000 )  
               a(3) = (   0.000000   0.000000   3.388418 )  

     reciprocal axes: (cart. coord. in units 2 pi/alat)
               b(1) = (  1.000000  0.000000  0.000000 )  
               b(2) = (  0.000000  0.433013  0.000000 )  
               b(3) = (  0.000000  0.000000  0.295123 )  


     PseudoPot. # 1 for Cu read from file:
     /home/549/hxw549/Short/pseudopotentials/Cu.pbe-n-van_ak.UPF
     MD5 check sum: 601f7c30f7467666bec936e0661ce3e1
     Pseudo is Ultrasoft + core correction, Zval = 11.0
     Generated by new atomic code, or converted to UPF format
     Using radial grid of  867 points,  6 beta functions with: 
                l(1) =   0
                l(2) =   0
                l(3) =   1
                l(4) =   1
                l(5) =   2
                l(6) =   2
     Q(r) pseudized with  8 coefficients,  rinner =    1.400   1.400   1.400
                                                       1.400   1.400

     PseudoPot. # 2 for C  read from file:
     /home/549/hxw549/Short/pseudopotentials/C.pbe-mt_gipaw.UPF
     MD5 check sum: 5ac2f21f2c440b14befe521540822c15
     Pseudo is Norm-conserving, Zval =  4.0
     Generated by new atomic code, or converted to UPF format
     Using radial grid of 1073 points,  1 beta functions with: 
                l(1) =   0

     atomic species   valence    mass     pseudopotential
        Cu            11.00    63.54600     Cu( 1.00)
        C              4.00    12.01070     C ( 1.00)

     Starting magnetic structure 
     atomic species   magnetization
        Cu           0.000
        C            1.000

      2 Sym. Ops. (no inversion) found



   Cartesian axes

     site n.     atom                  positions (alat units)
         1           Cu  tau(   1) = (   0.0000000   0.0114299   1.0040047  )
         2           Cu  tau(   2) = (   0.2498551   0.2410470   1.0049480  )
         3           Cu  tau(   3) = (   0.5000000   0.0119510   1.0038922  )
         4           Cu  tau(   4) = (   0.7501449   0.2410470   1.0049480  )
         5           Cu  tau(   5) = (   0.0000000   0.4698152   1.0052555  )
         6           Cu  tau(   6) = (   0.2500480   0.6987651   1.0042048  )
         7           Cu  tau(   7) = (   0.5000000   0.4693479   1.0050442  )
         8           Cu  tau(   8) = (   0.7499520   0.6987651   1.0042048  )
         9           Cu  tau(   9) = (   0.0000000   0.9297129   1.0030822  )
        10           Cu  tau(  10) = (   0.2500950   1.1622885   1.0024676  )
        11           Cu  tau(  11) = (   0.5000000   0.9297805   1.0028958  )
        12           Cu  tau(  12) = (   0.7499050   1.1622885   1.0024676  )
        13           Cu  tau(  13) = (   0.0000000   1.3949693   1.0032138  )
        14           Cu  tau(  14) = (   0.2499353   1.6271204   1.0038452  )
        15           Cu  tau(  15) = (   0.5000000   1.3951156   1.0030871  )
        16           Cu  tau(  16) = (   0.7500647   1.6271204   1.0038452  )
        17           Cu  tau(  17) = (   0.0000000   1.8590941   1.0036850  )
        18           Cu  tau(  18) = (   0.2501054   2.0903117   1.0035631  )
        19           Cu  tau(  19) = (   0.5000000   1.8584965   1.0039046  )
        20           Cu  tau(  20) = (   0.7498946   2.0903117   1.0035631  )
        21           Cu  tau(  21) = (   0.0000000   0.2406384   1.2551293  )
        22           Cu  tau(  22) = (   0.2500025   0.0114886   1.2537384  )
        23           Cu  tau(  23) = (   0.5000000   0.2408516   1.2556306  )
        24           Cu  tau(  24) = (   0.7499975   0.0114886   1.2537384  )
        25           Cu  tau(  25) = (   0.0000000   0.6999010   1.2537280  )
        26           Cu  tau(  26) = (   0.2500320   0.4700972   1.2553782  )
        27           Cu  tau(  27) = (   0.5000000   0.6996937   1.2531194  )
        28           Cu  tau(  28) = (   0.7499680   0.4700972   1.2553782  )
        29           Cu  tau(  29) = (   0.0000000   1.1621694   1.2494413  )
        30           Cu  tau(  30) = (   0.2500418   0.9304881   1.2506942  )
        31           Cu  tau(  31) = (   0.5000000   1.1621966   1.2493193  )
        32           Cu  tau(  32) = (   0.7499582   0.9304881   1.2506942  )
        33           Cu  tau(  33) = (   0.0000000   1.6267282   1.2505969  )
        34           Cu  tau(  34) = (   0.2501470   1.3941118   1.2502554  )
        35           Cu  tau(  35) = (   0.5000000   1.6262000   1.2514798  )
        36           Cu  tau(  36) = (   0.7498530   1.3941118   1.2502554  )
        37           Cu  tau(  37) = (   0.0000000   2.0903990   1.2517783  )
        38           Cu  tau(  38) = (   0.2500089   1.8589510   1.2510514  )
        39           Cu  tau(  39) = (   0.5000000   2.0906956   1.2510567  )
        40           Cu  tau(  40) = (   0.7499911   1.8589510   1.2510514  )
        41           Cu  tau(  41) = (   0.0000000   0.0102243   1.5040199  )
        42           Cu  tau(  42) = (   0.2504065   0.2413147   1.5072113  )
        43           Cu  tau(  43) = (   0.5000000   0.0095347   1.5040416  )
        44           Cu  tau(  44) = (   0.7495935   0.2413147   1.5072113  )
        45           Cu  tau(  45) = (   0.0000000   0.4704141   1.5057916  )
        46           Cu  tau(  46) = (   0.2500443   0.7016189   1.5041179  )
        47           Cu  tau(  47) = (   0.5000000   0.4723971   1.5068344  )
        48           Cu  tau(  48) = (   0.7499557   0.7016189   1.5041179  )
        49           Cu  tau(  49) = (   0.0000000   0.9323072   1.5000813  )
        50           Cu  tau(  50) = (   0.2502329   1.1621192   1.4986220  )
        51           Cu  tau(  51) = (   0.5000000   0.9316226   1.4999375  )
        52           Cu  tau(  52) = (   0.7497671   1.1621192   1.4986220  )
        53           Cu  tau(  53) = (   0.0000000   1.3941599   1.4979583  )
        54           Cu  tau(  54) = (   0.2500756   1.6269450   1.4983329  )
        55           Cu  tau(  55) = (   0.5000000   1.3923103   1.5000451  )
        56           Cu  tau(  56) = (   0.7499244   1.6269450   1.4983329  )
        57           Cu  tau(  57) = (   0.0000000   1.8590520   1.4993964  )
        58           Cu  tau(  58) = (   0.2497047   2.0896407   1.5013933  )
        59           Cu  tau(  59) = (   0.5000000   1.8606526   1.4984294  )
        60           Cu  tau(  60) = (   0.7502953   2.0896407   1.5013933  )
        61           Cu  tau(  61) = (   0.0000000   0.2398674   1.7546232  )
        62           Cu  tau(  62) = (   0.2499636   0.0070929   1.7541559  )
        63           Cu  tau(  63) = (   0.5000000   0.2386591   1.7547896  )
        64           Cu  tau(  64) = (   0.7500364   0.0070929   1.7541559  )
        65           Cu  tau(  65) = (   0.0000000   0.7025666   1.7511577  )
        66           Cu  tau(  66) = (   0.2527461   0.4749990   1.7586710  )
        67           Cu  tau(  67) = (   0.5000000   0.7091965   1.7583457  )
        68           Cu  tau(  68) = (   0.7472539   0.4749990   1.7586710  )
        69           Cu  tau(  69) = (   0.0000000   1.1650900   1.7480091  )
        70           Cu  tau(  70) = (   0.2522518   0.9348962   1.7507270  )
        71           Cu  tau(  71) = (   0.5000000   1.1564257   1.7542818  )
        72           Cu  tau(  72) = (   0.7477482   0.9348962   1.7507270  )
        73           Cu  tau(  73) = (   0.0000000   1.6281892   1.7452457  )
        74           Cu  tau(  74) = (   0.2504545   1.3949178   1.7447320  )
        75           Cu  tau(  75) = (   0.5000000   1.6313432   1.7420010  )
        76           Cu  tau(  76) = (   0.7495455   1.3949178   1.7447320  )
        77           Cu  tau(  77) = (   0.0000000   2.0875802   1.7525796  )
        78           Cu  tau(  78) = (   0.2493749   1.8592714   1.7488067  )
        79           Cu  tau(  79) = (   0.5000000   2.0875016   1.7534977  )
        80           Cu  tau(  80) = (   0.7506251   1.8592714   1.7488067  )
        81           Cu  tau(  81) = (   0.0000000   0.0040626   2.0027156  )
        82           Cu  tau(  82) = (   0.2452029   0.2365300   1.9992116  )
        83           Cu  tau(  83) = (   0.5000000   0.0081688   2.0026357  )
        84           Cu  tau(  84) = (   0.7547971   0.2365300   1.9992116  )
        85           Cu  tau(  85) = (   0.0000000   0.4767197   1.9944255  )
        86           Cu  tau(  86) = (   0.2626513   0.7124806   2.0021593  )
        87           Cu  tau(  87) = (   0.5000000   0.4615433   2.0031139  )
        88           Cu  tau(  88) = (   0.7373487   0.7124806   2.0021593  )
        89           Cu  tau(  89) = (   0.0000000   0.9334459   1.9836722  )
        90           Cu  tau(  90) = (   0.2536123   1.1701512   1.9941937  )
        91           Cu  tau(  91) = (   0.5000000   0.9442475   2.1067697  )
        92           Cu  tau(  92) = (   0.7463877   1.1701512   1.9941937  )
        93           Cu  tau(  93) = (   0.0000000   1.3995255   1.9884343  )
        94           Cu  tau(  94) = (   0.2477092   1.6285094   1.9914091  )
        95           Cu  tau(  95) = (   0.5000000   1.4065134   1.9797348  )
        96           Cu  tau(  96) = (   0.7522908   1.6285094   1.9914091  )
        97           Cu  tau(  97) = (   0.0000000   1.8571819   1.9993273  )
        98           Cu  tau(  98) = (   0.2512398   2.0849888   2.0022474  )
        99           Cu  tau(  99) = (   0.5000000   1.8539196   1.9981543  )
       100           Cu  tau( 100) = (   0.7487602   2.0849888   2.0022474  )
       101           C   tau( 101) = (   0.0000000   0.0763935   2.4123173  )
       102           C   tau( 102) = (   0.0000000   0.2690710   2.4079179  )
       103           C   tau( 103) = (   0.1667401  -0.0202214   2.4123486  )
       104           C   tau( 104) = (   0.1666915   0.3649484   2.3961056  )
       105           C   tau( 105) = (   0.3333036   0.0759121   2.4056507  )
       106           C   tau( 106) = (   0.3332900   0.2680665   2.3918667  )
       107           C   tau( 107) = (   0.5000000  -0.0207100   2.4064892  )
       108           C   tau( 108) = (   0.5000000   0.3636091   2.3730940  )
       109           C   tau( 109) = (   0.6666964   0.0759121   2.4056507  )
       110           C   tau( 110) = (   0.6667100   0.2680665   2.3918667  )
       111           C   tau( 111) = (   0.8332599  -0.0202214   2.4123486  )
       112           C   tau( 112) = (   0.8333085   0.3649484   2.3961056  )
       113           C   tau( 113) = (   0.0000000   0.6531960   2.3719671  )
       114           C   tau( 114) = (   0.0000000   0.8451636   2.3523002  )
       115           C   tau( 115) = (   0.1664835   0.5561729   2.3752335  )
       116           C   tau( 116) = (   0.1654040   0.9393028   2.3164416  )
       117           C   tau( 117) = (   0.3295355   0.6480537   2.3230578  )
       118           C   tau( 118) = (   0.3151753   0.8300253   2.2610116  )
       119           C   tau( 119) = (   0.5000000   0.5518722   2.3289251  )
       120           C   tau( 120) = (   0.6704645   0.6480537   2.3230578  )
       121           C   tau( 121) = (   0.6848247   0.8300253   2.2610116  )
       122           C   tau( 122) = (   0.8335165   0.5561729   2.3752335  )
       123           C   tau( 123) = (   0.8345960   0.9393028   2.3164416  )
       124           C   tau( 124) = (   0.0000000   1.2300786   2.3416615  )
       125           C   tau( 125) = (   0.0000000   1.4216303   2.3680717  )
       126           C   tau( 126) = (   0.1667644   1.1345517   2.3173478  )
       127           C   tau( 127) = (   0.1666172   1.5183638   2.3829051  )
       128           C   tau( 128) = (   0.3339285   1.2354636   2.3196766  )
       129           C   tau( 129) = (   0.3330536   1.4237187   2.3682443  )
       130           C   tau( 130) = (   0.5000000   1.1541151   2.2707367  )
       131           C   tau( 131) = (   0.5000000   1.5189281   2.3816836  )
       132           C   tau( 132) = (   0.6660715   1.2354636   2.3196766  )
       133           C   tau( 133) = (   0.6669464   1.4237187   2.3682443  )
       134           C   tau( 134) = (   0.8332356   1.1345517   2.3173478  )
       135           C   tau( 135) = (   0.8333828   1.5183638   2.3829051  )
       136           C   tau( 136) = (   0.0000000   1.8073328   2.4045424  )
       137           C   tau( 137) = (   0.0000000   1.9999916   2.4119657  )
       138           C   tau( 138) = (   0.1666562   1.7106401   2.4001728  )
       139           C   tau( 139) = (   0.1667002   2.0964109   2.4125786  )
       140           C   tau( 140) = (   0.3333305   1.8069450   2.4064485  )
       141           C   tau( 141) = (   0.3334046   1.9997163   2.4112258  )
       142           C   tau( 142) = (   0.5000000   1.7107590   2.4015077  )
       143           C   tau( 143) = (   0.5000000   2.0960631   2.4114670  )
       144           C   tau( 144) = (   0.6666695   1.8069450   2.4064485  )
       145           C   tau( 145) = (   0.6665954   1.9997163   2.4112258  )
       146           C   tau( 146) = (   0.8333438   1.7106401   2.4001728  )
       147           C   tau( 147) = (   0.8332998   2.0964109   2.4125786  )

     number of k points=     6  gaussian smearing, width (Ry)=  0.1000
                       cart. coord. in units 2pi/alat
        k(    1) = (   0.0000000   0.0000000   0.0000000), wk =   0.1250000
        k(    2) = (   0.0000000  -0.2165064   0.0000000), wk =   0.1250000
        k(    3) = (   0.2500000   0.0000000   0.0000000), wk =   0.2500000
        k(    4) = (   0.2500000  -0.2165064   0.0000000), wk =   0.2500000
        k(    5) = (  -0.5000000   0.0000000   0.0000000), wk =   0.1250000
        k(    6) = (  -0.5000000  -0.2165064   0.0000000), wk =   0.1250000

     Dense  grid:  2050409 G-vectors     FFT dimensions: (  80, 192, 270)

     Largest allocated arrays     est. size (Mb)     dimensions
        Kohn-Sham Wavefunctions        54.30 Mb     (    4604,  773)
        NL pseudopotentials           129.75 Mb     (    4604, 1847)
        Each V/rho on FFT grid          2.34 Mb     (   76800,   2)
        Each G-vector array             0.28 Mb     (   36616)
        G-vector shells                 0.14 Mb     (   17932)
     Largest temporary arrays     est. size (Mb)     dimensions
        Auxiliary wavefunctions       217.22 Mb     (    4604, 3092)
        Each subspace H/S matrix        5.83 Mb     (     618,  618)
        Each <psi_i|beta_j> matrix     21.79 Mb     (    1847,  773)
        Arrays for rho mixing           9.38 Mb     (   76800,    8)

     Initial potential from superposition of free atoms
     Check: negative starting charge=(component1):   -0.000909
     Check: negative starting charge=(component2):   -0.001252

     starting charge 1263.31751, renormalised to 1288.00000

     negative rho (up, down):  9.268E-04 1.277E-03
     Starting wfc are 1276 randomized atomic wfcs

     total cpu time spent up to now is      215.0 secs

     Self-consistent Calculation

     iteration #  1     ecut=    80.00 Ry     beta=0.70
     Davidson diagonalization with overlap
     c_bands:  5 eigenvalues not converged
     ethr =  1.00E-04,  avg # of iterations = 23.7

     negative rho (up, down):  1.079E+01 2.692E+01

     total cpu time spent up to now is     3778.4 secs

     total energy              =   -9815.07056383 Ry
     Harris-Foulkes estimate   =  -16648.05078657 Ry
     estimated scf accuracy    <  159557.14456914 Ry

     total magnetization       =    88.06 Bohr mag/cell
     absolute magnetization    =    89.96 Bohr mag/cell

     iteration #  2     ecut=    80.00 Ry     beta=0.70
     Davidson diagonalization with overlap
     ethr =  1.00E-02,  avg # of iterations =  9.2

     negative rho (up, down):  1.419E+01 1.775E+01

     total cpu time spent up to now is     5615.9 secs

     total energy              =  -12870.53019551 Ry
     Harris-Foulkes estimate   =  -13445.60641577 Ry
     estimated scf accuracy    <    8075.74543467 Ry

     total magnetization       =    27.28 Bohr mag/cell
     absolute magnetization    =    28.16 Bohr mag/cell

     iteration #  3     ecut=    80.00 Ry     beta=0.70
     Davidson diagonalization with overlap
     ethr =  1.00E-02,  avg # of iterations =  4.8

     negative rho (up, down):  1.387E+01 1.772E+01

     total cpu time spent up to now is     6390.2 secs

     total energy              =  -13210.01892734 Ry
     Harris-Foulkes estimate   =  -13154.21666864 Ry
     estimated scf accuracy    <   13704.93289117 Ry

     total magnetization       =    13.10 Bohr mag/cell
     absolute magnetization    =    14.83 Bohr mag/cell

     iteration #  4     ecut=    80.00 Ry     beta=0.70
     Davidson diagonalization with overlap
     ethr =  1.00E-02,  avg # of iterations =  2.9

     negative rho (up, down):  1.223E+01 1.390E+01

     total cpu time spent up to now is     6764.9 secs

     total energy              =  -12991.41159443 Ry
     Harris-Foulkes estimate   =  -13215.28567515 Ry
     estimated scf accuracy    <   17523.01198429 Ry

     total magnetization       =    10.59 Bohr mag/cell
     absolute magnetization    =    14.88 Bohr mag/cell

     iteration #  5     ecut=    80.00 Ry     beta=0.70
     Davidson diagonalization with overlap
     ethr =  1.00E-02,  avg # of iterations =  5.2

     negative rho (up, down):  1.035E+01 1.090E+01

     total cpu time spent up to now is     7758.1 secs

     total energy              =  -12986.39911406 Ry
     Harris-Foulkes estimate   =  -13248.27630089 Ry
     estimated scf accuracy    <    7572.27114714 Ry

     total magnetization       =    12.72 Bohr mag/cell
     absolute magnetization    =    13.20 Bohr mag/cell

     iteration #  6     ecut=    80.00 Ry     beta=0.70
     Davidson diagonalization with overlap
     ethr =  1.00E-02,  avg # of iterations =  4.0

     negative rho (up, down):  9.089E+00 9.451E+00

     total cpu time spent up to now is     8572.2 secs

     total energy              =  -13033.14277290 Ry
     Harris-Foulkes estimate   =  -13128.76652219 Ry
     estimated scf accuracy    <    4095.33426202 Ry

     total magnetization       =     4.74 Bohr mag/cell
     absolute magnetization    =     6.64 Bohr mag/cell

     iteration #  7     ecut=    80.00 Ry     beta=0.70
     Davidson diagonalization with overlap
     ethr =  1.00E-02,  avg # of iterations =  3.0

     negative rho (up, down):  7.980E+00 8.340E+00

     total cpu time spent up to now is     8993.0 secs

     total energy              =  -12978.31568374 Ry
     Harris-Foulkes estimate   =  -13048.79949067 Ry
     estimated scf accuracy    <    2969.10442875 Ry

     total magnetization       =     3.52 Bohr mag/cell
     absolute magnetization    =     5.86 Bohr mag/cell

     iteration #  8     ecut=    80.00 Ry     beta=0.70
     Davidson diagonalization with overlap
     ethr =  1.00E-02,  avg # of iterations =  1.2

     negative rho (up, down):  5.992E+00 6.301E+00

     total cpu time spent up to now is     9331.2 secs

     total energy              =  -12858.25407452 Ry
     Harris-Foulkes estimate   =  -12985.89248100 Ry
     estimated scf accuracy    <    2961.62272480 Ry

     total magnetization       =     3.52 Bohr mag/cell
     absolute magnetization    =     5.59 Bohr mag/cell

     iteration #  9     ecut=    80.00 Ry     beta=0.70
     Davidson diagonalization with overlap
     ethr =  1.00E-02,  avg # of iterations =  4.0

     negative rho (up, down):  5.354E+00 5.526E+00

     total cpu time spent up to now is     9910.2 secs

     total energy              =  -12845.15053629 Ry
     Harris-Foulkes estimate   =  -12895.64956586 Ry
     estimated scf accuracy    <    1897.86600606 Ry

     total magnetization       =     3.84 Bohr mag/cell
     absolute magnetization    =     5.70 Bohr mag/cell

     iteration # 10     ecut=    80.00 Ry     beta=0.70
     Davidson diagonalization with overlap
     ethr =  1.00E-02,  avg # of iterations =  3.1

     negative rho (up, down):  4.844E+00 4.969E+00

     total cpu time spent up to now is    10292.4 secs

     total energy              =  -12795.37321608 Ry
     Harris-Foulkes estimate   =  -12853.32967587 Ry
     estimated scf accuracy    <    1185.38976097 Ry

     total magnetization       =     1.97 Bohr mag/cell
     absolute magnetization    =     5.67 Bohr mag/cell

     iteration # 11     ecut=    80.00 Ry     beta=0.70
     Davidson diagonalization with overlap
     ethr =  1.00E-02,  avg # of iterations =  4.0

     negative rho (up, down):  3.868E+00 3.872E+00

     total cpu time spent up to now is    10897.7 secs

     total energy              =  -12794.18797530 Ry
     Harris-Foulkes estimate   =  -12841.98242785 Ry
     estimated scf accuracy    <     503.52072802 Ry

     total magnetization       =     2.31 Bohr mag/cell
     absolute magnetization    =     3.97 Bohr mag/cell

     iteration # 12     ecut=    80.00 Ry     beta=0.70
     Davidson diagonalization with overlap
     ethr =  1.00E-02,  avg # of iterations =  2.1

     negative rho (up, down):  3.500E+00 3.502E+00

     total cpu time spent up to now is    11263.3 secs

     total energy              =  -12806.70999216 Ry
     Harris-Foulkes estimate   =  -12821.08760554 Ry
     estimated scf accuracy    <     367.36269910 Ry

     total magnetization       =     0.83 Bohr mag/cell
     absolute magnetization    =     1.99 Bohr mag/cell

     iteration # 13     ecut=    80.00 Ry     beta=0.70
     Davidson diagonalization with overlap
     ethr =  1.00E-02,  avg # of iterations =  1.0

     negative rho (up, down):  2.889E+00 2.889E+00

     total cpu time spent up to now is    11597.1 secs

     total energy              =  -12785.36280121 Ry
     Harris-Foulkes estimate   =  -12808.66274670 Ry
     estimated scf accuracy    <     307.33405966 Ry

     total magnetization       =     0.68 Bohr mag/cell
     absolute magnetization    =     1.38 Bohr mag/cell

     iteration # 14     ecut=    80.00 Ry     beta=0.70
     Davidson diagonalization with overlap
     ethr =  1.00E-02,  avg # of iterations =  2.0

     negative rho (up, down):  1.475E+00 1.475E+00

     total cpu time spent up to now is    11954.7 secs

     total energy              =  -12743.24592638 Ry
     Harris-Foulkes estimate   =  -12793.60885615 Ry
     estimated scf accuracy    <     390.80374352 Ry

     total magnetization       =     0.72 Bohr mag/cell
     absolute magnetization    =     1.02 Bohr mag/cell

     iteration # 15     ecut=    80.00 Ry     beta=0.70
     Davidson diagonalization with overlap
     ethr =  1.00E-02,  avg # of iterations =  2.0

     negative rho (up, down):  1.175E+00 1.175E+00

     total cpu time spent up to now is    12326.5 secs

     total energy              =  -12762.38546475 Ry
     Harris-Foulkes estimate   =  -12777.04288760 Ry
     estimated scf accuracy    <     282.88203819 Ry

     total magnetization       =    -0.05 Bohr mag/cell
     absolute magnetization    =     0.71 Bohr mag/cell

     iteration # 16     ecut=    80.00 Ry     beta=0.70
     Davidson diagonalization with overlap
     ethr =  1.00E-02,  avg # of iterations =  2.0

     negative rho (up, down):  7.440E-01 7.437E-01

     total cpu time spent up to now is    12684.2 secs

     total energy              =  -12742.69418023 Ry
     Harris-Foulkes estimate   =  -12769.82122627 Ry
     estimated scf accuracy    <     251.10462738 Ry

     total magnetization       =    -0.07 Bohr mag/cell
     absolute magnetization    =     0.54 Bohr mag/cell

     iteration # 17     ecut=    80.00 Ry     beta=0.70
     Davidson diagonalization with overlap
     ethr =  1.00E-02,  avg # of iterations =  1.0

     negative rho (up, down):  7.636E-01 7.633E-01

     total cpu time spent up to now is    13018.2 secs

     total energy              =  -12733.59818607 Ry
     Harris-Foulkes estimate   =  -12747.17063929 Ry
     estimated scf accuracy    <     275.93799373 Ry

     total magnetization       =     0.01 Bohr mag/cell
     absolute magnetization    =     0.40 Bohr mag/cell

     iteration # 18     ecut=    80.00 Ry     beta=0.70
     Davidson diagonalization with overlap
     ethr =  1.00E-02,  avg # of iterations =  2.0

     negative rho (up, down):  1.208E+00 1.208E+00

     total cpu time spent up to now is    13376.2 secs

     total energy              =  -12722.97198721 Ry
     Harris-Foulkes estimate   =  -12740.48104711 Ry
     estimated scf accuracy    <     216.25951759 Ry

     total magnetization       =     0.09 Bohr mag/cell
     absolute magnetization    =     0.39 Bohr mag/cell

     iteration # 19     ecut=    80.00 Ry     beta=0.70
     Davidson diagonalization with overlap
     ethr =  1.00E-02,  avg # of iterations =  1.0

     negative rho (up, down):  1.177E+00 1.177E+00

     total cpu time spent up to now is    13709.7 secs

     total energy              =  -12714.81809664 Ry
     Harris-Foulkes estimate   =  -12726.37818476 Ry
     estimated scf accuracy    <     200.16633247 Ry

     total magnetization       =     0.16 Bohr mag/cell
     absolute magnetization    =     0.38 Bohr mag/cell

     iteration # 20     ecut=    80.00 Ry     beta=0.70
     Davidson diagonalization with overlap
     ethr =  1.00E-02,  avg # of iterations =  2.0

     negative rho (up, down):  1.249E+00 1.249E+00

     total cpu time spent up to now is    14067.4 secs

     total energy              =  -12708.35412105 Ry
     Harris-Foulkes estimate   =  -12722.94449670 Ry
     estimated scf accuracy    <     184.81132945 Ry

     total magnetization       =     0.27 Bohr mag/cell
     absolute magnetization    =     0.44 Bohr mag/cell

     iteration # 21     ecut=    80.00 Ry     beta=0.70
     Davidson diagonalization with overlap
     ethr =  1.00E-02,  avg # of iterations =  1.0

     negative rho (up, down):  6.833E-01 6.832E-01

     total cpu time spent up to now is    14401.3 secs

     total energy              =  -12706.13517668 Ry
     Harris-Foulkes estimate   =  -12714.38689960 Ry
     estimated scf accuracy    <     132.68409977 Ry

     total magnetization       =     0.22 Bohr mag/cell
     absolute magnetization    =     0.50 Bohr mag/cell

     iteration # 22     ecut=    80.00 Ry     beta=0.70
     Davidson diagonalization with overlap
     ethr =  1.00E-02,  avg # of iterations =  1.0

     negative rho (up, down):  4.872E-01 4.873E-01

     total cpu time spent up to now is    14735.2 secs

     total energy              =  -12701.49351872 Ry
     Harris-Foulkes estimate   =  -12709.01159612 Ry
     estimated scf accuracy    <      94.15107379 Ry

     total magnetization       =     0.29 Bohr mag/cell
     absolute magnetization    =     0.47 Bohr mag/cell

     iteration # 23     ecut=    80.00 Ry     beta=0.70
     Davidson diagonalization with overlap
     ethr =  7.31E-03,  avg # of iterations =  1.0

     negative rho (up, down):  8.091E-01 8.082E-01

     total cpu time spent up to now is    15069.6 secs

     total energy              =  -12694.20793242 Ry
     Harris-Foulkes estimate   =  -12703.44745243 Ry
     estimated scf accuracy    <      46.04900330 Ry

     total magnetization       =     0.19 Bohr mag/cell
     absolute magnetization    =     0.40 Bohr mag/cell

     iteration # 24     ecut=    80.00 Ry     beta=0.70
     Davidson diagonalization with overlap
     ethr =  3.58E-03,  avg # of iterations =  2.7

     negative rho (up, down):  1.262E-01 1.263E-01

     total cpu time spent up to now is    15457.7 secs

     total energy              =  -12695.25337242 Ry
     Harris-Foulkes estimate   =  -12698.60183201 Ry
     estimated scf accuracy    <     143.47068283 Ry

     total magnetization       =     0.21 Bohr mag/cell
     absolute magnetization    =     0.31 Bohr mag/cell

     iteration # 25     ecut=    80.00 Ry     beta=0.70
     Davidson diagonalization with overlap
     ethr =  3.58E-03,  avg # of iterations =  1.1

     negative rho (up, down):  8.073E-01 8.071E-01

     total cpu time spent up to now is    15794.3 secs

     total energy              =  -12695.04307271 Ry
     Harris-Foulkes estimate   =  -12697.33787689 Ry
     estimated scf accuracy    <      23.51687402 Ry

     total magnetization       =     0.09 Bohr mag/cell
     absolute magnetization    =     0.19 Bohr mag/cell

     iteration # 26     ecut=    80.00 Ry     beta=0.70
     Davidson diagonalization with overlap
     ethr =  1.83E-03,  avg # of iterations =  2.0

     negative rho (up, down):  4.293E-01 4.295E-01

     total cpu time spent up to now is    16156.1 secs

     total energy              =  -12695.32803301 Ry
     Harris-Foulkes estimate   =  -12696.75773512 Ry
     estimated scf accuracy    <      55.39361008 Ry

     total magnetization       =     0.09 Bohr mag/cell
     absolute magnetization    =     0.18 Bohr mag/cell

     iteration # 27     ecut=    80.00 Ry     beta=0.70
     Davidson diagonalization with overlap
     ethr =  1.83E-03,  avg # of iterations =  1.0

     negative rho (up, down):  1.965E-01 1.967E-01

     total cpu time spent up to now is    16490.5 secs

     total energy              =  -12691.80890484 Ry
     Harris-Foulkes estimate   =  -12696.40886908 Ry
     estimated scf accuracy    <      60.64531656 Ry

     total magnetization       =     0.09 Bohr mag/cell
     absolute magnetization    =     0.16 Bohr mag/cell

     iteration # 28     ecut=    80.00 Ry     beta=0.70
     Davidson diagonalization with overlap
     ethr =  1.83E-03,  avg # of iterations =  2.0

     negative rho (up, down):  2.445E-01 2.446E-01

     total cpu time spent up to now is    16848.7 secs

     total energy              =  -12691.77847526 Ry
     Harris-Foulkes estimate   =  -12694.10882763 Ry
     estimated scf accuracy    <      48.51513196 Ry

     total magnetization       =    -0.01 Bohr mag/cell
     absolute magnetization    =     0.12 Bohr mag/cell

     iteration # 29     ecut=    80.00 Ry     beta=0.70
     Davidson diagonalization with overlap
     ethr =  1.83E-03,  avg # of iterations =  1.0

     negative rho (up, down):  4.419E-01 4.420E-01

     total cpu time spent up to now is    17182.7 secs

     total energy              =  -12690.42530314 Ry
     Harris-Foulkes estimate   =  -12692.52729659 Ry
     estimated scf accuracy    <      26.23874921 Ry

     total magnetization       =    -0.00 Bohr mag/cell
     absolute magnetization    =     0.15 Bohr mag/cell

     iteration # 30     ecut=    80.00 Ry     beta=0.70
     Davidson diagonalization with overlap
     ethr =  1.83E-03,  avg # of iterations =  3.2

     negative rho (up, down):  4.864E-01 4.864E-01

     total cpu time spent up to now is    17577.1 secs

     total energy              =  -12705.63632953 Ry
     Harris-Foulkes estimate   =  -12702.77276454 Ry
     estimated scf accuracy    <     513.90013541 Ry

     total magnetization       =    -0.09 Bohr mag/cell
     absolute magnetization    =     0.22 Bohr mag/cell

     iteration # 31     ecut=    80.00 Ry     beta=0.70
     Davidson diagonalization with overlap
     ethr =  1.83E-03,  avg # of iterations =  1.0

     negative rho (up, down):  8.602E-02 8.614E-02

     total cpu time spent up to now is    17911.3 secs

     total energy              =  -12676.82471100 Ry
     Harris-Foulkes estimate   =  -12705.67041659 Ry
     estimated scf accuracy    <     530.65591936 Ry

     total magnetization       =    -0.10 Bohr mag/cell
     absolute magnetization    =     0.22 Bohr mag/cell

     iteration # 32     ecut=    80.00 Ry     beta=0.70
     Davidson diagonalization with overlap
     ethr =  1.83E-03,  avg # of iterations =  4.0

     negative rho (up, down):  2.665E-08 2.594E-08

     total cpu time spent up to now is    18438.7 secs

     total energy              =  -12690.92509925 Ry
     Harris-Foulkes estimate   =  -12690.57401924 Ry
     estimated scf accuracy    <      20.22522469 Ry

     total magnetization       =     0.01 Bohr mag/cell
     absolute magnetization    =     0.18 Bohr mag/cell

     iteration # 33     ecut=    80.00 Ry     beta=0.70
     Davidson diagonalization with overlap
     ethr =  1.57E-03,  avg # of iterations =  3.8

     negative rho (up, down):  1.318E-04 1.320E-04

     total cpu time spent up to now is    18845.1 secs

     total energy              =  -12689.44842248 Ry
     Harris-Foulkes estimate   =  -12692.92565553 Ry
     estimated scf accuracy    <      39.47610248 Ry

     total magnetization       =     0.03 Bohr mag/cell
     absolute magnetization    =     0.19 Bohr mag/cell

     iteration # 34     ecut=    80.00 Ry     beta=0.70
     Davidson diagonalization with overlap
     ethr =  1.57E-03,  avg # of iterations =  2.0

     negative rho (up, down):  5.638E-01 5.638E-01

     total cpu time spent up to now is    19203.0 secs

     total energy              =  -12685.60525066 Ry
     Harris-Foulkes estimate   =  -12690.67790507 Ry
     estimated scf accuracy    <      35.29790939 Ry

     total magnetization       =    -0.10 Bohr mag/cell
     absolute magnetization    =     0.14 Bohr mag/cell

     iteration # 35     ecut=    80.00 Ry     beta=0.70
     Davidson diagonalization with overlap
     ethr =  1.57E-03,  avg # of iterations =  3.3

     negative rho (up, down):  1.683E-01 1.683E-01

     total cpu time spent up to now is    19610.7 secs

     total energy              =  -12687.66135145 Ry
     Harris-Foulkes estimate   =  -12688.74358835 Ry
     estimated scf accuracy    <      27.98807912 Ry

     total magnetization       =    -0.14 Bohr mag/cell
     absolute magnetization    =     0.22 Bohr mag/cell

     iteration # 36     ecut=    80.00 Ry     beta=0.70
     Davidson diagonalization with overlap
     ethr =  1.57E-03,  avg # of iterations =  1.3

     negative rho (up, down):  9.315E-02 9.315E-02

     total cpu time spent up to now is    19950.9 secs

     total energy              =  -12686.79502560 Ry
     Harris-Foulkes estimate   =  -12688.15429683 Ry
     estimated scf accuracy    <      12.64126379 Ry

     total magnetization       =    -0.08 Bohr mag/cell
     absolute magnetization    =     0.14 Bohr mag/cell

     iteration # 37     ecut=    80.00 Ry     beta=0.70
     Davidson diagonalization with overlap
     ethr =  9.81E-04,  avg # of iterations =  1.1

     negative rho (up, down):  3.063E-02 3.063E-02

     total cpu time spent up to now is    20288.1 secs

     total energy              =  -12687.52817733 Ry
     Harris-Foulkes estimate   =  -12687.86971224 Ry
     estimated scf accuracy    <       2.43702971 Ry

     total magnetization       =    -0.02 Bohr mag/cell
     absolute magnetization    =     0.06 Bohr mag/cell

     iteration # 38     ecut=    80.00 Ry     beta=0.70
     Davidson diagonalization with overlap
     ethr =  1.89E-04,  avg # of iterations =  4.8

     negative rho (up, down):  9.084E-03 9.084E-03

     total cpu time spent up to now is    20717.7 secs

     total energy              =  -12687.60161830 Ry
     Harris-Foulkes estimate   =  -12687.70194405 Ry
     estimated scf accuracy    <       1.78887849 Ry

     total magnetization       =    -0.02 Bohr mag/cell
     absolute magnetization    =     0.06 Bohr mag/cell

     iteration # 39     ecut=    80.00 Ry     beta=0.70
     Davidson diagonalization with overlap
     ethr =  1.39E-04,  avg # of iterations =  5.2

     negative rho (up, down):  3.014E-02 3.014E-02

     total cpu time spent up to now is    21148.9 secs

     total energy              =  -12687.37765831 Ry
     Harris-Foulkes estimate   =  -12687.64330029 Ry
     estimated scf accuracy    <       2.85359054 Ry

     total magnetization       =    -0.01 Bohr mag/cell
     absolute magnetization    =     0.04 Bohr mag/cell

     iteration # 40     ecut=    80.00 Ry     beta=0.70
     Davidson diagonalization with overlap
     ethr =  1.39E-04,  avg # of iterations =  7.1

     total cpu time spent up to now is    21666.3 secs

     total energy              =  -12687.47408085 Ry
     Harris-Foulkes estimate   =  -12687.55067720 Ry
     estimated scf accuracy    <      13.63022061 Ry

     total magnetization       =     0.01 Bohr mag/cell
     absolute magnetization    =     0.05 Bohr mag/cell

     iteration # 41     ecut=    80.00 Ry     beta=0.70
     Davidson diagonalization with overlap
     ethr =  1.39E-04,  avg # of iterations =  9.2

     negative rho (up, down):  2.320E-07 2.320E-07

     total cpu time spent up to now is    22198.1 secs

     total energy              =  -12687.22197735 Ry
     Harris-Foulkes estimate   =  -12687.56789062 Ry
     estimated scf accuracy    <       7.82964938 Ry

     total magnetization       =     0.02 Bohr mag/cell
     absolute magnetization    =     0.04 Bohr mag/cell

     iteration # 42     ecut=    80.00 Ry     beta=0.70
     Davidson diagonalization with overlap
     ethr =  1.39E-04,  avg # of iterations =  9.2

     negative rho (up, down):  9.190E-03 9.190E-03

     total cpu time spent up to now is    22731.9 secs

     total energy              =  -12687.25383838 Ry
     Harris-Foulkes estimate   =  -12687.50320150 Ry
     estimated scf accuracy    <       2.18826208 Ry

     total magnetization       =    -0.00 Bohr mag/cell
     absolute magnetization    =     0.02 Bohr mag/cell

     iteration # 43     ecut=    80.00 Ry     beta=0.70
     Davidson diagonalization with overlap
     ethr =  1.39E-04,  avg # of iterations =  3.3

     negative rho (up, down):  1.295E-02 1.295E-02

     total cpu time spent up to now is    23120.9 secs

     total energy              =  -12687.17291083 Ry
     Harris-Foulkes estimate   =  -12687.38564604 Ry
     estimated scf accuracy    <       0.99899832 Ry

     total magnetization       =    -0.00 Bohr mag/cell
     absolute magnetization    =     0.01 Bohr mag/cell

     iteration # 44     ecut=    80.00 Ry     beta=0.70
     Davidson diagonalization with overlap
     ethr =  7.76E-05,  avg # of iterations =  6.7

     negative rho (up, down):  4.111E-02 4.111E-02

     total cpu time spent up to now is    23633.0 secs

     total energy              =  -12687.18298492 Ry
     Harris-Foulkes estimate   =  -12687.23059919 Ry
     estimated scf accuracy    <       0.72181258 Ry

     total magnetization       =     0.00 Bohr mag/cell
     absolute magnetization    =     0.02 Bohr mag/cell

     iteration # 45     ecut=    80.00 Ry     beta=0.70
     Davidson diagonalization with overlap
     ethr =  5.60E-05,  avg # of iterations =  7.2

     negative rho (up, down):  1.649E-02 1.649E-02

     total cpu time spent up to now is    24132.2 secs

     total energy              =  -12687.14096383 Ry
     Harris-Foulkes estimate   =  -12687.20263989 Ry
     estimated scf accuracy    <       0.49093564 Ry

     total magnetization       =     0.00 Bohr mag/cell
     absolute magnetization    =     0.03 Bohr mag/cell

     iteration # 46     ecut=    80.00 Ry     beta=0.70
     Davidson diagonalization with overlap
     ethr =  3.81E-05,  avg # of iterations =  6.2

     negative rho (up, down):  2.078E-02 2.078E-02

     total cpu time spent up to now is    24590.5 secs

     total energy              =  -12687.15126674 Ry
     Harris-Foulkes estimate   =  -12687.15996931 Ry
     estimated scf accuracy    <       0.16426390 Ry

     total magnetization       =     0.00 Bohr mag/cell
     absolute magnetization    =     0.01 Bohr mag/cell

     iteration # 47     ecut=    80.00 Ry     beta=0.70
     Davidson diagonalization with overlap
     ethr =  1.28E-05,  avg # of iterations =  4.0

     negative rho (up, down):  3.645E-02 3.645E-02

     total cpu time spent up to now is    24995.0 secs

     total energy              =  -12687.14697324 Ry
     Harris-Foulkes estimate   =  -12687.15424416 Ry
     estimated scf accuracy    <       0.07420216 Ry

     total magnetization       =     0.00 Bohr mag/cell
     absolute magnetization    =     0.01 Bohr mag/cell

     iteration # 48     ecut=    80.00 Ry     beta=0.70
     Davidson diagonalization with overlap
     ethr =  5.76E-06,  avg # of iterations =  9.8

     negative rho (up, down):  1.565E-02 1.565E-02

     total cpu time spent up to now is    25562.8 secs

     total energy              =  -12687.14826159 Ry
     Harris-Foulkes estimate   =  -12687.15078680 Ry
     estimated scf accuracy    <       0.01177772 Ry

     total magnetization       =     0.00 Bohr mag/cell
     absolute magnetization    =     0.01 Bohr mag/cell

     iteration # 49     ecut=    80.00 Ry     beta=0.70
     Davidson diagonalization with overlap
     ethr =  9.14E-07,  avg # of iterations = 12.5

     negative rho (up, down):  3.396E-03 3.396E-03

     total cpu time spent up to now is    26221.9 secs

     total energy              =  -12687.14852953 Ry
     Harris-Foulkes estimate   =  -12687.14939580 Ry
     estimated scf accuracy    <       0.00369760 Ry

     total magnetization       =    -0.00 Bohr mag/cell
     absolute magnetization    =     0.00 Bohr mag/cell

     iteration # 50     ecut=    80.00 Ry     beta=0.70
     Davidson diagonalization with overlap
     c_bands:  2 eigenvalues not converged
     c_bands:  1 eigenvalues not converged
     ethr =  2.87E-07,  avg # of iterations = 16.2

     negative rho (up, down):  5.558E-03 5.558E-03

     total cpu time spent up to now is    26976.7 secs

     total energy              =  -12687.14900399 Ry
     Harris-Foulkes estimate   =  -12687.14897922 Ry
     estimated scf accuracy    <       0.00126856 Ry

     total magnetization       =    -0.00 Bohr mag/cell
     absolute magnetization    =     0.00 Bohr mag/cell

     iteration # 51     ecut=    80.00 Ry     beta=0.70
     Davidson diagonalization with overlap
     ethr =  9.85E-08,  avg # of iterations =  7.6

     negative rho (up, down):  4.670E-03 4.670E-03

     total cpu time spent up to now is    27488.3 secs

     total energy              =  -12687.14907333 Ry
     Harris-Foulkes estimate   =  -12687.14914046 Ry
     estimated scf accuracy    <       0.00143021 Ry

     total magnetization       =    -0.00 Bohr mag/cell
     absolute magnetization    =     0.00 Bohr mag/cell

     iteration # 52     ecut=    80.00 Ry     beta=0.70
     Davidson diagonalization with overlap
     ethr =  9.85E-08,  avg # of iterations = 10.4

     negative rho (up, down):  3.310E-03 3.310E-03

     total cpu time spent up to now is    28078.1 secs

     total energy              =  -12687.14910624 Ry
     Harris-Foulkes estimate   =  -12687.14914682 Ry
     estimated scf accuracy    <       0.00007907 Ry

     total magnetization       =    -0.00 Bohr mag/cell
     absolute magnetization    =     0.00 Bohr mag/cell

     iteration # 53     ecut=    80.00 Ry     beta=0.70
     Davidson diagonalization with overlap
     ethr =  6.14E-09,  avg # of iterations =  6.5

     negative rho (up, down):  2.541E-03 2.541E-03

     total cpu time spent up to now is    28566.3 secs

     total energy              =  -12687.14908744 Ry
     Harris-Foulkes estimate   =  -12687.14911566 Ry
     estimated scf accuracy    <       0.00004952 Ry

     total magnetization       =    -0.00 Bohr mag/cell
     absolute magnetization    =     0.00 Bohr mag/cell

     iteration # 54     ecut=    80.00 Ry     beta=0.70
     Davidson diagonalization with overlap
     ethr =  3.84E-09,  avg # of iterations =  4.8

     negative rho (up, down):  1.508E-03 1.508E-03

     total cpu time spent up to now is    28991.8 secs

     total energy              =  -12687.14907378 Ry
     Harris-Foulkes estimate   =  -12687.14909237 Ry
     estimated scf accuracy    <       0.00001030 Ry

     total magnetization       =    -0.00 Bohr mag/cell
     absolute magnetization    =     0.00 Bohr mag/cell

     iteration # 55     ecut=    80.00 Ry     beta=0.70
     Davidson diagonalization with overlap
     c_bands:  1 eigenvalues not converged
     c_bands:  1 eigenvalues not converged
     ethr =  8.00E-10,  avg # of iterations = 11.8

     negative rho (up, down):  1.456E-03 1.456E-03

     total cpu time spent up to now is    29635.0 secs

     total energy              =  -12687.14907428 Ry
     Harris-Foulkes estimate   =  -12687.14907530 Ry
     estimated scf accuracy    <       0.00000485 Ry

     total magnetization       =     0.00 Bohr mag/cell
     absolute magnetization    =     0.00 Bohr mag/cell

     iteration # 56     ecut=    80.00 Ry     beta=0.70
     Davidson diagonalization with overlap
     ethr =  3.77E-10,  avg # of iterations =  2.0

     negative rho (up, down):  1.162E-03 1.162E-03

     total cpu time spent up to now is    30002.4 secs

     total energy              =  -12687.14907321 Ry
     Harris-Foulkes estimate   =  -12687.14907480 Ry
     estimated scf accuracy    <       0.00000131 Ry

     total magnetization       =    -0.00 Bohr mag/cell
     absolute magnetization    =     0.00 Bohr mag/cell

     iteration # 57     ecut=    80.00 Ry     beta=0.70
     Davidson diagonalization with overlap
     ethr =  1.02E-10,  avg # of iterations =  2.8

     negative rho (up, down):  1.078E-03 1.078E-03

     total cpu time spent up to now is    30394.7 secs

     total energy              =  -12687.14907280 Ry
     Harris-Foulkes estimate   =  -12687.14907339 Ry
     estimated scf accuracy    <       0.00000053 Ry

     total magnetization       =     0.00 Bohr mag/cell
     absolute magnetization    =     0.00 Bohr mag/cell

     iteration # 58     ecut=    80.00 Ry     beta=0.70
     Davidson diagonalization with overlap
     ethr =  4.12E-11,  avg # of iterations =  2.2

     negative rho (up, down):  1.020E-03 1.020E-03

     total cpu time spent up to now is    30766.7 secs

     total energy              =  -12687.14907240 Ry
     Harris-Foulkes estimate   =  -12687.14907286 Ry
     estimated scf accuracy    <       0.00000016 Ry

     total magnetization       =    -0.00 Bohr mag/cell
     absolute magnetization    =     0.00 Bohr mag/cell

     iteration # 59     ecut=    80.00 Ry     beta=0.70
     Davidson diagonalization with overlap
     ethr =  1.24E-11,  avg # of iterations =  2.5

     negative rho (up, down):  1.013E-03 1.013E-03

     total cpu time spent up to now is    31166.4 secs

     total energy              =  -12687.14907221 Ry
     Harris-Foulkes estimate   =  -12687.14907242 Ry
     estimated scf accuracy    <       0.00000005 Ry

     total magnetization       =     0.00 Bohr mag/cell
     absolute magnetization    =     0.00 Bohr mag/cell

     iteration # 60     ecut=    80.00 Ry     beta=0.70
     Davidson diagonalization with overlap
     ethr =  3.84E-12,  avg # of iterations =  3.0

     negative rho (up, down):  1.007E-03 1.007E-03

     total cpu time spent up to now is    31565.8 secs

     total energy              =  -12687.14907207 Ry
     Harris-Foulkes estimate   =  -12687.14907221 Ry
     estimated scf accuracy    <       0.00000002 Ry

     total magnetization       =    -0.00 Bohr mag/cell
     absolute magnetization    =     0.00 Bohr mag/cell

     iteration # 61     ecut=    80.00 Ry     beta=0.70
     Davidson diagonalization with overlap
     ethr =  1.70E-12,  avg # of iterations =  3.0

     negative rho (up, down):  9.936E-04 9.936E-04

     total cpu time spent up to now is    31970.1 secs

     total energy              =  -12687.14907189 Ry
     Harris-Foulkes estimate   =  -12687.14907208 Ry
     estimated scf accuracy    <       0.00000002 Ry

     total magnetization       =    -0.00 Bohr mag/cell
     absolute magnetization    =     0.00 Bohr mag/cell

     iteration # 62     ecut=    80.00 Ry     beta=0.70
     Davidson diagonalization with overlap
     ethr =  1.30E-12,  avg # of iterations =  3.0

     negative rho (up, down):  9.720E-04 9.720E-04
 
     Magnetic moment per site:
     atom:    1    charge:    8.5987    magn:   -0.0000    constr:    0.0000
     atom:    2    charge:    8.5991    magn:   -0.0000    constr:    0.0000
     atom:    3    charge:    8.5988    magn:   -0.0000    constr:    0.0000
     atom:    4    charge:    8.5991    magn:   -0.0000    constr:    0.0000
     atom:    5    charge:    8.5993    magn:   -0.0000    constr:    0.0000
     atom:    6    charge:    8.5990    magn:   -0.0000    constr:    0.0000
     atom:    7    charge:    8.5992    magn:   -0.0000    constr:    0.0000
     atom:    8    charge:    8.5990    magn:   -0.0000    constr:    0.0000
     atom:    9    charge:    8.5986    magn:    0.0000    constr:    0.0000
     atom:   10    charge:    8.5986    magn:    0.0000    constr:    0.0000
     atom:   11    charge:    8.5987    magn:   -0.0000    constr:    0.0000
     atom:   12    charge:    8.5986    magn:    0.0000    constr:    0.0000
     atom:   13    charge:    8.5984    magn:   -0.0000    constr:    0.0000
     atom:   14    charge:    8.5985    magn:    0.0000    constr:    0.0000
     atom:   15    charge:    8.5984    magn:   -0.0000    constr:    0.0000
     atom:   16    charge:    8.5985    magn:    0.0000    constr:    0.0000
     atom:   17    charge:    8.5990    magn:    0.0000    constr:    0.0000
     atom:   18    charge:    8.5987    magn:    0.0000    constr:    0.0000
     atom:   19    charge:    8.5992    magn:    0.0000    constr:    0.0000
     atom:   20    charge:    8.5987    magn:    0.0000    constr:    0.0000
     atom:   21    charge:    8.6008    magn:   -0.0000    constr:    0.0000
     atom:   22    charge:    8.6007    magn:    0.0000    constr:    0.0000
     atom:   23    charge:    8.6007    magn:    0.0000    constr:    0.0000
     atom:   24    charge:    8.6007    magn:    0.0000    constr:    0.0000
     atom:   25    charge:    8.6010    magn:   -0.0000    constr:    0.0000
     atom:   26    charge:    8.6008    magn:   -0.0000    constr:    0.0000
     atom:   27    charge:    8.6011    magn:    0.0000    constr:    0.0000
     atom:   28    charge:    8.6008    magn:   -0.0000    constr:    0.0000
     atom:   29    charge:    8.6008    magn:   -0.0000    constr:    0.0000
     atom:   30    charge:    8.6010    magn:    0.0000    constr:    0.0000
     atom:   31    charge:    8.6008    magn:   -0.0000    constr:    0.0000
     atom:   32    charge:    8.6010    magn:    0.0000    constr:    0.0000
     atom:   33    charge:    8.6007    magn:   -0.0000    constr:    0.0000
     atom:   34    charge:    8.6007    magn:    0.0000    constr:    0.0000
     atom:   35    charge:    8.6004    magn:   -0.0000    constr:    0.0000
     atom:   36    charge:    8.6007    magn:    0.0000    constr:    0.0000
     atom:   37    charge:    8.6011    magn:   -0.0000    constr:    0.0000
     atom:   38    charge:    8.6012    magn:   -0.0000    constr:    0.0000
     atom:   39    charge:    8.6013    magn:    0.0000    constr:    0.0000
     atom:   40    charge:    8.6012    magn:   -0.0000    constr:    0.0000
     atom:   41    charge:    8.6002    magn:   -0.0000    constr:    0.0000
     atom:   42    charge:    8.5988    magn:    0.0000    constr:    0.0000
     atom:   43    charge:    8.6002    magn:    0.0000    constr:    0.0000
     atom:   44    charge:    8.5988    magn:    0.0000    constr:    0.0000
     atom:   45    charge:    8.5995    magn:    0.0000    constr:    0.0000
     atom:   46    charge:    8.5999    magn:    0.0000    constr:    0.0000
     atom:   47    charge:    8.5994    magn:   -0.0000    constr:    0.0000
     atom:   48    charge:    8.5999    magn:    0.0000    constr:    0.0000
     atom:   49    charge:    8.6012    magn:   -0.0000    constr:    0.0000
     atom:   50    charge:    8.6007    magn:    0.0000    constr:    0.0000
     atom:   51    charge:    8.6002    magn:    0.0000    constr:    0.0000
     atom:   52    charge:    8.6007    magn:    0.0000    constr:    0.0000
     atom:   53    charge:    8.6002    magn:    0.0000    constr:    0.0000
     atom:   54    charge:    8.6004    magn:    0.0000    constr:    0.0000
     atom:   55    charge:    8.5999    magn:    0.0000    constr:    0.0000
     atom:   56    charge:    8.6004    magn:    0.0000    constr:    0.0000
     atom:   57    charge:    8.6011    magn:    0.0000    constr:    0.0000
     atom:   58    charge:    8.6014    magn:   -0.0000    constr:    0.0000
     atom:   59    charge:    8.6016    magn:    0.0000    constr:    0.0000
     atom:   60    charge:    8.6014    magn:   -0.0000    constr:    0.0000
     atom:   61    charge:    8.6004    magn:    0.0000    constr:    0.0000
     atom:   62    charge:    8.6021    magn:    0.0000    constr:    0.0000
     atom:   63    charge:    8.6009    magn:    0.0000    constr:    0.0000
     atom:   64    charge:    8.6021    magn:    0.0000    constr:    0.0000
     atom:   65    charge:    8.6006    magn:    0.0000    constr:    0.0000
     atom:   66    charge:    8.5982    magn:    0.0000    constr:    0.0000
     atom:   67    charge:    8.5985    magn:    0.0000    constr:    0.0000
     atom:   68    charge:    8.5982    magn:    0.0000    constr:    0.0000
     atom:   69    charge:    8.6014    magn:    0.0000    constr:    0.0000
     atom:   70    charge:    8.6033    magn:    0.0000    constr:    0.0000
     atom:   71    charge:    8.5992    magn:    0.0000    constr:    0.0000
     atom:   72    charge:    8.6033    magn:    0.0000    constr:    0.0000
     atom:   73    charge:    8.6029    magn:    0.0000    constr:    0.0000
     atom:   74    charge:    8.6015    magn:    0.0000    constr:    0.0000
     atom:   75    charge:    8.6050    magn:    0.0000    constr:    0.0000
     atom:   76    charge:    8.6015    magn:    0.0000    constr:    0.0000
     atom:   77    charge:    8.6027    magn:    0.0000    constr:    0.0000
     atom:   78    charge:    8.6032    magn:    0.0000    constr:    0.0000
     atom:   79    charge:    8.6019    magn:    0.0000    constr:    0.0000
     atom:   80    charge:    8.6032    magn:    0.0000    constr:    0.0000
     atom:   81    charge:    8.6046    magn:    0.0000    constr:    0.0000
     atom:   82    charge:    8.6065    magn:    0.0000    constr:    0.0000
     atom:   83    charge:    8.6032    magn:    0.0000    constr:    0.0000
     atom:   84    charge:    8.6065    magn:    0.0000    constr:    0.0000
     atom:   85    charge:    8.6067    magn:    0.0000    constr:    0.0000
     atom:   86    charge:    8.5998    magn:    0.0000    constr:    0.0000
     atom:   87    charge:    8.6058    magn:    0.0000    constr:    0.0000
     atom:   88    charge:    8.5998    magn:    0.0000    constr:    0.0000
     atom:   89    charge:    8.6165    magn:    0.0000    constr:    0.0000
     atom:   90    charge:    8.6052    magn:    0.0000    constr:    0.0000
     atom:   91    charge:    8.5707    magn:   -0.0000    constr:    0.0000
     atom:   92    charge:    8.6052    magn:    0.0000    constr:    0.0000
     atom:   93    charge:    8.6105    magn:    0.0000    constr:    0.0000
     atom:   94    charge:    8.6079    magn:    0.0000    constr:    0.0000
     atom:   95    charge:    8.6156    magn:    0.0000    constr:    0.0000
     atom:   96    charge:    8.6079    magn:    0.0000    constr:    0.0000
     atom:   97    charge:    8.6044    magn:    0.0000    constr:    0.0000
     atom:   98    charge:    8.6035    magn:    0.0000    constr:    0.0000
     atom:   99    charge:    8.6045    magn:    0.0000    constr:    0.0000
     atom:  100    charge:    8.6035    magn:    0.0000    constr:    0.0000
     atom:  101    charge:    1.6917    magn:    0.0000    constr:    0.0000
     atom:  102    charge:    1.6927    magn:   -0.0000    constr:    0.0000
     atom:  103    charge:    1.6923    magn:   -0.0000    constr:    0.0000
     atom:  104    charge:    1.6919    magn:    0.0000    constr:    0.0000
     atom:  105    charge:    1.6917    magn:    0.0000    constr:    0.0000
     atom:  106    charge:    1.6909    magn:   -0.0000    constr:    0.0000
     atom:  107    charge:    1.6935    magn:   -0.0000    constr:    0.0000
     atom:  108    charge:    1.6872    magn:    0.0000    constr:    0.0000
     atom:  109    charge:    1.6917    magn:    0.0000    constr:    0.0000
     atom:  110    charge:    1.6909    magn:   -0.0000    constr:    0.0000
     atom:  111    charge:    1.6923    magn:   -0.0000    constr:    0.0000
     atom:  112    charge:    1.6919    magn:    0.0000    constr:    0.0000
     atom:  113    charge:    1.6935    magn:    0.0000    constr:    0.0000
     atom:  114    charge:    1.6851    magn:   -0.0000    constr:    0.0000
     atom:  115    charge:    1.6879    magn:   -0.0000    constr:    0.0000
     atom:  116    charge:    1.6717    magn:    0.0000    constr:    0.0000
     atom:  117    charge:    1.6713    magn:    0.0000    constr:    0.0000
     atom:  118    charge:    1.6229    magn:   -0.0000    constr:    0.0000
     atom:  119    charge:    1.6719    magn:   -0.0000    constr:    0.0000
     atom:  120    charge:    1.6713    magn:    0.0000    constr:    0.0000
     atom:  121    charge:    1.6229    magn:   -0.0000    constr:    0.0000
     atom:  122    charge:    1.6879    magn:   -0.0000    constr:    0.0000
     atom:  123    charge:    1.6717    magn:    0.0000    constr:    0.0000
     atom:  124    charge:    1.6822    magn:   -0.0000    constr:    0.0000
     atom:  125    charge:    1.6869    magn:    0.0000    constr:    0.0000
     atom:  126    charge:    1.6742    magn:   -0.0000    constr:    0.0000
     atom:  127    charge:    1.6900    magn:   -0.0000    constr:    0.0000
     atom:  128    charge:    1.6795    magn:    0.0000    constr:    0.0000
     atom:  129    charge:    1.6891    magn:   -0.0000    constr:    0.0000
     atom:  130    charge:    1.6268    magn:   -0.0000    constr:    0.0000
     atom:  131    charge:    1.6925    magn:   -0.0000    constr:    0.0000
     atom:  132    charge:    1.6795    magn:    0.0000    constr:    0.0000
     atom:  133    charge:    1.6891    magn:   -0.0000    constr:    0.0000
     atom:  134    charge:    1.6742    magn:   -0.0000    constr:    0.0000
     atom:  135    charge:    1.6900    magn:   -0.0000    constr:    0.0000
     atom:  136    charge:    1.6908    magn:   -0.0000    constr:    0.0000
     atom:  137    charge:    1.6931    magn:   -0.0000    constr:    0.0000
     atom:  138    charge:    1.6904    magn:    0.0000    constr:    0.0000
     atom:  139    charge:    1.6910    magn:    0.0000    constr:    0.0000
     atom:  140    charge:    1.6915    magn:   -0.0000    constr:    0.0000
     atom:  141    charge:    1.6922    magn:   -0.0000    constr:    0.0000
     atom:  142    charge:    1.6930    magn:    0.0000    constr:    0.0000
     atom:  143    charge:    1.6942    magn:    0.0000    constr:    0.0000
     atom:  144    charge:    1.6915    magn:   -0.0000    constr:    0.0000
     atom:  145    charge:    1.6922    magn:   -0.0000    constr:    0.0000
     atom:  146    charge:    1.6904    magn:    0.0000    constr:    0.0000
     atom:  147    charge:    1.6910    magn:    0.0000    constr:    0.0000

     total cpu time spent up to now is    32353.4 secs

     End of self-consistent calculation

 ------ SPIN UP ------------


          k = 0.0000 0.0000 0.0000 (256287 PWs)   bands (ev):

   -16.0208 -15.7153 -15.5479 -14.5983 -14.5301 -14.0835 -14.0046 -13.7816
   -13.7497 -13.6563 -13.3753 -12.8268 -12.7971 -12.7302 -12.5979 -12.5876
   -11.8597 -11.0549 -10.9599 -10.9418 -10.8451 -10.2127  -9.6021  -9.1855
    -9.0831  -9.0640  -8.6178  -8.2519  -8.2104  -8.0633  -7.7068  -7.2886
    -7.2464  -7.1996  -7.1740  -7.1690  -6.7993  -6.7360  -6.1974  -5.7589
    -5.6645  -5.6497  -5.5753  -5.4972  -5.4967  -5.2348  -5.2253  -5.0936
    -5.0486  -4.9227  -4.6812  -4.4415  -4.3747  -4.2654  -4.2283  -4.2135
    -3.9435  -3.8663  -3.7475  -3.7257  -3.7135  -3.3320  -3.2655  -3.2357
    -3.1763  -3.1644  -3.1446  -3.0950  -3.0705  -2.9812  -2.8943  -2.8821
    -2.7933  -2.7508  -2.7464  -2.7454  -2.7129  -2.6757  -2.6237  -2.5959
    -2.5763  -2.5454  -2.4918  -2.4628  -2.4296  -2.3729  -2.3366  -2.2231
    -2.1962  -2.1719  -2.1574  -2.0850  -2.0050  -2.0014  -1.9544  -1.9338
    -1.9122  -1.8904  -1.8864  -1.8863  -1.8852  -1.8573  -1.8476  -1.8148
    -1.7642  -1.7596  -1.7559  -1.7403  -1.7099  -1.6895  -1.6616  -1.6323
    -1.5658  -1.5107  -1.4894  -1.4711  -1.4691  -1.4542  -1.4298  -1.4160
    -1.4070  -1.3898  -1.3799  -1.3537  -1.3441  -1.3152  -1.3058  -1.3028
    -1.2927  -1.2843  -1.2630  -1.2603  -1.2495  -1.2442  -1.2333  -1.2222
    -1.1916  -1.1804  -1.1511  -1.1421  -1.1375  -1.1163  -1.1088  -1.0651
    -1.0324  -1.0262  -0.9997  -0.9918  -0.9836  -0.9428  -0.9414  -0.9278
    -0.9232  -0.9059  -0.9028  -0.8967  -0.8956  -0.8817  -0.8494  -0.8450
    -0.8103  -0.7927  -0.7856  -0.7741  -0.7720  -0.7706  -0.7627  -0.7592
    -0.7530  -0.7529  -0.7472  -0.7429  -0.7293  -0.7195  -0.6981  -0.6938
    -0.6883  -0.6825  -0.6744  -0.6639  -0.6602  -0.6338  -0.6313  -0.6123
    -0.6094  -0.6039  -0.5998  -0.5954  -0.5944  -0.5934  -0.5871  -0.5852
    -0.5840  -0.5804  -0.5769  -0.5749  -0.5740  -0.5679  -0.5671  -0.5391
    -0.5378  -0.5143  -0.4960  -0.4830  -0.4643  -0.4359  -0.4279  -0.4204
    -0.4137  -0.4062  -0.4034  -0.3939  -0.3902  -0.3796  -0.3583  -0.3567
    -0.3454  -0.3412  -0.3331  -0.3210  -0.3129  -0.3126  -0.3001  -0.2990
    -0.2893  -0.2845  -0.2784  -0.2664  -0.2631  -0.2422  -0.2374  -0.2232
    -0.1922  -0.1784  -0.1781  -0.1704  -0.1659  -0.1579  -0.1467  -0.1460
    -0.1442  -0.1430  -0.1405  -0.1344  -0.1315  -0.1265  -0.1217  -0.1193
    -0.1182  -0.1135  -0.1048  -0.1024  -0.0831  -0.0772  -0.0699  -0.0484
    -0.0443  -0.0315  -0.0264  -0.0257  -0.0189  -0.0031   0.0021   0.0032
     0.0067   0.0073   0.0127   0.0199   0.0259   0.0363   0.0414   0.0441
     0.0470   0.0487   0.0512   0.0556   0.0557   0.0623   0.0645   0.0678
     0.0729   0.0810   0.0933   0.1004   0.1219   0.1249   0.1272   0.1345
     0.1364   0.1464   0.1514   0.1734   0.1759   0.1846   0.1930   0.1980
     0.2008   0.2024   0.2089   0.2095   0.2110   0.2300   0.2350   0.2429
     0.2531   0.2543   0.2610   0.2669   0.2689   0.2741   0.2743   0.2891
     0.2908   0.2943   0.3061   0.3096   0.3108   0.3144   0.3173   0.3216
     0.3221   0.3261   0.3325   0.3345   0.3490   0.3551   0.3623   0.3647
     0.3675   0.3769   0.3898   0.4008   0.4139   0.4243   0.4248   0.4324
     0.4388   0.4584   0.4679   0.4778   0.4884   0.4952   0.4965   0.5072
     0.5087   0.5224   0.5241   0.5293   0.5361   0.5386   0.5459   0.5480
     0.5777   0.5815   0.5900   0.6009   0.6014   0.6039   0.6080   0.6158
     0.6186   0.6260   0.6301   0.6381   0.6536   0.6553   0.6692   0.6794
     0.6804   0.6822   0.6925   0.7030   0.7090   0.7129   0.7184   0.7216
     0.7354   0.7427   0.7467   0.7518   0.7573   0.7595   0.7675   0.7701
     0.7739   0.7855   0.7896   0.7955   0.7969   0.8020   0.8042   0.8105
     0.8117   0.8164   0.8218   0.8243   0.8337   0.8382   0.8388   0.8525
     0.8599   0.8625   0.8676   0.8737   0.8817   0.8856   0.8918   0.8925
     0.9050   0.9086   0.9143   0.9171   0.9244   0.9304   0.9335   0.9393
     0.9427   0.9504   0.9509   0.9525   0.9595   0.9610   0.9647   0.9721
     0.9769   0.9792   0.9811   0.9857   0.9940   1.0001   1.0011   1.0041
     1.0082   1.0113   1.0116   1.0126   1.0149   1.0276   1.0330   1.0373
     1.0388   1.0540   1.0560   1.0708   1.0713   1.0840   1.0879   1.0916
     1.1005   1.1071   1.1096   1.1196   1.1249   1.1355   1.1423   1.1436
     1.1491   1.1565   1.1633   1.1643   1.1683   1.1718   1.1774   1.1840
     1.1866   1.1996   1.1998   1.2016   1.2072   1.2148   1.2171   1.2226
     1.2265   1.2297   1.2383   1.2460   1.2509   1.2575   1.2592   1.2689
     1.2714   1.2724   1.2760   1.2764   1.2804   1.2827   1.2856   1.2881
     1.2949   1.2999   1.3049   1.3083   1.3133   1.3162   1.3235   1.3288
     1.3415   1.3465   1.3529   1.3563   1.3607   1.3661   1.3731   1.3774
     1.3780   1.3824   1.3835   1.3895   1.3975   1.3988   1.3998   1.4027
     1.4108   1.4158   1.4229   1.4314   1.4331   1.4415   1.4460   1.4512
     1.4607   1.4669   1.4695   1.4700   1.4745   1.4778   1.4834   1.4901
     1.4923   1.4943   1.5024   1.5034   1.5067   1.5141   1.5148   1.5209
     1.5216   1.5228   1.5278   1.5312   1.5370   1.5386   1.5413   1.5542
     1.5550   1.5574   1.5604   1.5608   1.5682   1.5711   1.5713   1.5760
     1.5767   1.5768   1.5799   1.5822   1.6005   1.6047   1.6155   1.6235
     1.6300   1.6305   1.6373   1.6394   1.6414   1.6430   1.6459   1.6477
     1.6566   1.6624   1.6680   1.6684   1.6755   1.6767   1.6782   1.6838
     1.6869   1.6923   1.6950   1.6992   1.6999   1.7014   1.7080   1.7084
     1.7087   1.7143   1.7183   1.7187   1.7259   1.7312   1.7367   1.7426
     1.7467   1.7482   1.7611   1.7753   1.7797   1.7835   1.7952   1.8150
     1.8157   1.8223   1.8304   1.8339   1.8514   1.8517   1.8594   1.8599
     1.8764   1.8889   1.9024   1.9062   1.9064   1.9128   1.9184   1.9285
     1.9454   2.1008   2.2206   2.2730   2.3739   2.3883   2.4382   2.4490
     2.4718   2.4720   2.4784   2.4817   2.4884   2.4963   2.5195   2.5888
     2.6670   2.6686   2.7185   2.7446   2.7488   2.7539   2.7637   2.8459
     2.8879   2.8951   2.9897   3.0246   3.2704   3.3684   3.4325   3.4965
     3.5694   3.7355   3.8123   3.8363   3.9028   4.0994   4.1111   4.1122
     4.1641   4.2015   4.2077   4.2191   4.2586   4.2661   4.2866   4.2921
     4.3103   4.3290   4.3811   4.3998   4.4702   4.5713   4.5788   4.8427
     4.9512   4.9536   5.0329   5.1263   5.2537   5.2613   5.3303   5.5558
     5.6783   5.7096   5.8348   5.9036   5.9892   6.0698   6.1958   6.2152
     6.3499   6.5072   6.6102   6.6238   6.6758   6.6784   6.7042   6.7172
     6.8078   6.8273   6.8784   6.9234   6.9457   6.9962   6.9988   7.0159
     7.0774   7.0998   7.1588   7.2998   7.3383   7.3753   7.4263   7.4599
     7.5673   7.5759   7.6263   7.7603   7.8442   7.8588   7.8755   7.9119
     7.9569   7.9877   7.9881   8.0098   8.0290   8.1005   8.4166   8.4214
     8.4287   8.4496   8.5453   8.5527   8.5781   8.5896   8.6154   8.6430
     8.6522   8.6941   8.7231   8.7277   8.7820   8.8648   8.8721   8.9220
     8.9479   8.9743   9.0250   9.0878   9.1174   9.1338   9.1354   9.1962
     9.2236   9.3068   9.3364   9.3563   9.3952   9.4391   9.4767   9.4790
     9.5351   9.5535   9.6062   9.6125   9.6653   9.7911   9.8597   9.9559
     9.9849  10.0149  10.0153  10.0912  10.1164

          k = 0.0000-0.2165 0.0000 (256176 PWs)   bands (ev):

   -15.9772 -15.8640 -15.2454 -15.1038 -14.0241 -14.0136 -13.9605 -13.9355
   -13.7659 -13.6146 -13.3422 -13.2777 -13.1993 -12.6934 -11.9661 -11.8720
   -11.8230 -11.8212 -11.6165 -10.9084 -10.0493 -10.0089  -9.9306  -9.4838
    -8.7724  -8.6412  -8.6366  -8.5091  -8.4790  -8.0754  -7.7919  -7.7366
    -7.5735  -7.0040  -6.6093  -6.5634  -6.5481  -6.5151  -6.4795  -6.2345
    -5.9443  -5.8939  -5.6374  -5.6230  -5.5262  -5.2304  -4.8812  -4.8321
    -4.7226  -4.6957  -4.6339  -4.5804  -4.5716  -4.3616  -4.2843  -4.2023
    -4.1198  -4.0469  -4.0098  -3.7903  -3.7708  -3.2986  -3.2628  -3.1619
    -3.0844  -3.0468  -3.0458  -2.9920  -2.9323  -2.9003  -2.8310  -2.7871
    -2.7840  -2.7740  -2.7281  -2.6979  -2.6890  -2.6117  -2.5677  -2.5509
    -2.5241  -2.5226  -2.4480  -2.3538  -2.3481  -2.3299  -2.3076  -2.3061
    -2.2962  -2.2854  -2.2493  -2.2380  -2.0984  -2.0312  -1.9965  -1.9893
    -1.9841  -1.9581  -1.9093  -1.8906  -1.8898  -1.8839  -1.8707  -1.7916
    -1.7406  -1.7367  -1.7187  -1.7090  -1.6956  -1.6946  -1.6430  -1.6349
    -1.6208  -1.6055  -1.5353  -1.5078  -1.5008  -1.4915  -1.4826  -1.4766
    -1.4719  -1.4646  -1.4556  -1.4183  -1.3895  -1.3843  -1.3670  -1.3366
    -1.3114  -1.2734  -1.2261  -1.2048  -1.1965  -1.1902  -1.1611  -1.1508
    -1.1403  -1.1101  -1.1052  -1.0602  -1.0553  -1.0361  -1.0274  -1.0163
    -1.0117  -1.0092  -1.0035  -0.9991  -0.9929  -0.9886  -0.9771  -0.9740
    -0.9652  -0.9491  -0.9264  -0.9226  -0.9210  -0.9061  -0.8737  -0.8628
    -0.8502  -0.8491  -0.8312  -0.8236  -0.8161  -0.7929  -0.7880  -0.7825
    -0.7789  -0.7702  -0.7401  -0.7359  -0.7255  -0.7158  -0.7138  -0.7057
    -0.6972  -0.6902  -0.6666  -0.6602  -0.6539  -0.6475  -0.6427  -0.6397
    -0.6347  -0.6280  -0.6062  -0.6025  -0.5816  -0.5684  -0.5679  -0.5606
    -0.5598  -0.5539  -0.5438  -0.5397  -0.5347  -0.5237  -0.5163  -0.4990
    -0.4905  -0.4839  -0.4785  -0.4443  -0.4405  -0.4016  -0.3921  -0.3814
    -0.3783  -0.3684  -0.3671  -0.3646  -0.3540  -0.3474  -0.3457  -0.3368
    -0.3354  -0.3334  -0.3222  -0.3190  -0.3121  -0.3030  -0.2884  -0.2872
    -0.2768  -0.2688  -0.2641  -0.2537  -0.2461  -0.2456  -0.2297  -0.2207
    -0.2199  -0.2178  -0.2117  -0.1953  -0.1885  -0.1854  -0.1778  -0.1760
    -0.1643  -0.1579  -0.1578  -0.1542  -0.1264  -0.1153  -0.0960  -0.0922
    -0.0844  -0.0722  -0.0680  -0.0619  -0.0508  -0.0456  -0.0365  -0.0346
    -0.0299  -0.0284  -0.0141  -0.0094  -0.0089  -0.0001   0.0027   0.0040
     0.0053   0.0117   0.0130   0.0183   0.0204   0.0302   0.0333   0.0475
     0.0485   0.0499   0.0529   0.0600   0.0635   0.0753   0.0764   0.0794
     0.1033   0.1083   0.1128   0.1237   0.1246   0.1284   0.1413   0.1421
     0.1558   0.1574   0.1627   0.1655   0.1696   0.1766   0.1775   0.1792
     0.1878   0.1893   0.1905   0.1932   0.1993   0.2048   0.2182   0.2338
     0.2358   0.2430   0.2486   0.2523   0.2668   0.2692   0.2745   0.2772
     0.2789   0.2882   0.2930   0.2957   0.2982   0.3049   0.3162   0.3177
     0.3251   0.3329   0.3366   0.3367   0.3428   0.3497   0.3558   0.3592
     0.3708   0.3772   0.3810   0.3818   0.3894   0.3989   0.4012   0.4051
     0.4357   0.4390   0.4417   0.4469   0.4527   0.4620   0.4700   0.4736
     0.4813   0.4943   0.5099   0.5176   0.5346   0.5370   0.5428   0.5594
     0.5619   0.5738   0.5976   0.6046   0.6127   0.6264   0.6340   0.6409
     0.6477   0.6544   0.6614   0.6656   0.6806   0.6891   0.6912   0.6961
     0.7041   0.7058   0.7084   0.7173   0.7175   0.7208   0.7319   0.7332
     0.7395   0.7408   0.7463   0.7516   0.7622   0.7680   0.7704   0.7804
     0.7850   0.7868   0.7921   0.7948   0.7993   0.7995   0.7995   0.8034
     0.8051   0.8113   0.8133   0.8205   0.8240   0.8248   0.8324   0.8327
     0.8354   0.8380   0.8422   0.8475   0.8546   0.8573   0.8731   0.8766
     0.8899   0.8937   0.8989   0.9035   0.9087   0.9157   0.9184   0.9192
     0.9218   0.9338   0.9378   0.9388   0.9411   0.9460   0.9478   0.9481
     0.9571   0.9749   0.9766   0.9830   0.9875   0.9885   0.9950   0.9976
     0.9996   1.0043   1.0067   1.0107   1.0182   1.0238   1.0312   1.0368
     1.0434   1.0445   1.0527   1.0680   1.0796   1.0873   1.1050   1.1096
     1.1170   1.1267   1.1346   1.1427   1.1492   1.1609   1.1645   1.1701
     1.1704   1.1718   1.1766   1.1788   1.1815   1.1845   1.1886   1.1996
     1.2007   1.2051   1.2085   1.2142   1.2171   1.2188   1.2246   1.2291
     1.2292   1.2293   1.2309   1.2382   1.2388   1.2466   1.2490   1.2521
     1.2522   1.2538   1.2574   1.2611   1.2668   1.2707   1.2761   1.2778
     1.2799   1.2831   1.2846   1.2895   1.2899   1.2974   1.2981   1.3019
     1.3081   1.3264   1.3340   1.3445   1.3471   1.3633   1.3736   1.3754
     1.3778   1.3815   1.3873   1.3908   1.3993   1.4006   1.4097   1.4155
     1.4190   1.4270   1.4352   1.4391   1.4449   1.4467   1.4495   1.4511
     1.4593   1.4621   1.4659   1.4670   1.4688   1.4703   1.4735   1.4800
     1.4809   1.4858   1.4932   1.4974   1.4996   1.5002   1.5108   1.5123
     1.5190   1.5238   1.5268   1.5294   1.5309   1.5397   1.5437   1.5468
     1.5517   1.5531   1.5605   1.5608   1.5629   1.5652   1.5692   1.5763
     1.5778   1.5850   1.5868   1.5894   1.5945   1.5980   1.6022   1.6090
     1.6107   1.6128   1.6208   1.6316   1.6358   1.6405   1.6430   1.6480
     1.6550   1.6556   1.6609   1.6632   1.6722   1.6787   1.6879   1.6901
     1.6901   1.6984   1.6987   1.7062   1.7068   1.7106   1.7136   1.7144
     1.7147   1.7289   1.7348   1.7383   1.7510   1.7564   1.7580   1.7667
     1.7691   1.7779   1.7783   1.7828   1.7876   1.7919   1.8032   1.8049
     1.8052   1.8182   1.8468   1.8496   1.8772   1.8830   1.8999   1.9411
     1.9504   1.9627   1.9898   1.9958   1.9969   2.0059   2.0621   2.0626
     2.0706   2.0742   2.0772   2.0856   2.0956   2.1106   2.1239   2.2242
     2.3901   2.4146   2.4771   2.6671   2.6737   2.7055   2.7355   2.7370
     2.7620   2.8274   2.8289   2.8416   2.8476   2.8793   2.9015   2.9627
     2.9662   3.0058   3.0246   3.0637   3.1134   3.1769   3.1836   3.2683
     3.2950   3.3217   3.4244   3.4254   3.6291   3.8104   3.8313   3.9201
     3.9681   4.1207   4.2546   4.2846   4.3014   4.3511   4.4428   4.4741
     4.5620   4.6446   4.6547   4.6827   4.8019   4.8535   4.8585   4.9232
     5.0090   5.0348   5.2469   5.3549   5.4156   5.4384   5.5069   5.6027
     5.6100   5.6367   5.6985   5.7272   5.7737   5.8645   5.9557   6.0007
     6.0329   6.1293   6.1389   6.6576   6.6580   6.7402   6.7544   6.7834
     6.8101   6.8196   6.9084   6.9239   7.0897   7.1336   7.2469   7.2834
     7.2930   7.3042   7.3201   7.3410   7.3504   7.3999   7.4013   7.4194
     7.4258   7.4440   7.4538   7.5652   7.6378   7.6850   7.6884   7.7800
     7.7810   7.9550   7.9918   8.0293   8.0614   8.0616   8.1465   8.3516
     8.4408   8.4581   8.4878   8.5082   8.6058   8.6237   8.6562   8.6694
     8.6712   8.7841   8.8090   8.8539   8.8806   8.9708   8.9798   9.0007
     9.0120   9.0168   9.0845   9.0874   9.1453   9.1696   9.2532   9.2758
     9.2828   9.3163   9.4277   9.4486   9.4569   9.5004   9.5104   9.6432
     9.6505   9.6658   9.6800   9.7890   9.8105   9.8266   9.9378   9.9644
    10.0441  10.0581  10.0600  10.1429  10.1451

          k = 0.2500 0.0000 0.0000 (256240 PWs)   bands (ev):

   -15.9002 -15.5919 -15.4534 -14.9016 -14.6150 -14.5551 -14.4626 -14.1414
   -13.5118 -13.2896 -12.9733 -12.7192 -12.6940 -12.6406 -12.2348 -11.7778
   -11.6559 -11.6158 -11.1640 -10.6209 -10.3657 -10.3320 -10.0696  -9.7616
    -9.4683  -9.2381  -9.0942  -8.7782  -8.6772  -8.2448  -7.8560  -7.2312
    -7.1807  -7.1545  -7.0639  -6.9193  -6.3950  -6.2170  -6.0702  -5.6624
    -5.5872  -5.5712  -5.4811  -5.2326  -5.0675  -5.0561  -4.9673  -4.7943
    -4.6877  -4.5293  -4.3373  -4.2767  -4.2297  -4.1920  -4.1184  -4.0480
    -3.9800  -3.8707  -3.7474  -3.7389  -3.7199  -3.6343  -3.5778  -3.5689
    -3.5125  -3.4360  -3.3511  -3.2974  -3.2169  -3.1976  -3.1787  -3.1392
    -3.1042  -3.0477  -3.0354  -2.9504  -2.9205  -2.8235  -2.7299  -2.6807
    -2.6342  -2.5501  -2.5371  -2.5319  -2.5165  -2.4620  -2.3974  -2.3014
    -2.2724  -2.1948  -2.1574  -2.1061  -2.0878  -2.0304  -1.8840  -1.8491
    -1.8386  -1.8292  -1.8166  -1.8024  -1.7304  -1.7098  -1.6864  -1.6514
    -1.6168  -1.5896  -1.5542  -1.5407  -1.5351  -1.5284  -1.5263  -1.5115
    -1.5101  -1.4846  -1.4557  -1.4414  -1.4385  -1.4289  -1.4050  -1.3907
    -1.3636  -1.3483  -1.3400  -1.3214  -1.3178  -1.3138  -1.3120  -1.3009
    -1.2666  -1.2553  -1.2389  -1.2339  -1.2303  -1.2229  -1.2074  -1.1135
    -1.0973  -1.0779  -1.0614  -1.0479  -1.0354  -1.0170  -0.9911  -0.9871
    -0.9775  -0.9706  -0.9646  -0.9557  -0.9449  -0.9387  -0.9227  -0.9163
    -0.9151  -0.9054  -0.8940  -0.8830  -0.8751  -0.8703  -0.8642  -0.8530
    -0.8476  -0.8416  -0.8406  -0.8361  -0.8242  -0.8028  -0.8006  -0.7935
    -0.7812  -0.7784  -0.7715  -0.7607  -0.7529  -0.7485  -0.7447  -0.7388
    -0.7245  -0.7222  -0.7202  -0.7170  -0.7142  -0.7129  -0.7100  -0.6993
    -0.6922  -0.6791  -0.6778  -0.6658  -0.6547  -0.6481  -0.6427  -0.6347
    -0.6269  -0.5953  -0.5874  -0.5705  -0.5655  -0.5491  -0.5412  -0.5364
    -0.5239  -0.5141  -0.5050  -0.5033  -0.4972  -0.4939  -0.4818  -0.4748
    -0.4643  -0.4550  -0.4268  -0.4010  -0.3752  -0.3515  -0.3486  -0.3382
    -0.3124  -0.3100  -0.3077  -0.3027  -0.2983  -0.2906  -0.2873  -0.2802
    -0.2723  -0.2651  -0.2617  -0.2576  -0.2462  -0.2410  -0.2315  -0.2239
    -0.2168  -0.2116  -0.2043  -0.1978  -0.1907  -0.1902  -0.1730  -0.1629
    -0.1487  -0.1392  -0.1362  -0.1317  -0.1259  -0.1238  -0.1173  -0.1127
    -0.1074  -0.0980  -0.0885  -0.0798  -0.0768  -0.0644  -0.0637  -0.0544
    -0.0442  -0.0339  -0.0281  -0.0237  -0.0223  -0.0198  -0.0122  -0.0069
     0.0015   0.0078   0.0138   0.0179   0.0262   0.0391   0.0418   0.0484
     0.0526   0.0590   0.0644   0.0726   0.0796   0.0814   0.0832   0.0947
     0.1094   0.1134   0.1172   0.1236   0.1312   0.1337   0.1389   0.1458
     0.1550   0.1686   0.1873   0.1963   0.2008   0.2028   0.2174   0.2190
     0.2227   0.2299   0.2391   0.2432   0.2496   0.2529   0.2591   0.2602
     0.2627   0.2675   0.2690   0.2752   0.2784   0.2800   0.2901   0.2935
     0.3004   0.3016   0.3028   0.3126   0.3186   0.3348   0.3380   0.3438
[...]
     atom   17 type  1   force =     0.00000000   -0.00002463   -0.00015676
     atom   18 type  1   force =     0.00003326    0.00019497    0.00008190
     atom   19 type  1   force =     0.00000000   -0.00000952   -0.00013161
     atom   20 type  1   force =    -0.00003326    0.00019497    0.00008190
     atom   21 type  1   force =     0.00000000    0.00019748    0.00006366
     atom   22 type  1   force =    -0.00001250    0.00016230    0.00018496
     atom   23 type  1   force =     0.00000000    0.00016759    0.00003727
     atom   24 type  1   force =     0.00001250    0.00016230    0.00018496
     atom   25 type  1   force =     0.00000000    0.00004599   -0.00011442
     atom   26 type  1   force =     0.00001627    0.00012364   -0.00013129
     atom   27 type  1   force =     0.00000000    0.00003631   -0.00005337
     atom   28 type  1   force =    -0.00001627    0.00012364   -0.00013129
     atom   29 type  1   force =     0.00000000    0.00016236    0.00019185
     atom   30 type  1   force =     0.00001442    0.00009681    0.00012313
     atom   31 type  1   force =     0.00000000    0.00014914    0.00013103
     atom   32 type  1   force =    -0.00001442    0.00009681    0.00012313
     atom   33 type  1   force =     0.00000000    0.00001750   -0.00021716
     atom   34 type  1   force =     0.00000242    0.00011520   -0.00000460
     atom   35 type  1   force =     0.00000000    0.00001683   -0.00015412
     atom   36 type  1   force =    -0.00000242    0.00011520   -0.00000460
     atom   37 type  1   force =     0.00000000    0.00010524    0.00001568
     atom   38 type  1   force =     0.00000313    0.00000309   -0.00024918
     atom   39 type  1   force =     0.00000000    0.00006945   -0.00000289
     atom   40 type  1   force =    -0.00000313    0.00000309   -0.00024918
     atom   41 type  1   force =     0.00000000    0.00016476    0.00011671
     atom   42 type  1   force =     0.00000920    0.00018020    0.00006872
     atom   43 type  1   force =     0.00000000    0.00011091    0.00008831
     atom   44 type  1   force =    -0.00000920    0.00018020    0.00006872
     atom   45 type  1   force =     0.00000000    0.00017184   -0.00000089
     atom   46 type  1   force =     0.00003368    0.00011323   -0.00004509
     atom   47 type  1   force =     0.00000000    0.00015207    0.00004660
     atom   48 type  1   force =    -0.00003368    0.00011323   -0.00004509
     atom   49 type  1   force =     0.00000000    0.00008813   -0.00001608
     atom   50 type  1   force =    -0.00002413    0.00022647    0.00010292
     atom   51 type  1   force =     0.00000000    0.00013320    0.00013419
     atom   52 type  1   force =     0.00002413    0.00022647    0.00010292
     atom   53 type  1   force =     0.00000000    0.00029888    0.00005066
     atom   54 type  1   force =     0.00003974    0.00018173   -0.00006349
     atom   55 type  1   force =     0.00000000    0.00021524    0.00005977
     atom   56 type  1   force =    -0.00003974    0.00018173   -0.00006349
     atom   57 type  1   force =     0.00000000    0.00009983   -0.00023642
     atom   58 type  1   force =    -0.00004207    0.00006697   -0.00007222
     atom   59 type  1   force =     0.00000000    0.00005453   -0.00009348
     atom   60 type  1   force =     0.00004207    0.00006697   -0.00007222
     atom   61 type  1   force =     0.00000000    0.00036980    0.00021702
     atom   62 type  1   force =    -0.00004701    0.00018711    0.00004793
     atom   63 type  1   force =     0.00000000    0.00018020    0.00018721
     atom   64 type  1   force =     0.00004701    0.00018711    0.00004793
     atom   65 type  1   force =     0.00000000    0.00015737   -0.00008015
     atom   66 type  1   force =     0.00005593    0.00014505    0.00010575
     atom   67 type  1   force =     0.00000000    0.00005107    0.00001312
     atom   68 type  1   force =    -0.00005593    0.00014505    0.00010575
     atom   69 type  1   force =     0.00000000    0.00023464    0.00008880
     atom   70 type  1   force =    -0.00008205    0.00012363   -0.00006738
     atom   71 type  1   force =     0.00000000    0.00009974    0.00012467
     atom   72 type  1   force =     0.00008205    0.00012363   -0.00006738
     atom   73 type  1   force =     0.00000000    0.00033155   -0.00011883
     atom   74 type  1   force =     0.00000864    0.00020588    0.00016196
     atom   75 type  1   force =     0.00000000    0.00010953    0.00014167
     atom   76 type  1   force =    -0.00000864    0.00020588    0.00016196
     atom   77 type  1   force =     0.00000000    0.00004360   -0.00022655
     atom   78 type  1   force =     0.00007293    0.00019720   -0.00012287
     atom   79 type  1   force =     0.00000000    0.00016757   -0.00013604
     atom   80 type  1   force =    -0.00007293    0.00019720   -0.00012287
     atom   81 type  1   force =     0.00000000   -0.00013481   -0.00010242
     atom   82 type  1   force =    -0.00029949    0.00017487    0.00021504
     atom   83 type  1   force =     0.00000000    0.00030869    0.00001110
     atom   84 type  1   force =     0.00029949    0.00017487    0.00021504
     atom   85 type  1   force =     0.00000000    0.00053014    0.00014014
     atom   86 type  1   force =     0.00030073    0.00013698   -0.00012957
     atom   87 type  1   force =     0.00000000   -0.00011922    0.00028266
     atom   88 type  1   force =    -0.00030073    0.00013698   -0.00012957
     atom   89 type  1   force =     0.00000000    0.00001304    0.00000940
     atom   90 type  1   force =    -0.00008183    0.00000513   -0.00004533
     atom   91 type  1   force =     0.00000000   -0.00048746    0.00016265
     atom   92 type  1   force =     0.00008183    0.00000513   -0.00004533
     atom   93 type  1   force =     0.00000000    0.00038969   -0.00009490
     atom   94 type  1   force =     0.00010068    0.00035044    0.00000892
     atom   95 type  1   force =     0.00000000    0.00012731    0.00013867
     atom   96 type  1   force =    -0.00010068    0.00035044    0.00000892
     atom   97 type  1   force =     0.00000000    0.00040947   -0.00008478
     atom   98 type  1   force =     0.00014580    0.00017706   -0.00010216
     atom   99 type  1   force =     0.00000000    0.00019506   -0.00000338
     atom  100 type  1   force =    -0.00014580    0.00017706   -0.00010216
     atom  101 type  2   force =     0.00000000   -0.00065582    0.00022507
     atom  102 type  2   force =     0.00000000   -0.00035814    0.00005184
     atom  103 type  2   force =     0.00009372   -0.00049717   -0.00015165
     atom  104 type  2   force =     0.00003103   -0.00010007    0.00032426
     atom  105 type  2   force =    -0.00009722   -0.00038757    0.00020060
     atom  106 type  2   force =    -0.00004827   -0.00030646    0.00033333
     atom  107 type  2   force =     0.00000000   -0.00020054    0.00009574
     atom  108 type  2   force =     0.00000000   -0.00031004   -0.00018196
     atom  109 type  2   force =     0.00009722   -0.00038757    0.00020060
     atom  110 type  2   force =     0.00004827   -0.00030646    0.00033333
     atom  111 type  2   force =    -0.00009372   -0.00049717   -0.00015165
     atom  112 type  2   force =    -0.00003103   -0.00010007    0.00032426
     atom  113 type  2   force =     0.00000000   -0.00010073    0.00005135
     atom  114 type  2   force =     0.00000000   -0.00036241    0.00013789
     atom  115 type  2   force =     0.00011056   -0.00011163   -0.00009415
     atom  116 type  2   force =     0.00011966   -0.00047139   -0.00019790
     atom  117 type  2   force =     0.00016698   -0.00005995   -0.00020543
     atom  118 type  2   force =     0.00038072   -0.00005571   -0.00007314
     atom  119 type  2   force =     0.00000000   -0.00019638    0.00019905
     atom  120 type  2   force =    -0.00016698   -0.00005995   -0.00020543
     atom  121 type  2   force =    -0.00038072   -0.00005571   -0.00007314
     atom  122 type  2   force =    -0.00011056   -0.00011163   -0.00009415
     atom  123 type  2   force =    -0.00011966   -0.00047139   -0.00019790
     atom  124 type  2   force =     0.00000000   -0.00065493   -0.00073001
     atom  125 type  2   force =     0.00000000   -0.00060918   -0.00023694
     atom  126 type  2   force =     0.00012324   -0.00061934   -0.00013251
     atom  127 type  2   force =    -0.00019674   -0.00014188    0.00019905
     atom  128 type  2   force =    -0.00010266    0.00000499   -0.00031335
     atom  129 type  2   force =    -0.00012059   -0.00010711    0.00015517
     atom  130 type  2   force =     0.00000000   -0.00018442    0.00033650
     atom  131 type  2   force =     0.00000000   -0.00006086    0.00005696
     atom  132 type  2   force =     0.00010266    0.00000499   -0.00031335
     atom  133 type  2   force =     0.00012059   -0.00010711    0.00015517
     atom  134 type  2   force =    -0.00012324   -0.00061934   -0.00013251
     atom  135 type  2   force =     0.00019674   -0.00014188    0.00019905
     atom  136 type  2   force =     0.00000000    0.00004487    0.00009570
     atom  137 type  2   force =     0.00000000   -0.00017298    0.00018384
     atom  138 type  2   force =    -0.00010232    0.00000060   -0.00019563
     atom  139 type  2   force =     0.00013132   -0.00049240   -0.00047110
     atom  140 type  2   force =     0.00005445   -0.00024855    0.00016709
     atom  141 type  2   force =     0.00014064   -0.00024317   -0.00006741
     atom  142 type  2   force =     0.00000000   -0.00014365    0.00012299
     atom  143 type  2   force =     0.00000000   -0.00021265   -0.00006676
     atom  144 type  2   force =    -0.00005445   -0.00024855    0.00016709
     atom  145 type  2   force =    -0.00014064   -0.00024317   -0.00006741
     atom  146 type  2   force =     0.00010232    0.00000060   -0.00019563
     atom  147 type  2   force =    -0.00013132   -0.00049240   -0.00047110

     Total force =     0.003672     Total SCF correction =     0.000377
     SCF correction compared to forces is large: reduce conv_thr to get better values

     number of scf cycles    =   5
     number of bfgs steps    =   4

     energy   old            =  -12687.1491478875 Ry
     energy   new            =  -12687.1491839131 Ry

     CASE: energy  _new < energy  _old

     new trust radius        =       0.0046413253 bohr
     new conv_thr            =       0.0000000036 Ry


ATOMIC_POSITIONS (angstrom)
Cu       0.000000000   0.085094263   7.409392995
Cu       1.843351421   1.778030464   7.414441776
Cu       3.689036991   0.089811030   7.408443029
Cu       5.534722562   1.778030464   7.414441776
Cu       0.000000000   3.466253189   7.415603126
Cu       1.844820089   5.156958578   7.408215770
Cu       3.689036991   3.463290160   7.413883204
Cu       5.533253894   5.156958578   7.408215770
Cu       0.000000000   6.860325496   7.402320213
Cu       1.844491651   8.574828361   7.398066595
Cu       3.689036991   6.860887164   7.400669717
Cu       5.533582332   8.574828361   7.398066595
Cu       0.000000000  10.290130956   7.401029801
Cu       1.844229655  12.002761582   7.405145216
Cu       3.689036991  10.292200288   7.400309807
Cu       5.533844328  12.002761582   7.405145216
Cu       0.000000000  13.715567178   7.404021912
Cu       1.845678735  15.424636261   7.405692270
Cu       3.689036991  13.711497016   7.406124085
Cu       5.532395248  15.424636261   7.405692270
Cu       0.000000000   1.776664515   9.261377407
Cu       1.844569031   0.086220925   9.252054995
Cu       3.689036991   1.778588832   9.265259842
Cu       5.533504952   0.086220925   9.252054995
Cu       0.000000000   5.164407771   9.249401000
Cu       1.844984312   3.469095171   9.262122506
Cu       3.689036991   5.163663926   9.245058783
Cu       5.533089671   3.469095171   9.262122506
Cu       0.000000000   8.575381545   9.220283466
Cu       1.845212074   6.865933695   9.228636365
Cu       3.689036991   8.575718742   9.220144399
Cu       5.532861909   6.865933695   9.228636365
Cu       0.000000000  12.002714801   9.226180879
Cu       1.845599623  10.287218602   9.225266706
Cu       3.689036991  11.999224376   9.233065301
Cu       5.532474360  10.287218602   9.225266706
Cu       0.000000000  15.423833473   9.235176904
Cu       1.844805015  13.715622897   9.228008930
Cu       3.689036991  15.426214454   9.230387086
Cu       5.533268968  13.715622897   9.228008930
Cu       0.000000000   0.078262727  11.098727660
Cu       1.848010249   1.781562321  11.120580218
Cu       3.689036991   0.071103929  11.097857900
Cu       5.530063734   1.781562321  11.120580218
Cu       0.000000000   3.472877365  11.109581279
Cu       1.845270341   5.177678386  11.096601637
Cu       3.689036991   3.485812351  11.117661000
Cu       5.532803642   5.177678386  11.096601637
Cu       0.000000000   6.879982098  11.067172641
Cu       1.846339045   8.576653100  11.057372034
Cu       3.689036991   6.874898686  11.067580427
Cu       5.531734938   8.576653100  11.057372034
Cu       0.000000000  10.288930654  11.052014421
Cu       1.845612668  12.004802280  11.054333060
Cu       3.689036991  10.273788563  11.067413297
Cu       5.532461315  12.004802280  11.054333060
Cu       0.000000000  13.716526660  11.060336281
Cu       1.842593886  15.417799632  11.076618221
Cu       3.689036991  13.727993458  11.054563720
Cu       5.535480097  15.417799632  11.076618221
Cu       0.000000000   1.772357846  12.947448761
Cu       1.843658080   0.054267610  12.942645486
Cu       3.689036991   1.761260480  12.948302878
Cu       5.534415903   0.054267610  12.942645486
Cu       0.000000000   5.184402167  12.920927979
Cu       1.864453796   3.505140375  12.974557170
Cu       3.689036991   5.233021234  12.972981725
Cu       5.513620187   3.505140375  12.974557170
Cu       0.000000000   8.598061111  12.896082998
Cu       1.859547794   6.898413652  12.916004028
Cu       3.689036991   8.533108497  12.943535850
Cu       5.518526189   6.898413652  12.916004028
Cu       0.000000000  12.016068266  12.875666129
Cu       1.847963893  10.294015399  12.873323982
Cu       3.689036991  12.036302840  12.852702680
Cu       5.530110090  10.294015399  12.873323982
Cu       0.000000000  15.402992008  12.928822592
Cu       1.840314972  13.718782425  12.901853774
Cu       3.689036991  15.402786854  12.936069991
Cu       5.537759011  13.718782425  12.901853774
Cu       0.000000000   0.029123991  14.774995748
Cu       1.806549988   1.746633811  14.752844122
Cu       3.689036991   0.062166348  14.775258775
Cu       5.571523995   1.746633811  14.752844122
Cu       0.000000000   3.522898553  14.716036060
Cu       1.940575804   5.259152497  14.772729677
Cu       3.689036991   3.403289490  14.781842021
Cu       5.437498179   5.259152497  14.772729677
Cu       0.000000000   6.886565612  14.636514504
Cu       1.870281727   8.633317032  14.713549467
Cu       3.689036991   6.964203462  15.548994944
Cu       5.507792256   8.633317032  14.713549467
Cu       0.000000000  10.330325516  14.669857911
Cu       1.827682891  12.018545042  14.692376550
Cu       3.689036991  10.377577619  14.608501652
Cu       5.550391092  12.018545042  14.692376550
Cu       0.000000000  13.705308948  14.750127305
Cu       1.855637186  15.384786313  14.772083234
Cu       3.689036991  13.681071982  14.742847228
Cu       5.522436797  15.384786313  14.772083234
C        0.000000000   0.562024935  17.798047835
C        0.000000000   1.983003248  17.768002188
C        1.230045875  -0.150765233  17.798372464
C        1.229722665   2.689814890  17.680380267
C        2.459368735   0.557878577  17.750661977
C        2.459294128   1.975584278  17.650011239
C        3.689036991  -0.155287607  17.755460458
C        3.689036991   2.680672415  17.511156273
C        4.918705247   0.557878577  17.750661977
C        4.918779854   1.975584278  17.650011239
C        6.148028108  -0.150765233  17.798372464
C        6.148351318   2.689814890  17.680380267
C        0.000000000   4.816967825  17.498709628
C        0.000000000   6.234314595  17.351864686
C        1.227840208   4.100385979  17.525557175
C        1.219240827   6.930058147  17.089730697
C        2.430123540   4.777911679  17.139085493
C        2.322888376   6.121017512  16.682589059
C        3.689036991   4.068247875  17.178303628
C        4.947950442   4.777911679  17.139085493
C        5.055185606   6.121017512  16.682589059
C        6.150233775   4.100385979  17.525557175
C        6.158833156   6.930058147  17.089730697
C        0.000000000   9.077291763  17.274106332
C        0.000000000  10.490092191  17.467527040
C        1.229717281   8.371363499  17.094850109
C        1.230359180  11.200881298  17.580038047
C        2.464282561   9.112924972  17.115123999
C        2.457827623  10.501603860  17.472965357
C        3.689036991   8.512923752  16.752008986
C        3.689036991  11.203958173  17.573383660
C        4.913791421   9.112924972  17.115123999
C        4.920246359  10.501603860  17.472965357
C        6.148356702   8.371363499  17.094850109
C        6.147714803  11.200881298  17.580038047
C        0.000000000  13.331097747  17.742387167
C        0.000000000  14.753324484  17.789823486
C        1.230245737  12.618341721  17.712584380
C        1.229555297  15.465449296  17.797682188
C        2.459385760  13.329458037  17.755556191
C        2.459557999  14.751925015  17.789290763
C        3.689036991  12.619506572  17.718448111
C        3.689036991  15.462186347  17.791107200
C        4.918688222  13.329458037  17.755556191
C        4.918515983  14.751925015  17.789290763
C        6.147828246  12.618341721  17.712584380
C        6.148518686  15.465449296  17.797682188



     Writing output data file gc.save
     Check: negative starting charge=(component1):   -0.001881
     NEW-OLD atomic charge density approx. for the potential
     Check: negative starting charge=(component1):   -0.001881

     negative rho (up, down):  9.718E-04 9.718E-04

     total cpu time spent up to now is    49412.7 secs

     Self-consistent Calculation

     iteration #  1     ecut=    80.00 Ry     beta=0.70
     Davidson diagonalization with overlap
     ethr =  1.00E-06,  avg # of iterations =  3.0

     Threshold (ethr) on eigenvalues was too large:
     Diagonalizing with lowered threshold

     Davidson diagonalization with overlap
     ethr =  9.15E-09,  avg # of iterations =  3.0

     negative rho (up, down):  9.629E-04 9.629E-04

     total cpu time spent up to now is    50748.8 secs

     total energy              =  -12687.14921802 Ry
     Harris-Foulkes estimate   =  -12687.14923875 Ry
     estimated scf accuracy    <       0.00012763 Ry

     total magnetization       =     0.00 Bohr mag/cell
     absolute magnetization    =     0.00 Bohr mag/cell

     iteration #  2     ecut=    80.00 Ry     beta=0.70
     Davidson diagonalization with overlap
     ethr =  9.91E-09,  avg # of iterations =  2.0

     negative rho (up, down):  9.572E-04 9.572E-04

     total cpu time spent up to now is    51120.1 secs

     total energy              =  -12687.14921757 Ry
     Harris-Foulkes estimate   =  -12687.14922563 Ry
     estimated scf accuracy    <       0.00002704 Ry

     total magnetization       =     0.00 Bohr mag/cell
     absolute magnetization    =     0.00 Bohr mag/cell

     iteration #  3     ecut=    80.00 Ry     beta=0.70
     Davidson diagonalization with overlap
     ethr =  2.10E-09,  avg # of iterations =  2.3

     negative rho (up, down):  9.519E-04 9.519E-04

     total cpu time spent up to now is    51525.8 secs

     total energy              =  -12687.14921908 Ry
     Harris-Foulkes estimate   =  -12687.14922325 Ry
     estimated scf accuracy    <       0.00003394 Ry

     total magnetization       =     0.00 Bohr mag/cell
     absolute magnetization    =     0.00 Bohr mag/cell

     iteration #  4     ecut=    80.00 Ry     beta=0.70
     Davidson diagonalization with overlap
