
     Program PWSCF v.5.4.0 starts on 27Mar2017 at  9: 3:43 

     This program is part of the open-source Quantum ESPRESSO suite
     for quantum simulation of materials; please cite
         "P. Giannozzi et al., J. Phys.:Condens. Matter 21 395502 (2009);
          URL http://www.quantum-espresso.org", 
     in publications or presentations arising from this work. More details at
     http://www.quantum-espresso.org/quote

     Parallel version (MPI & OpenMP), running on      56 processor cores
     Number of MPI processes:                56
     Threads/MPI process:                     1
     R & G space division:  proc/nbgrp/npool/nimage =      56
     Waiting for input...
     Reading input from standard input

     Current dimensions of program PWSCF are:
     Max number of different atomic species (ntypx) = 10
     Max number of k-points (npk) =  40000
     Max angular momentum in pseudopotentials (lmaxx) =  3

     -------------------------------------
     Parameters for Dispersion Correction:
     -------------------------------------
       atom      VdW radius       C_6     

        Cu         2.952        374.666
        C          2.744         60.710

     Subspace diagonalization in iterative solution of the eigenvalue problem:
     one sub-group per band group will be used
     scalapack distributed-memory algorithm (size of sub-group:  5*  5 procs)

 
     Parallelization info
     --------------------
     sticks:   dense  smooth     PW     G-vecs:    dense   smooth      PW
     Min         204     204     54                36612    36612    4962
     Max         205     205     55                36617    36617    4968
     Sum       11433   11433   3039              2050409  2050409  278033
 


     bravais-lattice index     =            0
     lattice parameter (alat)  =      13.9425  a.u.
     unit-cell volume          =   21209.0878 (a.u.)^3
     number of atoms/cell      =          147
     number of atomic types    =            2
     number of electrons       =      1288.00
     number of Kohn-Sham states=          773
     kinetic-energy cutoff     =      80.0000  Ry
     charge density cutoff     =     320.0000  Ry
     convergence threshold     =      1.0E-08
     mixing beta               =       0.7000
     number of iterations used =            8  local-TF  mixing
     Exchange-correlation      =  SLA  PW   PBX  PBC ( 1  4  3  4 0 0)
     nstep                     =           50


     celldm(1)=  13.942539  celldm(2)=   0.000000  celldm(3)=   0.000000
     celldm(4)=   0.000000  celldm(5)=   0.000000  celldm(6)=   0.000000

     crystal axes: (cart. coord. in units of alat)
               a(1) = (   1.000000   0.000000   0.000000 )  
               a(2) = (   0.000000   2.309401   0.000000 )  
               a(3) = (   0.000000   0.000000   3.388418 )  

     reciprocal axes: (cart. coord. in units 2 pi/alat)
               b(1) = (  1.000000  0.000000  0.000000 )  
               b(2) = (  0.000000  0.433013  0.000000 )  
               b(3) = (  0.000000  0.000000  0.295123 )  


     PseudoPot. # 1 for Cu read from file:
     /home/549/hxw549/Short/pseudopotentials/Cu.pbe-n-van_ak.UPF
     MD5 check sum: 601f7c30f7467666bec936e0661ce3e1
     Pseudo is Ultrasoft + core correction, Zval = 11.0
     Generated by new atomic code, or converted to UPF format
     Using radial grid of  867 points,  6 beta functions with: 
                l(1) =   0
                l(2) =   0
                l(3) =   1
                l(4) =   1
                l(5) =   2
                l(6) =   2
     Q(r) pseudized with  8 coefficients,  rinner =    1.400   1.400   1.400
                                                       1.400   1.400

     PseudoPot. # 2 for C  read from file:
     /home/549/hxw549/Short/pseudopotentials/C.pbe-mt_gipaw.UPF
     MD5 check sum: 5ac2f21f2c440b14befe521540822c15
     Pseudo is Norm-conserving, Zval =  4.0
     Generated by new atomic code, or converted to UPF format
     Using radial grid of 1073 points,  1 beta functions with: 
                l(1) =   0

     atomic species   valence    mass     pseudopotential
        Cu            11.00    63.54600     Cu( 1.00)
        C              4.00    12.01070     C ( 1.00)

      2 Sym. Ops. (no inversion) found



   Cartesian axes

     site n.     atom                  positions (alat units)
         1           Cu  tau(   1) = (   0.0000000   0.0071795   1.0052664  )
         2           Cu  tau(   2) = (   0.2500106   0.2359516   1.0057158  )
         3           Cu  tau(   3) = (   0.5000000   0.0075316   1.0050655  )
         4           Cu  tau(   4) = (   0.7499894   0.2359516   1.0057158  )
         5           Cu  tau(   5) = (   0.0000000   0.4639064   1.0053032  )
         6           Cu  tau(   6) = (   0.2499188   0.6930493   1.0034948  )
         7           Cu  tau(   7) = (   0.5000000   0.4638443   1.0054353  )
         8           Cu  tau(   8) = (   0.7500812   0.6930493   1.0034948  )
         9           Cu  tau(   9) = (   0.0000000   0.9242841   1.0009010  )
        10           Cu  tau(  10) = (   0.2500495   1.1575035   1.0001894  )
        11           Cu  tau(  11) = (   0.5000000   0.9243779   1.0012516  )
        12           Cu  tau(  12) = (   0.7499505   1.1575035   1.0001894  )
        13           Cu  tau(  13) = (   0.0000000   1.3912227   1.0019606  )
        14           Cu  tau(  14) = (   0.2499421   1.6244243   1.0042286  )
        15           Cu  tau(  15) = (   0.5000000   1.3912289   1.0020854  )
        16           Cu  tau(  16) = (   0.7500579   1.6244243   1.0042286  )
        17           Cu  tau(  17) = (   0.0000000   1.8564485   1.0046350  )
        18           Cu  tau(  18) = (   0.2501662   2.0866524   1.0049273  )
        19           Cu  tau(  19) = (   0.5000000   1.8555163   1.0054936  )
        20           Cu  tau(  20) = (   0.7498338   2.0866524   1.0049273  )
        21           Cu  tau(  21) = (   0.0000000   0.2365289   1.2565987  )
        22           Cu  tau(  22) = (   0.2498951   0.0072593   1.2551834  )
        23           Cu  tau(  23) = (   0.5000000   0.2361772   1.2570184  )
        24           Cu  tau(  24) = (   0.7501049   0.0072593   1.2551834  )
        25           Cu  tau(  25) = (   0.0000000   0.6951408   1.2522710  )
        26           Cu  tau(  26) = (   0.2501442   0.4654967   1.2555353  )
        27           Cu  tau(  27) = (   0.5000000   0.6954065   1.2521418  )
        28           Cu  tau(  28) = (   0.7498558   0.4654967   1.2555353  )
        29           Cu  tau(  29) = (   0.0000000   1.1571221   1.2475047  )
        30           Cu  tau(  30) = (   0.2499330   0.9259353   1.2489405  )
        31           Cu  tau(  31) = (   0.5000000   1.1572289   1.2473530  )
        32           Cu  tau(  32) = (   0.7500670   0.9259353   1.2489405  )
        33           Cu  tau(  33) = (   0.0000000   1.6225703   1.2500440  )
        34           Cu  tau(  34) = (   0.2499894   1.3892445   1.2482663  )
        35           Cu  tau(  35) = (   0.5000000   1.6219321   1.2512350  )
        36           Cu  tau(  36) = (   0.7500106   1.3892445   1.2482663  )
        37           Cu  tau(  37) = (   0.0000000   2.0862375   1.2533220  )
        38           Cu  tau(  38) = (   0.2501375   1.8550937   1.2524594  )
        39           Cu  tau(  39) = (   0.5000000   2.0866398   1.2529464  )
        40           Cu  tau(  40) = (   0.7498625   1.8550937   1.2524594  )
        41           Cu  tau(  41) = (   0.0000000   0.0059356   1.5051903  )
        42           Cu  tau(  42) = (   0.2502293   0.2377539   1.5085759  )
        43           Cu  tau(  43) = (   0.5000000   0.0054077   1.5053406  )
        44           Cu  tau(  44) = (   0.7497707   0.2377539   1.5085759  )
        45           Cu  tau(  45) = (   0.0000000   0.4674836   1.5062996  )
        46           Cu  tau(  46) = (   0.2502388   0.6974061   1.5033048  )
        47           Cu  tau(  47) = (   0.5000000   0.4688374   1.5071579  )
        48           Cu  tau(  48) = (   0.7497612   0.6974061   1.5033048  )
        49           Cu  tau(  49) = (   0.0000000   0.9269903   1.4989590  )
        50           Cu  tau(  50) = (   0.2499365   1.1571744   1.4971428  )
        51           Cu  tau(  51) = (   0.5000000   0.9272071   1.4982656  )
        52           Cu  tau(  52) = (   0.7500635   1.1571744   1.4971428  )
        53           Cu  tau(  53) = (   0.0000000   1.3889262   1.4961831  )
        54           Cu  tau(  54) = (   0.2503494   1.6215772   1.4975739  )
        55           Cu  tau(  55) = (   0.5000000   1.3870858   1.4983290  )
        56           Cu  tau(  56) = (   0.7496506   1.6215772   1.4975739  )
        57           Cu  tau(  57) = (   0.0000000   1.8540423   1.5000429  )
        58           Cu  tau(  58) = (   0.2497607   2.0852376   1.5026221  )
        59           Cu  tau(  59) = (   0.5000000   1.8552914   1.5000961  )
        60           Cu  tau(  60) = (   0.7502393   2.0852376   1.5026221  )
        61           Cu  tau(  61) = (   0.0000000   0.2370699   1.7548336  )
        62           Cu  tau(  62) = (   0.2498736   0.0027006   1.7549495  )
        63           Cu  tau(  63) = (   0.5000000   0.2351810   1.7552312  )
        64           Cu  tau(  64) = (   0.7501264   0.0027006   1.7549495  )
        65           Cu  tau(  65) = (   0.0000000   0.6994473   1.7528106  )
        66           Cu  tau(  66) = (   0.2531132   0.4733530   1.7600042  )
        67           Cu  tau(  67) = (   0.5000000   0.7065878   1.7589449  )
        68           Cu  tau(  68) = (   0.7468868   0.4733530   1.7600042  )
        69           Cu  tau(  69) = (   0.0000000   1.1600014   1.7464376  )
        70           Cu  tau(  70) = (   0.2519391   0.9298250   1.7494668  )
        71           Cu  tau(  71) = (   0.5000000   1.1514186   1.7532872  )
        72           Cu  tau(  72) = (   0.7480609   0.9298250   1.7494668  )
        73           Cu  tau(  73) = (   0.0000000   1.6220231   1.7442539  )
        74           Cu  tau(  74) = (   0.2511344   1.3900358   1.7433219  )
        75           Cu  tau(  75) = (   0.5000000   1.6239750   1.7438379  )
        76           Cu  tau(  76) = (   0.7488656   1.3900358   1.7433219  )
        77           Cu  tau(  77) = (   0.0000000   2.0827519   1.7532378  )
        78           Cu  tau(  78) = (   0.2497297   1.8535627   1.7485878  )
        79           Cu  tau(  79) = (   0.5000000   2.0831304   1.7545798  )
        80           Cu  tau(  80) = (   0.7502703   1.8535627   1.7485878  )
        81           Cu  tau(  81) = (   0.0000000   0.0011268   2.0024585  )
        82           Cu  tau(  82) = (   0.2458484   0.2334373   1.9981021  )
        83           Cu  tau(  83) = (   0.5000000   0.0038519   2.0031102  )
        84           Cu  tau(  84) = (   0.7541516   0.2334373   1.9981021  )
        85           Cu  tau(  85) = (   0.0000000   0.4736668   1.9958043  )
        86           Cu  tau(  86) = (   0.2656312   0.7124723   2.0056834  )
        87           Cu  tau(  87) = (   0.5000000   0.4590509   2.0029548  )
        88           Cu  tau(  88) = (   0.7343688   0.7124723   2.0056834  )
        89           Cu  tau(  89) = (   0.0000000   0.9294477   1.9850407  )
        90           Cu  tau(  90) = (   0.2502153   1.1650554   1.9899623  )
        91           Cu  tau(  91) = (   0.5000000   0.9538652   2.1100103  )
        92           Cu  tau(  92) = (   0.7497847   1.1650554   1.9899623  )
        93           Cu  tau(  93) = (   0.0000000   1.3947407   1.9884891  )
        94           Cu  tau(  94) = (   0.2488986   1.6222415   1.9911892  )
        95           Cu  tau(  95) = (   0.5000000   1.3967597   1.9827442  )
        96           Cu  tau(  96) = (   0.7511014   1.6222415   1.9911892  )
        97           Cu  tau(  97) = (   0.0000000   1.8502010   1.9975102  )
        98           Cu  tau(  98) = (   0.2502833   2.0797553   2.0016634  )
        99           Cu  tau(  99) = (   0.5000000   1.8489623   1.9975716  )
       100           Cu  tau( 100) = (   0.7497167   2.0797553   2.0016634  )
       101           C   tau( 101) = (   0.0000000   0.0847754   2.4087610  )
       102           C   tau( 102) = (   0.0000000   0.2773526   2.4060356  )
       103           C   tau( 103) = (   0.1668728  -0.0113233   2.4074843  )
       104           C   tau( 104) = (   0.1665311   0.3736415   2.3948024  )
       105           C   tau( 105) = (   0.3332609   0.0850111   2.3999703  )
       106           C   tau( 106) = (   0.3331139   0.2771750   2.3876337  )
       107           C   tau( 107) = (   0.5000000  -0.0116312   2.4002921  )
       108           C   tau( 108) = (   0.5000000   0.3728307   2.3689581  )
       109           C   tau( 109) = (   0.6667391   0.0850111   2.3999703  )
       110           C   tau( 110) = (   0.6668861   0.2771750   2.3876337  )
       111           C   tau( 111) = (   0.8331272  -0.0113233   2.4074843  )
       112           C   tau( 112) = (   0.8334689   0.3736415   2.3948024  )
       113           C   tau( 113) = (   0.0000000   0.6622457   2.3743647  )
       114           C   tau( 114) = (   0.0000000   0.8543108   2.3560696  )
       115           C   tau( 115) = (   0.1663125   0.5651527   2.3761513  )
       116           C   tau( 116) = (   0.1657159   0.9485033   2.3209274  )
       117           C   tau( 117) = (   0.3293395   0.6574329   2.3235310  )
       118           C   tau( 118) = (   0.3151839   0.8399284   2.2633401  )
       119           C   tau( 119) = (   0.5000000   0.5615498   2.3283576  )
       120           C   tau( 120) = (   0.6706605   0.6574329   2.3235310  )
       121           C   tau( 121) = (   0.6848161   0.8399284   2.2633401  )
       122           C   tau( 122) = (   0.8336875   0.5651527   2.3761513  )
       123           C   tau( 123) = (   0.8342841   0.9485033   2.3209274  )
       124           C   tau( 124) = (   0.0000000   1.2384822   2.3473792  )
       125           C   tau( 125) = (   0.0000000   1.4302805   2.3728250  )
       126           C   tau( 126) = (   0.1670272   1.1434547   2.3237997  )
       127           C   tau( 127) = (   0.1663356   1.5274149   2.3858385  )
       128           C   tau( 128) = (   0.3339457   1.2443721   2.3263240  )
       129           C   tau( 129) = (   0.3330203   1.4327820   2.3732838  )
       130           C   tau( 130) = (   0.5000000   1.1641005   2.2755753  )
       131           C   tau( 131) = (   0.5000000   1.5282752   2.3856133  )
       132           C   tau( 132) = (   0.6660543   1.2443721   2.3263240  )
       133           C   tau( 133) = (   0.6669797   1.4327820   2.3732838  )
       134           C   tau( 134) = (   0.8329728   1.1434547   2.3237997  )
       135           C   tau( 135) = (   0.8336644   1.5274149   2.3858385  )
       136           C   tau( 136) = (   0.0000000   1.8168511   2.4021227  )
       137           C   tau( 137) = (   0.0000000   2.0093696   2.4076681  )
       138           C   tau( 138) = (   0.1664434   1.7199416   2.3992005  )
       139           C   tau( 139) = (   0.1667649   2.1055072   2.4075246  )
       140           C   tau( 140) = (   0.3331777   1.8162073   2.4049494  )
       141           C   tau( 141) = (   0.3333390   2.0088803   2.4075420  )
       142           C   tau( 142) = (   0.5000000   1.7200768   2.4020469  )
       143           C   tau( 143) = (   0.5000000   2.1051120   2.4072460  )
       144           C   tau( 144) = (   0.6668223   1.8162073   2.4049494  )
       145           C   tau( 145) = (   0.6666610   2.0088803   2.4075420  )
       146           C   tau( 146) = (   0.8335566   1.7199416   2.3992005  )
       147           C   tau( 147) = (   0.8332351   2.1055072   2.4075246  )

     number of k points=     6  gaussian smearing, width (Ry)=  0.1000
                       cart. coord. in units 2pi/alat
        k(    1) = (   0.0000000   0.0000000   0.0000000), wk =   0.2500000
        k(    2) = (   0.0000000  -0.2165064   0.0000000), wk =   0.2500000
        k(    3) = (   0.2500000   0.0000000   0.0000000), wk =   0.5000000
        k(    4) = (   0.2500000  -0.2165064   0.0000000), wk =   0.5000000
        k(    5) = (  -0.5000000   0.0000000   0.0000000), wk =   0.2500000
        k(    6) = (  -0.5000000  -0.2165064   0.0000000), wk =   0.2500000

     Dense  grid:  2050409 G-vectors     FFT dimensions: (  80, 192, 270)

     Largest allocated arrays     est. size (Mb)     dimensions
        Kohn-Sham Wavefunctions        54.30 Mb     (    4604,  773)
        NL pseudopotentials           129.75 Mb     (    4604, 1847)
        Each V/rho on FFT grid          1.17 Mb     (   76800)
        Each G-vector array             0.28 Mb     (   36616)
        G-vector shells                 0.14 Mb     (   17932)
     Largest temporary arrays     est. size (Mb)     dimensions
        Auxiliary wavefunctions       217.22 Mb     (    4604, 3092)
        Each subspace H/S matrix        5.83 Mb     (     618,  618)
        Each <psi_i|beta_j> matrix     21.79 Mb     (    1847,  773)
        Arrays for rho mixing           9.38 Mb     (   76800,    8)

     Initial potential from superposition of free atoms
     Check: negative starting charge=   -0.001864

     starting charge 1263.31751, renormalised to 1288.00000

     negative rho (up, down):  1.900E-03 0.000E+00
     Starting wfc are 1276 randomized atomic wfcs

     total cpu time spent up to now is      105.3 secs

     Self-consistent Calculation

     iteration #  1     ecut=    80.00 Ry     beta=0.70
     Davidson diagonalization with overlap
     c_bands:  5 eigenvalues not converged
     c_bands:  1 eigenvalues not converged
     c_bands:  1 eigenvalues not converged
     ethr =  1.00E-04,  avg # of iterations = 20.2

     negative rho (up, down):  2.651E+01 0.000E+00

     total cpu time spent up to now is     1766.8 secs

     total energy              =   -9712.83497151 Ry
     Harris-Foulkes estimate   =  -16805.27847301 Ry
     estimated scf accuracy    <  164179.25489248 Ry

     iteration #  2     ecut=    80.00 Ry     beta=0.70
     Davidson diagonalization with overlap
     ethr =  1.00E-02,  avg # of iterations =  9.2

     negative rho (up, down):  2.730E+01 0.000E+00

     total cpu time spent up to now is     2685.4 secs

     total energy              =  -12846.03692882 Ry
     Harris-Foulkes estimate   =  -13452.45467070 Ry
     estimated scf accuracy    <    7733.28367462 Ry

     iteration #  3     ecut=    80.00 Ry     beta=0.70
     Davidson diagonalization with overlap
     ethr =  1.00E-02,  avg # of iterations =  4.8

     negative rho (up, down):  2.674E+01 0.000E+00

     total cpu time spent up to now is     3066.2 secs

     total energy              =  -13213.10073656 Ry
     Harris-Foulkes estimate   =  -13134.51370336 Ry
     estimated scf accuracy    <   14241.32691468 Ry

     iteration #  4     ecut=    80.00 Ry     beta=0.70
     Davidson diagonalization with overlap
     ethr =  1.00E-02,  avg # of iterations =  5.2

     negative rho (up, down):  2.365E+01 0.000E+00

     total cpu time spent up to now is     3279.4 secs

     total energy              =  -12975.35742933 Ry
     Harris-Foulkes estimate   =  -13221.04303371 Ry
     estimated scf accuracy    <   18643.40778653 Ry

     iteration #  5     ecut=    80.00 Ry     beta=0.70
     Davidson diagonalization with overlap
     ethr =  1.00E-02,  avg # of iterations =  4.8

     negative rho (up, down):  2.013E+01 0.000E+00

     total cpu time spent up to now is     3735.7 secs

     total energy              =  -12940.65707649 Ry
     Harris-Foulkes estimate   =  -13243.14971451 Ry
     estimated scf accuracy    <    7915.32716231 Ry

     iteration #  6     ecut=    80.00 Ry     beta=0.70
     Davidson diagonalization with overlap
     ethr =  1.00E-02,  avg # of iterations =  5.0

     negative rho (up, down):  1.748E+01 0.000E+00

     total cpu time spent up to now is     4253.7 secs

     total energy              =  -13000.93196353 Ry
     Harris-Foulkes estimate   =  -13097.09249789 Ry
     estimated scf accuracy    <    2744.15938345 Ry

     iteration #  7     ecut=    80.00 Ry     beta=0.70
     Davidson diagonalization with overlap
     ethr =  1.00E-02,  avg # of iterations =  2.8

     negative rho (up, down):  1.558E+01 0.000E+00

     total cpu time spent up to now is     4444.7 secs

     total energy              =  -12961.07341823 Ry
     Harris-Foulkes estimate   =  -13029.95553451 Ry
     estimated scf accuracy    <    2302.42067405 Ry

     iteration #  8     ecut=    80.00 Ry     beta=0.70
     Davidson diagonalization with overlap
     ethr =  1.00E-02,  avg # of iterations =  1.0

     negative rho (up, down):  1.371E+01 0.000E+00

     total cpu time spent up to now is     4609.0 secs

     total energy              =  -12915.80723004 Ry
     Harris-Foulkes estimate   =  -12976.52607301 Ry
     estimated scf accuracy    <    2047.23834706 Ry

     iteration #  9     ecut=    80.00 Ry     beta=0.70
     Davidson diagonalization with overlap
     ethr =  1.00E-02,  avg # of iterations =  1.0

     negative rho (up, down):  1.237E+01 0.000E+00

     total cpu time spent up to now is     4773.8 secs

     total energy              =  -12883.66162778 Ry
     Harris-Foulkes estimate   =  -12925.02580171 Ry
     estimated scf accuracy    <    1662.08779667 Ry

     iteration # 10     ecut=    80.00 Ry     beta=0.70
     Davidson diagonalization with overlap
     ethr =  1.00E-02,  avg # of iterations =  3.3

     negative rho (up, down):  1.215E+01 0.000E+00

     total cpu time spent up to now is     4964.9 secs

     total energy              =  -12836.39853246 Ry
     Harris-Foulkes estimate   =  -12885.92132577 Ry
     estimated scf accuracy    <    1460.04929232 Ry

     iteration # 11     ecut=    80.00 Ry     beta=0.70
     Davidson diagonalization with overlap
     ethr =  1.00E-02,  avg # of iterations =  6.0

     negative rho (up, down):  7.729E+00 0.000E+00

     total cpu time spent up to now is     5226.7 secs

     total energy              =  -12775.86648141 Ry
     Harris-Foulkes estimate   =  -12856.48747511 Ry
     estimated scf accuracy    <     766.09777038 Ry

     iteration # 12     ecut=    80.00 Ry     beta=0.70
     Davidson diagonalization with overlap
     ethr =  1.00E-02,  avg # of iterations =  3.2

     negative rho (up, down):  6.213E+00 0.000E+00

     total cpu time spent up to now is     5431.6 secs

     total energy              =  -12808.47786304 Ry
     Harris-Foulkes estimate   =  -12830.91523572 Ry
     estimated scf accuracy    <     462.92103998 Ry

     iteration # 13     ecut=    80.00 Ry     beta=0.70
     Davidson diagonalization with overlap
     ethr =  1.00E-02,  avg # of iterations =  2.0

     negative rho (up, down):  6.159E+00 0.000E+00

     total cpu time spent up to now is     5607.1 secs

     total energy              =  -12782.76190112 Ry
     Harris-Foulkes estimate   =  -12822.46986317 Ry
     estimated scf accuracy    <     456.37526695 Ry

     iteration # 14     ecut=    80.00 Ry     beta=0.70
     Davidson diagonalization with overlap
     ethr =  1.00E-02,  avg # of iterations =  2.0

     negative rho (up, down):  4.682E+00 0.000E+00

     total cpu time spent up to now is     5787.5 secs

     total energy              =  -12776.75509166 Ry
     Harris-Foulkes estimate   =  -12793.73594642 Ry
     estimated scf accuracy    <     272.65720507 Ry

     iteration # 15     ecut=    80.00 Ry     beta=0.70
     Davidson diagonalization with overlap
     ethr =  1.00E-02,  avg # of iterations =  1.0

     negative rho (up, down):  3.941E+00 0.000E+00

     total cpu time spent up to now is     5952.8 secs

     total energy              =  -12763.49543102 Ry
     Harris-Foulkes estimate   =  -12783.38021579 Ry
     estimated scf accuracy    <     249.48742562 Ry

     iteration # 16     ecut=    80.00 Ry     beta=0.70
     Davidson diagonalization with overlap
     ethr =  1.00E-02,  avg # of iterations =  2.0

     negative rho (up, down):  2.565E+00 0.000E+00

     total cpu time spent up to now is     6131.0 secs

     total energy              =  -12751.03409607 Ry
     Harris-Foulkes estimate   =  -12773.31458634 Ry
     estimated scf accuracy    <     238.18316398 Ry

     iteration # 17     ecut=    80.00 Ry     beta=0.70
     Davidson diagonalization with overlap
     ethr =  1.00E-02,  avg # of iterations =  2.0

     negative rho (up, down):  1.452E+00 0.000E+00

     total cpu time spent up to now is     6309.4 secs

     total energy              =  -12739.61435817 Ry
     Harris-Foulkes estimate   =  -12757.16790030 Ry
     estimated scf accuracy    <     175.46245660 Ry

     iteration # 18     ecut=    80.00 Ry     beta=0.70
     Davidson diagonalization with overlap
     ethr =  1.00E-02,  avg # of iterations =  1.2

     negative rho (up, down):  1.810E+00 0.000E+00

     total cpu time spent up to now is     6476.9 secs

     total energy              =  -12711.73863928 Ry
     Harris-Foulkes estimate   =  -12742.25740122 Ry
     estimated scf accuracy    <     125.98180459 Ry

     iteration # 19     ecut=    80.00 Ry     beta=0.70
     Davidson diagonalization with overlap
     ethr =  9.78E-03,  avg # of iterations =  1.8

     negative rho (up, down):  1.928E+00 0.000E+00

     total cpu time spent up to now is     6651.8 secs

     total energy              =  -12713.18930614 Ry
     Harris-Foulkes estimate   =  -12719.38440348 Ry
     estimated scf accuracy    <     288.46388726 Ry

     iteration # 20     ecut=    80.00 Ry     beta=0.70
     Davidson diagonalization with overlap
     ethr =  9.78E-03,  avg # of iterations =  1.0

     negative rho (up, down):  2.379E+00 0.000E+00

     total cpu time spent up to now is     6817.0 secs

     total energy              =  -12708.46853325 Ry
     Harris-Foulkes estimate   =  -12714.68827161 Ry
     estimated scf accuracy    <     112.91894316 Ry

     iteration # 21     ecut=    80.00 Ry     beta=0.70
     Davidson diagonalization with overlap
     ethr =  8.77E-03,  avg # of iterations =  1.7

     negative rho (up, down):  1.905E+00 0.000E+00

     total cpu time spent up to now is     6989.2 secs

     total energy              =  -12704.23849839 Ry
     Harris-Foulkes estimate   =  -12718.15577330 Ry
     estimated scf accuracy    <     444.10859933 Ry

     iteration # 22     ecut=    80.00 Ry     beta=0.70
     Davidson diagonalization with overlap
     ethr =  8.77E-03,  avg # of iterations =  1.0

     negative rho (up, down):  3.348E+00 0.000E+00

     total cpu time spent up to now is     7153.8 secs

     total energy              =  -12700.96126487 Ry
     Harris-Foulkes estimate   =  -12710.65698120 Ry
     estimated scf accuracy    <     198.02118114 Ry

     iteration # 23     ecut=    80.00 Ry     beta=0.70
     Davidson diagonalization with overlap
     ethr =  8.77E-03,  avg # of iterations =  2.0

     negative rho (up, down):  4.085E+00 0.000E+00

     total cpu time spent up to now is     7331.4 secs

     total energy              =  -12695.10460748 Ry
     Harris-Foulkes estimate   =  -12703.16010844 Ry
     estimated scf accuracy    <     105.25614377 Ry

     iteration # 24     ecut=    80.00 Ry     beta=0.70
     Davidson diagonalization with overlap
     ethr =  8.17E-03,  avg # of iterations =  1.0

     negative rho (up, down):  4.453E+00 0.000E+00

     total cpu time spent up to now is     7496.5 secs

     total energy              =  -12695.04608107 Ry
     Harris-Foulkes estimate   =  -12699.74175807 Ry
     estimated scf accuracy    <      41.78561291 Ry

     iteration # 25     ecut=    80.00 Ry     beta=0.70
     Davidson diagonalization with overlap
     ethr =  3.24E-03,  avg # of iterations =  2.0

     negative rho (up, down):  3.556E+00 0.000E+00

     total cpu time spent up to now is     7674.0 secs

     total energy              =  -12694.53543347 Ry
     Harris-Foulkes estimate   =  -12697.34073918 Ry
     estimated scf accuracy    <      17.07097479 Ry

     iteration # 26     ecut=    80.00 Ry     beta=0.70
     Davidson diagonalization with overlap
     ethr =  1.33E-03,  avg # of iterations =  3.2

     negative rho (up, down):  3.422E+00 0.000E+00

     total cpu time spent up to now is     7864.6 secs

     total energy              =  -12694.50964925 Ry
     Harris-Foulkes estimate   =  -12695.52723279 Ry
     estimated scf accuracy    <      18.39312506 Ry

     iteration # 27     ecut=    80.00 Ry     beta=0.70
     Davidson diagonalization with overlap
     ethr =  1.33E-03,  avg # of iterations =  1.3

     negative rho (up, down):  4.116E+00 0.000E+00

     total cpu time spent up to now is     8033.4 secs

     total energy              =  -12693.60024814 Ry
     Harris-Foulkes estimate   =  -12694.81274348 Ry
     estimated scf accuracy    <      12.04701505 Ry

     iteration # 28     ecut=    80.00 Ry     beta=0.70
     Davidson diagonalization with overlap
     ethr =  9.35E-04,  avg # of iterations =  5.5

     negative rho (up, down):  3.784E+00 0.000E+00

     total cpu time spent up to now is     8265.9 secs

     total energy              =  -12692.71850212 Ry
     Harris-Foulkes estimate   =  -12693.89909066 Ry
     estimated scf accuracy    <      15.31496623 Ry

     iteration # 29     ecut=    80.00 Ry     beta=0.70
     Davidson diagonalization with overlap
     ethr =  9.35E-04,  avg # of iterations =  1.0

     negative rho (up, down):  3.808E+00 0.000E+00

     total cpu time spent up to now is     8430.1 secs

     total energy              =  -12692.26371193 Ry
     Harris-Foulkes estimate   =  -12693.01797492 Ry
     estimated scf accuracy    <      13.87652352 Ry

     iteration # 30     ecut=    80.00 Ry     beta=0.70
     Davidson diagonalization with overlap
     ethr =  9.35E-04,  avg # of iterations =  1.0

     negative rho (up, down):  3.638E+00 0.000E+00

     total cpu time spent up to now is     8595.0 secs

     total energy              =  -12692.05550290 Ry
     Harris-Foulkes estimate   =  -12692.38390045 Ry
     estimated scf accuracy    <      12.02764838 Ry

     iteration # 31     ecut=    80.00 Ry     beta=0.70
     Davidson diagonalization with overlap
     ethr =  9.34E-04,  avg # of iterations =  1.0

     negative rho (up, down):  2.742E+00 0.000E+00

     total cpu time spent up to now is     8759.4 secs

     total energy              =  -12690.41059108 Ry
     Harris-Foulkes estimate   =  -12692.16055062 Ry
     estimated scf accuracy    <      11.34613492 Ry

     iteration # 32     ecut=    80.00 Ry     beta=0.70
     Davidson diagonalization with overlap
     ethr =  8.81E-04,  avg # of iterations =  1.5

     negative rho (up, down):  2.557E+00 0.000E+00

     total cpu time spent up to now is     8929.7 secs

     total energy              =  -12690.99621255 Ry
     Harris-Foulkes estimate   =  -12691.17213451 Ry
     estimated scf accuracy    <      58.92386134 Ry

     iteration # 33     ecut=    80.00 Ry     beta=0.70
     Davidson diagonalization with overlap
     ethr =  8.81E-04,  avg # of iterations =  3.8

     negative rho (up, down):  1.502E+00 0.000E+00

     total cpu time spent up to now is     9127.7 secs

     total energy              =  -12688.85189697 Ry
     Harris-Foulkes estimate   =  -12691.56044830 Ry
     estimated scf accuracy    <      26.47594707 Ry

     iteration # 34     ecut=    80.00 Ry     beta=0.70
     Davidson diagonalization with overlap
     ethr =  8.81E-04,  avg # of iterations =  2.0

     negative rho (up, down):  5.545E-01 0.000E+00

     total cpu time spent up to now is     9306.1 secs

     total energy              =  -12687.87949641 Ry
     Harris-Foulkes estimate   =  -12689.43390754 Ry
     estimated scf accuracy    <      32.74163293 Ry

     iteration # 35     ecut=    80.00 Ry     beta=0.70
     Davidson diagonalization with overlap
     ethr =  8.81E-04,  avg # of iterations =  7.2

     negative rho (up, down):  1.116E+00 0.000E+00

     total cpu time spent up to now is     9542.4 secs

     total energy              =  -12687.66536793 Ry
     Harris-Foulkes estimate   =  -12688.60409678 Ry
     estimated scf accuracy    <       9.39909508 Ry

     iteration # 36     ecut=    80.00 Ry     beta=0.70
     Davidson diagonalization with overlap
     ethr =  7.30E-04,  avg # of iterations =  4.3

     negative rho (up, down):  1.009E+00 0.000E+00

     total cpu time spent up to now is     9745.4 secs

     total energy              =  -12687.56837486 Ry
     Harris-Foulkes estimate   =  -12687.93124931 Ry
     estimated scf accuracy    <       4.46188072 Ry

     iteration # 37     ecut=    80.00 Ry     beta=0.70
     Davidson diagonalization with overlap
     ethr =  3.46E-04,  avg # of iterations =  5.0

     negative rho (up, down):  1.205E+00 0.000E+00

     total cpu time spent up to now is     9956.4 secs

     total energy              =  -12687.44425132 Ry
     Harris-Foulkes estimate   =  -12687.63696625 Ry
     estimated scf accuracy    <       2.54173862 Ry

     iteration # 38     ecut=    80.00 Ry     beta=0.70
     Davidson diagonalization with overlap
     ethr =  1.97E-04,  avg # of iterations =  7.0

     negative rho (up, down):  6.811E-01 0.000E+00

     total cpu time spent up to now is    10197.8 secs

     total energy              =  -12687.10317592 Ry
     Harris-Foulkes estimate   =  -12687.49105427 Ry
     estimated scf accuracy    <       2.22930891 Ry

     iteration # 39     ecut=    80.00 Ry     beta=0.70
     Davidson diagonalization with overlap
     ethr =  1.73E-04,  avg # of iterations =  8.3

     negative rho (up, down):  3.196E-01 0.000E+00

     total cpu time spent up to now is    10478.7 secs

     total energy              =  -12687.08680146 Ry
     Harris-Foulkes estimate   =  -12687.22353543 Ry
     estimated scf accuracy    <       1.90484779 Ry

     iteration # 40     ecut=    80.00 Ry     beta=0.70
     Davidson diagonalization with overlap
     ethr =  1.48E-04,  avg # of iterations =  7.8

     negative rho (up, down):  1.236E-01 0.000E+00

     total cpu time spent up to now is    10726.5 secs

     total energy              =  -12687.12900232 Ry
     Harris-Foulkes estimate   =  -12687.17943627 Ry
     estimated scf accuracy    <       0.46025324 Ry

     iteration # 41     ecut=    80.00 Ry     beta=0.70
     Davidson diagonalization with overlap
     ethr =  3.57E-05,  avg # of iterations = 12.8

     negative rho (up, down):  1.250E-01 0.000E+00

     total cpu time spent up to now is    11037.1 secs

     total energy              =  -12687.14083432 Ry
     Harris-Foulkes estimate   =  -12687.15244176 Ry
     estimated scf accuracy    <       0.14807980 Ry

     iteration # 42     ecut=    80.00 Ry     beta=0.70
     Davidson diagonalization with overlap
     ethr =  1.15E-05,  avg # of iterations =  7.7

     negative rho (up, down):  4.216E-02 0.000E+00

     total cpu time spent up to now is    11290.6 secs

     total energy              =  -12687.14328067 Ry
     Harris-Foulkes estimate   =  -12687.14751988 Ry
     estimated scf accuracy    <       0.04775152 Ry

     iteration # 43     ecut=    80.00 Ry     beta=0.70
     Davidson diagonalization with overlap
     c_bands:  1 eigenvalues not converged
     ethr =  3.71E-06,  avg # of iterations = 14.3

     negative rho (up, down):  8.281E-04 0.000E+00

     total cpu time spent up to now is    11637.9 secs

     total energy              =  -12687.14445460 Ry
     Harris-Foulkes estimate   =  -12687.14650868 Ry
     estimated scf accuracy    <       0.02592798 Ry

     iteration # 44     ecut=    80.00 Ry     beta=0.70
     Davidson diagonalization with overlap
     c_bands:  1 eigenvalues not converged
     ethr =  2.01E-06,  avg # of iterations = 15.0

     negative rho (up, down):  2.377E-02 0.000E+00

     total cpu time spent up to now is    11987.6 secs

     total energy              =  -12687.14318261 Ry
     Harris-Foulkes estimate   =  -12687.14548052 Ry
     estimated scf accuracy    <       0.01446899 Ry

     iteration # 45     ecut=    80.00 Ry     beta=0.70
     Davidson diagonalization with overlap
     ethr =  1.12E-06,  avg # of iterations =  9.7

     negative rho (up, down):  5.714E-03 0.000E+00

     total cpu time spent up to now is    12292.2 secs

     total energy              =  -12687.14390990 Ry
     Harris-Foulkes estimate   =  -12687.14440230 Ry
     estimated scf accuracy    <       0.00921121 Ry

     iteration # 46     ecut=    80.00 Ry     beta=0.70
     Davidson diagonalization with overlap
     ethr =  7.15E-07,  avg # of iterations = 11.2

     negative rho (up, down):  1.514E-02 0.000E+00

     total cpu time spent up to now is    12596.3 secs

     total energy              =  -12687.14442248 Ry
     Harris-Foulkes estimate   =  -12687.14430887 Ry
     estimated scf accuracy    <       0.00354018 Ry

     iteration # 47     ecut=    80.00 Ry     beta=0.70
     Davidson diagonalization with overlap
     ethr =  2.75E-07,  avg # of iterations =  8.8

     negative rho (up, down):  1.530E-02 0.000E+00

     total cpu time spent up to now is    12874.5 secs

     total energy              =  -12687.14456594 Ry
     Harris-Foulkes estimate   =  -12687.14455368 Ry
     estimated scf accuracy    <       0.00087121 Ry

     iteration # 48     ecut=    80.00 Ry     beta=0.70
     Davidson diagonalization with overlap
     ethr =  6.76E-08,  avg # of iterations =  3.0

     negative rho (up, down):  9.915E-03 0.000E+00

     total cpu time spent up to now is    13068.8 secs

     total energy              =  -12687.14454283 Ry
     Harris-Foulkes estimate   =  -12687.14459943 Ry
     estimated scf accuracy    <       0.00034122 Ry

     iteration # 49     ecut=    80.00 Ry     beta=0.70
     Davidson diagonalization with overlap
     ethr =  2.65E-08,  avg # of iterations = 10.0

     negative rho (up, down):  4.087E-03 0.000E+00

     total cpu time spent up to now is    13355.4 secs

     total energy              =  -12687.14447470 Ry
     Harris-Foulkes estimate   =  -12687.14456386 Ry
     estimated scf accuracy    <       0.00010432 Ry

     iteration # 50     ecut=    80.00 Ry     beta=0.70
     Davidson diagonalization with overlap
     c_bands:  1 eigenvalues not converged
     ethr =  8.10E-09,  avg # of iterations = 12.5

     negative rho (up, down):  4.033E-03 0.000E+00

     total cpu time spent up to now is    13693.0 secs

     total energy              =  -12687.14448076 Ry
     Harris-Foulkes estimate   =  -12687.14448778 Ry
     estimated scf accuracy    <       0.00002641 Ry

     iteration # 51     ecut=    80.00 Ry     beta=0.70
     Davidson diagonalization with overlap
     c_bands:  1 eigenvalues not converged
     ethr =  2.05E-09,  avg # of iterations =  6.3

     negative rho (up, down):  2.346E-03 0.000E+00

     total cpu time spent up to now is    13943.8 secs

     total energy              =  -12687.14446758 Ry
     Harris-Foulkes estimate   =  -12687.14448558 Ry
     estimated scf accuracy    <       0.00001315 Ry

     iteration # 52     ecut=    80.00 Ry     beta=0.70
     Davidson diagonalization with overlap
     ethr =  1.02E-09,  avg # of iterations =  7.3

     negative rho (up, down):  2.121E-03 0.000E+00

     total cpu time spent up to now is    14192.4 secs

     total energy              =  -12687.14446790 Ry
     Harris-Foulkes estimate   =  -12687.14446884 Ry
     estimated scf accuracy    <       0.00000171 Ry

     iteration # 53     ecut=    80.00 Ry     beta=0.70
     Davidson diagonalization with overlap
     ethr =  1.33E-10,  avg # of iterations =  3.0

     negative rho (up, down):  1.935E-03 0.000E+00

     total cpu time spent up to now is    14394.6 secs

     total energy              =  -12687.14446846 Ry
     Harris-Foulkes estimate   =  -12687.14446812 Ry
     estimated scf accuracy    <       0.00000038 Ry

     iteration # 54     ecut=    80.00 Ry     beta=0.70
     Davidson diagonalization with overlap
     ethr =  2.93E-11,  avg # of iterations =  3.0

     negative rho (up, down):  2.010E-03 0.000E+00

     total cpu time spent up to now is    14605.5 secs

     total energy              =  -12687.14446869 Ry
     Harris-Foulkes estimate   =  -12687.14446852 Ry
     estimated scf accuracy    <       0.00000014 Ry

     iteration # 55     ecut=    80.00 Ry     beta=0.70
     Davidson diagonalization with overlap
     ethr =  1.08E-11,  avg # of iterations =  3.2

     negative rho (up, down):  2.021E-03 0.000E+00

     total cpu time spent up to now is    14804.8 secs

     total energy              =  -12687.14446881 Ry
     Harris-Foulkes estimate   =  -12687.14446870 Ry
     estimated scf accuracy    <       0.00000004 Ry

     iteration # 56     ecut=    80.00 Ry     beta=0.70
     Davidson diagonalization with overlap
     ethr =  3.20E-12,  avg # of iterations =  3.3

     negative rho (up, down):  1.994E-03 0.000E+00

     total cpu time spent up to now is    15021.0 secs

     total energy              =  -12687.14446887 Ry
     Harris-Foulkes estimate   =  -12687.14446882 Ry
     estimated scf accuracy    <       0.00000003 Ry

     iteration # 57     ecut=    80.00 Ry     beta=0.70
     Davidson diagonalization with overlap
     ethr =  2.59E-12,  avg # of iterations =  3.0

     negative rho (up, down):  1.927E-03 0.000E+00

     total cpu time spent up to now is    15207.4 secs

     End of self-consistent calculation

          k = 0.0000 0.0000 0.0000 (256287 PWs)   bands (ev):

   -16.0290 -15.7163 -15.5441 -14.5975 -14.5250 -14.0904 -14.0176 -13.7817
   -13.7539 -13.6550 -13.3792 -12.8183 -12.7951 -12.7292 -12.6018 -12.5846
   -11.8595 -11.0494 -10.9563 -10.9391 -10.8313 -10.2182  -9.5994  -9.1764
    -9.0854  -9.0599  -8.6220  -8.2557  -8.2098  -8.0726  -7.7089  -7.2812
    -7.2444  -7.2064  -7.1706  -7.1690  -6.8036  -6.7326  -6.1945  -5.7572
    -5.6612  -5.6479  -5.5714  -5.4892  -5.4859  -5.2308  -5.2228  -5.0893
    -5.0432  -4.9119  -4.6834  -4.4429  -4.3575  -4.2774  -4.2180  -4.2063
    -3.9365  -3.8602  -3.7416  -3.7241  -3.7163  -3.3250  -3.2499  -3.2364
    -3.1664  -3.1584  -3.1419  -3.0969  -3.0601  -2.9808  -2.9047  -2.8808
    -2.7933  -2.7498  -2.7436  -2.7418  -2.7141  -2.6811  -2.6230  -2.5935
    -2.5714  -2.5458  -2.4856  -2.4649  -2.4215  -2.3631  -2.3394  -2.2261
    -2.1935  -2.1709  -2.1584  -2.0905  -2.0090  -2.0080  -1.9481  -1.9341
    -1.9112  -1.8886  -1.8859  -1.8840  -1.8825  -1.8557  -1.8401  -1.8242
    -1.7639  -1.7560  -1.7519  -1.7386  -1.7036  -1.6910  -1.6605  -1.6355
    -1.5632  -1.5094  -1.4836  -1.4716  -1.4684  -1.4530  -1.4294  -1.4150
    -1.4058  -1.3868  -1.3791  -1.3525  -1.3462  -1.3127  -1.3060  -1.2980
    -1.2880  -1.2798  -1.2657  -1.2569  -1.2465  -1.2429  -1.2268  -1.2259
    -1.1869  -1.1803  -1.1494  -1.1489  -1.1415  -1.1095  -1.1085  -1.0657
    -1.0312  -1.0228  -0.9977  -0.9895  -0.9818  -0.9432  -0.9399  -0.9268
    -0.9219  -0.9024  -0.9002  -0.8991  -0.8950  -0.8834  -0.8512  -0.8382
    -0.8088  -0.7942  -0.7779  -0.7747  -0.7712  -0.7677  -0.7617  -0.7567
    -0.7523  -0.7490  -0.7474  -0.7395  -0.7278  -0.7183  -0.6966  -0.6938
    -0.6896  -0.6809  -0.6742  -0.6628  -0.6589  -0.6331  -0.6322  -0.6113
    -0.6084  -0.6011  -0.5991  -0.5953  -0.5928  -0.5910  -0.5857  -0.5818
    -0.5812  -0.5777  -0.5756  -0.5750  -0.5729  -0.5668  -0.5659  -0.5407
    -0.5386  -0.5150  -0.4939  -0.4744  -0.4652  -0.4316  -0.4286  -0.4206
    -0.4130  -0.4075  -0.4024  -0.3930  -0.3861  -0.3776  -0.3565  -0.3541
    -0.3435  -0.3383  -0.3311  -0.3211  -0.3104  -0.3101  -0.3019  -0.2980
    -0.2863  -0.2820  -0.2800  -0.2645  -0.2613  -0.2396  -0.2389  -0.2251
    -0.1935  -0.1771  -0.1763  -0.1700  -0.1649  -0.1584  -0.1469  -0.1444
    -0.1433  -0.1424  -0.1408  -0.1336  -0.1296  -0.1274  -0.1206  -0.1194
    -0.1147  -0.1135  -0.1031  -0.1015  -0.0862  -0.0742  -0.0676  -0.0481
    -0.0423  -0.0320  -0.0288  -0.0250  -0.0187  -0.0030   0.0017   0.0036
     0.0072   0.0101   0.0129   0.0211   0.0263   0.0360   0.0411   0.0427
     0.0479   0.0506   0.0534   0.0581   0.0588   0.0623   0.0633   0.0705
     0.0744   0.0820   0.0922   0.0984   0.1259   0.1279   0.1295   0.1320
     0.1369   0.1464   0.1535   0.1747   0.1787   0.1871   0.1903   0.2007
     0.2038   0.2045   0.2098   0.2113   0.2151   0.2317   0.2360   0.2417
     0.2529   0.2567   0.2638   0.2688   0.2709   0.2750   0.2770   0.2885
     0.2941   0.2945   0.3062   0.3100   0.3132   0.3170   0.3219   0.3224
     0.3239   0.3290   0.3342   0.3367   0.3473   0.3609   0.3654   0.3676
     0.3684   0.3837   0.3931   0.4011   0.4172   0.4248   0.4249   0.4356
     0.4410   0.4559   0.4694   0.4812   0.4950   0.4968   0.4981   0.5056
     0.5069   0.5221   0.5276   0.5307   0.5383   0.5435   0.5477   0.5497
     0.5812   0.5821   0.5916   0.6017   0.6046   0.6064   0.6117   0.6145
     0.6189   0.6318   0.6320   0.6449   0.6553   0.6563   0.6741   0.6796
     0.6797   0.6806   0.6927   0.7092   0.7114   0.7178   0.7182   0.7211
     0.7368   0.7433   0.7461   0.7522   0.7575   0.7648   0.7686   0.7693
     0.7714   0.7864   0.7921   0.7942   0.7961   0.8034   0.8064   0.8092
     0.8129   0.8174   0.8230   0.8268   0.8355   0.8394   0.8428   0.8490
     0.8581   0.8632   0.8686   0.8710   0.8807   0.8881   0.8925   0.8943
     0.9076   0.9109   0.9149   0.9191   0.9265   0.9315   0.9356   0.9419
     0.9464   0.9510   0.9516   0.9539   0.9605   0.9608   0.9662   0.9699
     0.9731   0.9806   0.9830   0.9859   0.9941   1.0007   1.0041   1.0048
     1.0091   1.0108   1.0117   1.0138   1.0195   1.0264   1.0328   1.0410
     1.0465   1.0551   1.0576   1.0708   1.0752   1.0834   1.0865   1.0906
     1.1025   1.1097   1.1125   1.1231   1.1253   1.1363   1.1434   1.1450
     1.1484   1.1576   1.1620   1.1635   1.1673   1.1728   1.1778   1.1835
     1.1866   1.1994   1.2007   1.2053   1.2066   1.2146   1.2180   1.2224
     1.2283   1.2287   1.2368   1.2475   1.2518   1.2568   1.2613   1.2698
     1.2712   1.2733   1.2738   1.2778   1.2804   1.2845   1.2867   1.2880
     1.2936   1.2996   1.3048   1.3093   1.3152   1.3162   1.3222   1.3304
     1.3407   1.3458   1.3547   1.3585   1.3613   1.3679   1.3718   1.3777
     1.3786   1.3826   1.3832   1.3888   1.3950   1.3988   1.3998   1.4036
     1.4102   1.4179   1.4234   1.4320   1.4364   1.4392   1.4465   1.4526
     1.4606   1.4663   1.4693   1.4728   1.4743   1.4761   1.4841   1.4924
     1.4940   1.4983   1.5053   1.5053   1.5064   1.5155   1.5172   1.5201
     1.5228   1.5232   1.5312   1.5328   1.5384   1.5391   1.5450   1.5524
     1.5537   1.5575   1.5598   1.5604   1.5665   1.5706   1.5717   1.5761
     1.5776   1.5793   1.5799   1.5817   1.6020   1.6050   1.6163   1.6241
     1.6292   1.6301   1.6374   1.6380   1.6424   1.6429   1.6454   1.6476
     1.6578   1.6625   1.6672   1.6687   1.6759   1.6763   1.6806   1.6852
     1.6883   1.6940   1.6943   1.6981   1.7011   1.7013   1.7080   1.7085
     1.7123   1.7152   1.7191   1.7195   1.7245   1.7312   1.7354   1.7422
     1.7490   1.7516   1.7596   1.7754   1.7814   1.7825   1.7924   1.8135
     1.8153   1.8263   1.8301   1.8354   1.8521   1.8530   1.8609   1.8617
     1.8766   1.8888   1.9027   1.9059   1.9072   1.9124   1.9148   1.9253
     1.9424   2.0966   2.2206   2.2704   2.3749   2.3896   2.4377   2.4495
     2.4714   2.4738   2.4781   2.4816   2.4902   2.4963   2.5144   2.5835
     2.6711   2.6732   2.7214   2.7334   2.7506   2.7546   2.7557   2.8447
     2.8905   2.8946   2.9862   3.0168   3.2761   3.3538   3.4516   3.4983
     3.5810   3.7241   3.8147   3.8370   3.9001   4.0999   4.1113   4.1115
     4.1646   4.2036   4.2047   4.2207   4.2578   4.2667   4.2873   4.2940
     4.3190   4.3295   4.3880   4.4012   4.4693   4.5595   4.5767   4.8423
     4.9407   4.9469   5.0340   5.1250   5.2521   5.2695   5.3370   5.5502
     5.6874   5.7210   5.8286   5.9005   5.9873   6.0761   6.1985   6.2139
     6.2965   6.4877   6.6230   6.6379   6.6780   6.6812   6.7160   6.7166
     6.8091   6.8335   6.8800   6.9233   6.9462   6.9962   7.0019   7.0103
     7.0674   7.1053   7.1647   7.2981   7.3414   7.3964   7.4033   7.4406
     7.5484   7.5674   7.6270   7.7559   7.8684   7.8858   7.8970   7.9316
     7.9701   7.9823   7.9839   8.0048   8.0134   8.0816   8.4213   8.4264
     8.4601   8.4726   8.5584   8.5688   8.5772   8.5909   8.6156   8.6470
     8.6486   8.7033   8.7309   8.7442   8.7751   8.8546   8.8754   8.9216
     8.9437   8.9710   9.0219   9.0681   9.1093   9.1383   9.1480   9.2333
     9.2502   9.2879   9.3490   9.3748   9.4058   9.4325   9.4713   9.4759
     9.5094   9.5440   9.6070   9.6127   9.6610   9.7830   9.8520   9.9807
    10.0090  10.0308  10.0429  10.0928  10.1037

          k = 0.0000-0.2165 0.0000 (256176 PWs)   bands (ev):

   -15.9907 -15.8575 -15.2470 -15.0981 -14.0395 -14.0266 -13.9510 -13.9350
   -13.7622 -13.6149 -13.3440 -13.2827 -13.1959 -12.6964 -11.9617 -11.8666
   -11.8195 -11.8172 -11.6112 -10.9100 -10.0478  -9.9995  -9.9262  -9.4822
    -8.7696  -8.6428  -8.6353  -8.5086  -8.4793  -8.0839  -7.7991  -7.7362
    -7.5768  -7.0028  -6.6091  -6.5663  -6.5443  -6.5113  -6.4790  -6.2315
    -5.9375  -5.8853  -5.6348  -5.6197  -5.5189  -5.2274  -4.8788  -4.8253
    -4.7156  -4.6878  -4.6302  -4.5802  -4.5694  -4.3527  -4.2707  -4.2047
    -4.1141  -4.0393  -4.0084  -3.7893  -3.7678  -3.2999  -3.2637  -3.1586
    -3.0819  -3.0449  -3.0438  -2.9906  -2.9384  -2.9103  -2.8261  -2.7818
    -2.7732  -2.7629  -2.7220  -2.6969  -2.6771  -2.6111  -2.5668  -2.5424
    -2.5212  -2.5181  -2.4466  -2.3492  -2.3485  -2.3289  -2.3131  -2.3039
    -2.2965  -2.2802  -2.2447  -2.2402  -2.1000  -2.0334  -1.9975  -1.9878
    -1.9855  -1.9570  -1.9049  -1.8919  -1.8892  -1.8858  -1.8751  -1.7904
    -1.7390  -1.7375  -1.7167  -1.7102  -1.6949  -1.6927  -1.6481  -1.6350
    -1.6167  -1.6012  -1.5332  -1.5046  -1.4977  -1.4882  -1.4834  -1.4737
    -1.4713  -1.4651  -1.4528  -1.4129  -1.3878  -1.3811  -1.3639  -1.3373
    -1.3127  -1.2708  -1.2197  -1.2021  -1.2019  -1.1824  -1.1683  -1.1496
    -1.1374  -1.1100  -1.1040  -1.0559  -1.0531  -1.0356  -1.0249  -1.0144
    -1.0117  -1.0079  -1.0016  -0.9996  -0.9909  -0.9879  -0.9777  -0.9714
    -0.9658  -0.9460  -0.9299  -0.9237  -0.9186  -0.9087  -0.8708  -0.8631
    -0.8498  -0.8472  -0.8288  -0.8229  -0.8144  -0.7953  -0.7860  -0.7825
    -0.7783  -0.7678  -0.7371  -0.7369  -0.7239  -0.7145  -0.7139  -0.7072
    -0.6947  -0.6865  -0.6663  -0.6575  -0.6531  -0.6453  -0.6430  -0.6367
    -0.6310  -0.6270  -0.6093  -0.6002  -0.5819  -0.5673  -0.5655  -0.5608
    -0.5577  -0.5549  -0.5408  -0.5359  -0.5327  -0.5210  -0.5157  -0.4976
    -0.4930  -0.4831  -0.4791  -0.4423  -0.4409  -0.4009  -0.3921  -0.3795
    -0.3766  -0.3693  -0.3656  -0.3629  -0.3526  -0.3461  -0.3453  -0.3356
    -0.3343  -0.3315  -0.3211  -0.3187  -0.3096  -0.2996  -0.2878  -0.2876
    -0.2756  -0.2696  -0.2645  -0.2509  -0.2470  -0.2435  -0.2213  -0.2211
    -0.2204  -0.2168  -0.2066  -0.2048  -0.1875  -0.1847  -0.1764  -0.1748
    -0.1652  -0.1593  -0.1583  -0.1448  -0.1250  -0.1145  -0.0971  -0.0880
    -0.0847  -0.0678  -0.0640  -0.0597  -0.0459  -0.0423  -0.0357  -0.0331
    -0.0294  -0.0271  -0.0122  -0.0075  -0.0057  -0.0015  -0.0003   0.0029
     0.0088   0.0127   0.0150   0.0212   0.0217   0.0313   0.0324   0.0490
     0.0492   0.0500   0.0553   0.0625   0.0708   0.0737   0.0785   0.0804
     0.1022   0.1058   0.1116   0.1235   0.1240   0.1300   0.1418   0.1436
     0.1554   0.1589   0.1629   0.1683   0.1683   0.1783   0.1814   0.1827
     0.1864   0.1898   0.1898   0.1948   0.2007   0.2034   0.2218   0.2404
     0.2435   0.2459   0.2495   0.2564   0.2677   0.2677   0.2732   0.2764
     0.2811   0.2883   0.2941   0.2957   0.2997   0.3081   0.3199   0.3212
     0.3287   0.3322   0.3367   0.3409   0.3441   0.3510   0.3565   0.3608
     0.3734   0.3780   0.3817   0.3827   0.3924   0.3996   0.4052   0.4073
     0.4376   0.4385   0.4458   0.4510   0.4518   0.4646   0.4733   0.4766
     0.4803   0.4933   0.5076   0.5176   0.5345   0.5355   0.5452   0.5609
     0.5616   0.5755   0.6084   0.6129   0.6148   0.6321   0.6345   0.6432
     0.6484   0.6566   0.6643   0.6677   0.6815   0.6906   0.6937   0.6985
     0.7075   0.7094   0.7105   0.7200   0.7228   0.7228   0.7310   0.7327
     0.7416   0.7433   0.7468   0.7524   0.7627   0.7688   0.7714   0.7798
     0.7861   0.7863   0.7926   0.7980   0.7991   0.7998   0.8019   0.8028
     0.8059   0.8137   0.8157   0.8235   0.8254   0.8271   0.8305   0.8329
     0.8345   0.8374   0.8409   0.8460   0.8501   0.8592   0.8717   0.8736
     0.8919   0.8936   0.9005   0.9033   0.9093   0.9167   0.9194   0.9195
     0.9231   0.9351   0.9386   0.9405   0.9417   0.9461   0.9464   0.9493
     0.9599   0.9765   0.9791   0.9876   0.9888   0.9896   0.9966   0.9976
     1.0005   1.0069   1.0071   1.0106   1.0223   1.0267   1.0321   1.0354
     1.0422   1.0423   1.0537   1.0715   1.0789   1.0910   1.1080   1.1087
     1.1206   1.1294   1.1403   1.1473   1.1500   1.1607   1.1651   1.1704
     1.1713   1.1725   1.1795   1.1798   1.1842   1.1860   1.1927   1.1987
     1.2014   1.2052   1.2110   1.2144   1.2157   1.2200   1.2235   1.2281
     1.2299   1.2306   1.2326   1.2356   1.2373   1.2452   1.2471   1.2522
     1.2523   1.2539   1.2579   1.2623   1.2652   1.2705   1.2728   1.2785
     1.2807   1.2819   1.2853   1.2893   1.2902   1.2983   1.3001   1.3025
     1.3091   1.3291   1.3330   1.3424   1.3450   1.3621   1.3740   1.3747
     1.3794   1.3840   1.3878   1.3914   1.3990   1.4015   1.4124   1.4171
     1.4186   1.4251   1.4357   1.4409   1.4441   1.4471   1.4514   1.4522
     1.4608   1.4632   1.4666   1.4684   1.4696   1.4720   1.4764   1.4774
     1.4828   1.4873   1.4942   1.4974   1.4988   1.5011   1.5109   1.5115
     1.5187   1.5238   1.5268   1.5297   1.5308   1.5403   1.5427   1.5468
     1.5518   1.5545   1.5600   1.5612   1.5655   1.5657   1.5714   1.5770
     1.5776   1.5854   1.5861   1.5911   1.5949   1.5977   1.6033   1.6101
     1.6117   1.6120   1.6209   1.6328   1.6373   1.6403   1.6441   1.6469
     1.6552   1.6553   1.6610   1.6621   1.6728   1.6790   1.6872   1.6896
     1.6918   1.6968   1.6988   1.7073   1.7075   1.7123   1.7138   1.7145
     1.7157   1.7298   1.7357   1.7395   1.7508   1.7544   1.7572   1.7670
     1.7702   1.7781   1.7794   1.7826   1.7871   1.7929   1.8031   1.8055
     1.8067   1.8203   1.8490   1.8509   1.8736   1.8830   1.8962   1.9435
     1.9530   1.9643   1.9916   1.9952   1.9981   2.0058   2.0587   2.0619
     2.0700   2.0735   2.0764   2.0848   2.0885   2.1079   2.1261   2.2176
     2.3904   2.4080   2.4812   2.6723   2.6782   2.7111   2.7344   2.7391
     2.7638   2.8194   2.8312   2.8428   2.8458   2.8677   2.9053   2.9633
     2.9652   3.0104   3.0263   3.0610   3.1114   3.1766   3.1841   3.2586
     3.2996   3.3199   3.4247   3.4250   3.6343   3.8037   3.8321   3.9145
     3.9610   4.1168   4.2619   4.2960   4.3017   4.3584   4.4527   4.4759
     4.5532   4.6381   4.6574   4.6827   4.8012   4.8492   4.8881   4.9243
     5.0143   5.0236   5.2260   5.3579   5.4242   5.4360   5.4903   5.6011
     5.6092   5.6397   5.6889   5.7270   5.7767   5.8649   5.9347   5.9894
     6.0440   6.1227   6.1590   6.6708   6.6715   6.7326   6.7653   6.7760
     6.8071   6.8155   6.8964   6.9249   7.0822   7.1513   7.2445   7.2702
     7.2913   7.3041   7.3183   7.3400   7.3440   7.3952   7.3955   7.4150
     7.4238   7.4447   7.4805   7.5748   7.6306   7.6796   7.7008   7.7719
     7.7902   7.9489   7.9808   8.0325   8.0614   8.0882   8.1099   8.3573
     8.4433   8.4592   8.5135   8.5305   8.6216   8.6224   8.6580   8.6802
     8.6899   8.7848   8.8452   8.8767   8.8874   8.9774   8.9826   9.0009
     9.0032   9.0175   9.1082   9.1164   9.1412   9.1647   9.2489   9.2757
     9.2796   9.3101   9.4096   9.4400   9.4529   9.4988   9.5203   9.6394
     9.6446   9.6803   9.6839   9.8043   9.8304   9.8571   9.8947   9.9490
    10.0405  10.0492  10.0577  10.1367  10.1398

          k = 0.2500 0.0000 0.0000 (256240 PWs)   bands (ev):

   -15.9079 -15.5930 -15.4488 -14.9120 -14.6160 -14.5534 -14.4622 -14.1406
   -13.5113 -13.2856 -12.9824 -12.7194 -12.6919 -12.6391 -12.2374 -11.7719
   -11.6536 -11.6169 -11.1586 -10.6135 -10.3732 -10.3489 -10.0575  -9.7492
    -9.4646  -9.2372  -9.1016  -8.7796  -8.6764  -8.2396  -7.8478  -7.2234
    -7.1795  -7.1551  -7.0582  -6.9128  -6.3971  -6.2240  -6.0685  -5.6630
    -5.5840  -5.5667  -5.4833  -5.2267  -5.0650  -5.0515  -4.9599  -4.7880
    -4.6782  -4.5289  -4.3390  -4.2694  -4.2204  -4.1906  -4.1308  -4.0400
    -3.9738  -3.8668  -3.7442  -3.7376  -3.7161  -3.6302  -3.5771  -3.5700
    -3.5116  -3.4416  -3.3451  -3.2899  -3.2140  -3.1962  -3.1808  -3.1388
    -3.1010  -3.0465  -3.0325  -2.9424  -2.9265  -2.8194  -2.7265  -2.6802
    -2.6332  -2.5464  -2.5391  -2.5297  -2.5141  -2.4613  -2.3935  -2.3010
    -2.2716  -2.1971  -2.1590  -2.1089  -2.0843  -2.0299  -1.8768  -1.8426
    -1.8372  -1.8279  -1.8133  -1.8011  -1.7294  -1.7057  -1.6866  -1.6477
    -1.6153  -1.5933  -1.5530  -1.5378  -1.5336  -1.5266  -1.5255  -1.5090
    -1.5053  -1.4833  -1.4532  -1.4416  -1.4352  -1.4312  -1.4033  -1.3878
    -1.3640  -1.3445  -1.3383  -1.3207  -1.3190  -1.3121  -1.3103  -1.2981
    -1.2618  -1.2517  -1.2362  -1.2347  -1.2290  -1.2218  -1.2015  -1.1114
    -1.0978  -1.0743  -1.0608  -1.0474  -1.0362  -1.0186  -0.9906  -0.9846
    -0.9761  -0.9691  -0.9602  -0.9561  -0.9444  -0.9364  -0.9236  -0.9147
    -0.9134  -0.9030  -0.8937  -0.8807  -0.8742  -0.8673  -0.8641  -0.8521
    -0.8473  -0.8423  -0.8388  -0.8319  -0.8252  -0.7993  -0.7984  -0.7935
    -0.7799  -0.7781  -0.7673  -0.7596  -0.7513  -0.7480  -0.7405  -0.7332
    -0.7239  -0.7220  -0.7189  -0.7164  -0.7137  -0.7131  -0.7102  -0.6999
    -0.6908  -0.6799  -0.6753  -0.6627  -0.6544  -0.6447  -0.6390  -0.6336
    -0.6308  -0.5951  -0.5859  -0.5676  -0.5635  -0.5480  -0.5384  -0.5345
    -0.5222  -0.5142  -0.5047  -0.5035  -0.4971  -0.4933  -0.4812  -0.4744
    -0.4673  -0.4542  -0.4276  -0.4021  -0.3764  -0.3509  -0.3448  -0.3376
    -0.3114  -0.3082  -0.3056  -0.3022  -0.2980  -0.2890  -0.2851  -0.2808
    -0.2714  -0.2634  -0.2609  -0.2570  -0.2461  -0.2410  -0.2308  -0.2250
    -0.2150  -0.2112  -0.2025  -0.1976  -0.1908  -0.1885  -0.1754  -0.1615
    -0.1484  -0.1397  -0.1364  -0.1302  -0.1255  -0.1221  -0.1152  -0.1101
    -0.1048  -0.0966  -0.0883  -0.0790  -0.0719  -0.0648  -0.0621  -0.0528
    -0.0418  -0.0341  -0.0294  -0.0232  -0.0199  -0.0173  -0.0122  -0.0040
     0.0012   0.0112   0.0163   0.0215   0.0305   0.0378   0.0434   0.0473
     0.0515   0.0602   0.0651   0.0739   0.0830   0.0841   0.0890   0.0967
     0.1106   0.1136   0.1184   0.1241   0.1330   0.1341   0.1386   0.1464
     0.1555   0.1695   0.1891   0.1979   0.2016   0.2042   0.2185   0.2197
     0.2247   0.2304   0.2422   0.2461   0.2505   0.2541   0.2591   0.2629
     0.2650   0.2698   0.2720   0.2756   0.2791   0.2822   0.2904   0.2961
     0.2993   0.3034   0.3054   0.3163   0.3207   0.3359   0.3403   0.3433
     0.3537   0.3569   0.3628   0.3675   0.3806   0.3825   0.3850   0.3967
     0.3978   0.4052   0.4106   0.4160   0.4226   0.4294   0.4417   0.4438
     0.4737   0.4854   0.4925   0.5065   0.5089   0.5141   0.5245   0.5252
     0.5306   0.5376   0.5404   0.5484   0.5497   0.5521   0.5557   0.5610
     0.5620   0.5662   0.5696   0.5740   0.5754   0.5791   0.5859   0.5875
     0.5887   0.5989   0.6053   0.6072   0.6112   0.6246   0.6335   0.6378
     0.6471   0.6615   0.6704   0.6771   0.6797   0.6906   0.6924   0.6967
     0.7066   0.7108   0.7170   0.7240   0.7295   0.7308   0.7374   0.7392
     0.7457   0.7501   0.7527   0.7592   0.7647   0.7711   0.7837   0.7865
     0.7922   0.7961   0.7982   0.8004   0.8068   0.8156   0.8181   0.8267
     0.8289   0.8330   0.8376   0.8441   0.8543   0.8574   0.8617   0.8623
     0.8688   0.8737   0.8766   0.8797   0.8922   0.8996   0.9024   0.9076
     0.9186   0.9229   0.9264   0.9266   0.9381   0.9429   0.9451   0.9570
     0.9634   0.9681   0.9743   0.9821   0.9875   0.9980   1.0076   1.0122
     1.0162   1.0211   1.0226   1.0271   1.0320   1.0353   1.0405   1.0429
     1.0451   1.0525   1.0691   1.0729   1.0824   1.0870   1.0915   1.0989
     1.1136   1.1158   1.1181   1.1235   1.1288   1.1332   1.1393   1.1443
     1.1483   1.1519   1.1535   1.1574   1.1591   1.1635   1.1750   1.1862
     1.1927   1.1954   1.2007   1.2051   1.2134   1.2189   1.2278   1.2320
     1.2356   1.2383   1.2430   1.2465   1.2506   1.2533   1.2599   1.2632
     1.2653   1.2684   1.2752   1.2782   1.2819   1.2842   1.2872   1.2884
     1.2899   1.2933   1.2977   1.2996   1.3087   1.3145   1.3190   1.3222
     1.3302   1.3313   1.3325   1.3348   1.3381   1.3403   1.3466   1.3507
     1.3531   1.3597   1.3627   1.3668   1.3706   1.3849   1.3888   1.3936
     1.3995   1.4021   1.4073   1.4130   1.4154   1.4235   1.4339   1.4356
     1.4446   1.4458   1.4505   1.4619   1.4643   1.4721   1.4853   1.4893
     1.4929   1.4973   1.5063   1.5080   1.5126   1.5150   1.5210   1.5213
     1.5293   1.5348   1.5365   1.5392   1.5429   1.5453   1.5478   1.5514
     1.5544   1.5578   1.5616   1.5631   1.5649   1.5723   1.5742   1.5753
     1.5838   1.5912   1.5958   1.5999   1.6030   1.6070   1.6121   1.6129
     1.6163   1.6181   1.6235   1.6246   1.6325   1.6374   1.6422   1.6462
     1.6487   1.6557   1.6576   1.6687   1.6726   1.6748   1.6775   1.6830
     1.6846   1.6867   1.6928   1.6949   1.6989   1.7013   1.7051   1.7069
     1.7084   1.7176   1.7241   1.7252   1.7322   1.7333   1.7354   1.7386
     1.7446   1.7460   1.7496   1.7520   1.7647   1.7671   1.7760   1.7776
     1.7833   1.7866   1.7947   1.8098   1.8203   1.8224   1.8423   1.8597
     1.8711   1.8824   1.8880   1.8976   1.9290   1.9861   2.0018   2.0051
     2.0218   2.0329   2.0436   2.0771   2.1007   2.1487   2.2408   2.2858
     2.3368   2.3501   2.3732   2.3861   2.4496   2.5014   2.6002   2.6175
     2.7731   2.8109   2.8414   2.8499   3.0539   3.2256   3.2422   3.2773
     3.3164   3.3427   3.4362   3.4635   3.4831   3.4852   3.5993   3.6871
     3.7456   3.8023   3.8798   3.9013   3.9120   3.9178   3.9535   3.9884
     4.0343   4.0845   4.1269   4.2174   4.2249   4.3263   4.4604   4.5039
     4.5570   4.5836   4.6051   4.6702   4.7326   4.8134   4.9005   5.0887
     5.1040   5.1907   5.3134   5.4678   5.4955   5.5157   5.5488   5.6164
     5.6347   5.7624   5.7752   5.8069   5.8156   5.8767   5.9173   5.9465
     5.9834   6.0260   6.0760   6.1008   6.1373   6.2383   6.2709   6.3332
     6.3563   6.4463   6.5032   6.7419   6.8205   6.8941   6.9704   6.9867
     7.0060   7.0485   7.0901   7.2030   7.2467   7.2937   7.3026   7.3254
     7.4029   7.4743   7.5073   7.5112   7.5577   7.6711   7.6952   7.7099
     7.8127   7.8306   7.8898   8.0195   8.0479   8.0630   8.0805   8.1152
     8.1405   8.1570   8.2793   8.2963   8.3007   8.3587   8.3718   8.4733
     8.5807   8.5948   8.6300   8.6397   8.6584   8.6941   8.7296   8.8629
     8.8925   8.9117   8.9228   8.9516   9.0218   9.1865   9.1963   9.3449
     9.3742   9.3973   9.4220   9.4300   9.4416   9.4575   9.4689   9.4973
     9.5047   9.5209   9.5373   9.5490   9.5762   9.6452   9.6701   9.7576
     9.7686   9.8463   9.9070   9.9715   9.9976

          k = 0.2500-0.2165 0.0000 (256316 PWs)   bands (ev):

   -15.8668 -15.7448 -15.1270 -15.0515 -14.8796 -14.6442 -14.1526 -13.9561
   -13.6432 -13.4614 -12.9567 -12.8131 -12.6898 -12.4620 -12.2568 -11.9509
   -11.5476 -11.3529 -10.9629 -10.7692 -10.6482 -10.4688 -10.3196  -9.7276
    -9.2169  -8.9803  -8.7437  -8.6758  -8.5303  -8.3748  -8.1018  -7.9458
    -7.8658  -6.9866  -6.3322  -6.2727  -6.2276  -6.1381  -5.9689  -5.9204
    -5.7957  -5.6637  -5.4580  -5.4485  -5.3883  -5.0583  -4.8097  -4.6373
    -4.5658  -4.4883  -4.4178  -4.4104  -4.3194  -4.1020  -4.0840  -4.0811
    -4.0061  -3.9849  -3.8342  -3.8302  -3.7048  -3.6808  -3.6189  -3.4894
    -3.4388  -3.4156  -3.2996  -3.2045  -3.1946  -3.1922  -3.1551  -3.1514
    -3.1035  -2.9019  -2.8792  -2.8631  -2.7927  -2.7863  -2.7297  -2.6662
    -2.6554  -2.6415  -2.6214  -2.5574  -2.5387  -2.4626  -2.4016  -2.2449
    -2.2420  -2.1379  -2.1163  -2.0610  -2.0460  -2.0111  -1.9049  -1.9001
    -1.8984  -1.8968  -1.8283  -1.8070  -1.7484  -1.7331  -1.7136  -1.7076
    -1.6818  -1.6508  -1.5931  -1.5685  -1.5485  -1.5431  -1.5299  -1.5196
    -1.4965  -1.4671  -1.4541  -1.4441  -1.4359  -1.4318  -1.4238  -1.4149
    -1.4126  -1.4069  -1.4054  -1.3982  -1.3759  -1.3361  -1.3196  -1.3019
    -1.2475  -1.2389  -1.2012  -1.1911  -1.1102  -1.1004  -1.0804  -1.0695
    -1.0675  -1.0646  -1.0190  -1.0146  -1.0063  -0.9993  -0.9960  -0.9896
    -0.9870  -0.9663  -0.9659  -0.9620  -0.9582  -0.9499  -0.9476  -0.9470
    -0.9407  -0.9294  -0.9203  -0.9166  -0.9024  -0.8982  -0.8711  -0.8632
    -0.8598  -0.8555  -0.8499  -0.8459  -0.8385  -0.8226  -0.8155  -0.8131
    -0.8013  -0.7804  -0.7777  -0.7728  -0.7635  -0.7589  -0.7502  -0.7416
    -0.7300  -0.7263  -0.7142  -0.7108  -0.7020  -0.6941  -0.6868  -0.6834
    -0.6774  -0.6633  -0.6593  -0.6511  -0.6453  -0.6129  -0.6065  -0.6033
    -0.6012  -0.5873  -0.5865  -0.5611  -0.5488  -0.5255  -0.5153  -0.5088
    -0.5041  -0.4919  -0.4819  -0.4799  -0.4642  -0.4576  -0.4497  -0.4459
    -0.4333  -0.4248  -0.4188  -0.4130  -0.3948  -0.3878  -0.3840  -0.3729
    -0.3512  -0.3388  -0.3219  -0.3119  -0.3028  -0.2976  -0.2934  -0.2908
    -0.2812  -0.2706  -0.2610  -0.2565  -0.2415  -0.2367  -0.2330  -0.2295
    -0.2213  -0.2113  -0.1998  -0.1943  -0.1911  -0.1775  -0.1661  -0.1578
    -0.1486  -0.1396  -0.1355  -0.1302  -0.1249  -0.1179  -0.1095  -0.1066
    -0.1047  -0.1015  -0.1002  -0.0963  -0.0892  -0.0880  -0.0808  -0.0761
    -0.0691  -0.0646  -0.0538  -0.0427  -0.0388  -0.0281  -0.0189  -0.0081
     0.0029   0.0069   0.0155   0.0172   0.0256   0.0401   0.0438   0.0472
     0.0535   0.0581   0.0615   0.0821   0.0926   0.1123   0.1126   0.1247
     0.1371   0.1483   0.1551   0.1571   0.1629   0.1643   0.1694   0.1706
     0.1782   0.1834   0.1953   0.1990   0.2048   0.2095   0.2132   0.2211
     0.2231   0.2246   0.2332   0.2434   0.2494   0.2515   0.2559   0.2587
     0.2614   0.2622   0.2685   0.2704   0.2779   0.2793   0.2860   0.2899
     0.2942   0.2960   0.3033   0.3105   0.3279   0.3310   0.3370   0.3446
     0.3519   0.3577   0.3641   0.3713   0.3763   0.3799   0.3848   0.3960
     0.4030   0.4054   0.4102   0.4195   0.4208   0.4299   0.4333   0.4344
     0.4473   0.4525   0.4618   0.4683   0.4760   0.4974   0.5093   0.5227
     0.5300   0.5359   0.5401   0.5481   0.5489   0.5513   0.5537   0.5628
     0.5645   0.5704   0.5758   0.5780   0.5842   0.5873   0.5920   0.5959
     0.6023   0.6045   0.6113   0.6282   0.6339   0.6423   0.6432   0.6533
     0.6620   0.6649   0.6687   0.6729   0.6894   0.6994   0.7017   0.7067
     0.7096   0.7164   0.7219   0.7259   0.7300   0.7334   0.7347   0.7395
     0.7405   0.7450   0.7581   0.7669   0.7721   0.7753   0.7840   0.7902
     0.7971   0.8020   0.8071   0.8148   0.8231   0.8307   0.8395   0.8412
     0.8509   0.8516   0.8611   0.8650   0.8683   0.8733   0.8760   0.8788
     0.8827   0.8898   0.8933   0.9077   0.9123   0.9157   0.9186   0.9220
     0.9234   0.9258   0.9289   0.9306   0.9364   0.9418   0.9470   0.9495
     0.9513   0.9549   0.9625   0.9665   0.9695   0.9723   0.9737   0.9771
     0.9833   0.9867   0.9969   1.0051   1.0215   1.0247   1.0272   1.0287
     1.0455   1.0474   1.0546   1.0627   1.0660   1.0686   1.0857   1.0861
     1.0913   1.0983   1.1073   1.1074   1.1106   1.1160   1.1167   1.1206
     1.1242   1.1286   1.1350   1.1428   1.1482   1.1527   1.1576   1.1631
     1.1670   1.1771   1.1787   1.1850   1.1930   1.1999   1.2135   1.2230
     1.2265   1.2289   1.2330   1.2355   1.2400   1.2462   1.2503   1.2576
     1.2591   1.2629   1.2758   1.2794   1.2832   1.2875   1.2906   1.2993
     1.3107   1.3148   1.3184   1.3332   1.3366   1.3431   1.3456   1.3476
     1.3482   1.3524   1.3540   1.3558   1.3611   1.3639   1.3672   1.3685
     1.3745   1.3810   1.3821   1.3913   1.3980   1.4036   1.4130   1.4235
     1.4295   1.4327   1.4348   1.4386   1.4402   1.4438   1.4457   1.4517
     1.4540   1.4545   1.4576   1.4600   1.4608   1.4622   1.4684   1.4763
     1.4779   1.4810   1.4843   1.4887   1.4955   1.4980   1.5033   1.5096
     1.5129   1.5210   1.5254   1.5336   1.5356   1.5399   1.5441   1.5460
     1.5491   1.5564   1.5630   1.5678   1.5688   1.5753   1.5798   1.5822
     1.5860   1.5905   1.5937   1.5980   1.6031   1.6059   1.6092   1.6119
     1.6163   1.6259   1.6310   1.6328   1.6386   1.6398   1.6442   1.6464
     1.6470   1.6508   1.6517   1.6564   1.6616   1.6647   1.6677   1.6728
     1.6769   1.6797   1.6880   1.6931   1.6942   1.7004   1.7010   1.7032
     1.7058   1.7089   1.7124   1.7154   1.7189   1.7217   1.7306   1.7378
     1.7398   1.7504   1.7514   1.7524   1.7624   1.7647   1.7688   1.7759
     1.7834   1.7940   1.8063   1.8139   1.8184   1.8207   1.8363   1.8480
     1.8618   1.9122   1.9224   1.9440   1.9529   2.0012   2.0102   2.0259
     2.0369   2.0461   2.0540   2.0625   2.1091   2.1222   2.1554   2.2069
     2.2710   2.3728   2.3864   2.4115   2.4344   2.5438   2.5847   2.8279
     2.8430   2.8958   2.9437   3.0231   3.0437   3.0460   3.0682   3.1085
     3.1575   3.1992   3.2269   3.3177   3.3347   3.4345   3.5449   3.5621
     3.7980   3.8650   3.8967   3.9615   3.9943   4.0927   4.1318   4.1490
     4.1701   4.2299   4.2990   4.3271   4.3652   4.3958   4.4772   4.5104
     4.6497   4.6753   4.6985   4.7453   4.8111   4.8701   4.9165   4.9345
     5.0670   5.1236   5.1567   5.1980   5.2169   5.2645   5.4133   5.5029
     5.5474   5.6371   5.6637   5.6993   5.7038   5.7449   5.7581   5.8954
     5.9563   6.0302   6.0685   6.1113   6.1863   6.2662   6.2819   6.3308
     6.3977   6.7867   6.8691   6.9196   6.9509   7.0021   7.0162   7.0230
     7.1814   7.2051   7.2502   7.3192   7.3383   7.3583   7.4199   7.4418
     7.4499   7.4758   7.5649   7.5873   7.6014   7.6442   7.6493   7.6629
     7.6818   7.7112   7.7277   7.7726   7.8281   7.9503   8.0602   8.0666
     8.1192   8.1936   8.2363   8.2716   8.3903   8.4436   8.4606   8.5034
     8.5461   8.6262   8.6536   8.6815   8.7027   8.8302   8.8759   8.8927
     8.9192   8.9464   8.9864   9.0057   9.0481   9.0566   9.0857   9.1370
     9.2125   9.2549   9.2666   9.2847   9.3017   9.3341   9.4015   9.4380
     9.4478   9.4808   9.5285   9.5508   9.5716   9.6008   9.6205   9.6344
     9.6791   9.6877   9.7275   9.8518   9.9323

          k =-0.5000 0.0000 0.0000 (256496 PWs)   bands (ev):

   -15.5965 -15.5042 -15.2426 -15.2144 -15.2132 -14.8324 -14.1572 -14.1207
   -14.0618 -13.5917 -12.3961 -12.3632 -12.2485 -12.0830 -11.7154 -11.6622
   -11.4534 -11.4485 -11.2883 -11.0528 -10.7979 -10.5306 -10.4343 -10.0193
    -9.6154  -9.4003  -9.3897  -8.9140  -8.5758  -8.4402  -8.2681  -7.7899
    -7.0983  -7.0656  -7.0412  -6.9862  -6.7054  -5.6709  -5.4995  -5.2805
    -5.0607  -5.0280  -4.7354  -4.7305  -4.6022  -4.5500  -4.5397  -4.5136
    -4.4901  -4.4133  -4.3910  -4.3792  -4.3487  -4.2996  -4.2937  -4.1925
    -4.1490  -4.1199  -4.0432  -3.8847  -3.8669  -3.7717  -3.7080  -3.6729
    -3.6400  -3.6314  -3.6241  -3.2906  -3.2696  -3.2616  -3.2136  -3.1803
    -3.1684  -3.1549  -3.1438  -3.1158  -3.0909  -3.0625  -3.0444  -2.9497
    -2.7669  -2.7101  -2.6188  -2.5499  -2.5470  -2.4779  -2.4040  -2.3176
    -2.2985  -2.2422  -2.2119  -2.1802  -2.1299  -2.0366  -2.0262  -1.9973
    -1.9819  -1.8895  -1.8750  -1.6393  -1.6260  -1.6138  -1.6091  -1.6077
    -1.6070  -1.5741  -1.4918  -1.4877  -1.4797  -1.4591  -1.4539  -1.4219
    -1.3891  -1.3876  -1.3772  -1.3701  -1.3459  -1.3327  -1.3236  -1.3214
    -1.2578  -1.2289  -1.2289  -1.2176  -1.2002  -1.1879  -1.1769  -1.1587
    -1.1557  -1.1453  -1.1406  -1.1335  -1.1096  -1.0994  -1.0954  -1.0921
    -1.0863  -1.0827  -1.0709  -1.0653  -1.0549  -1.0528  -1.0358  -1.0332
    -1.0276  -1.0148  -1.0084  -1.0051  -1.0043  -0.9926  -0.9606  -0.9422
    -0.9396  -0.9276  -0.9235  -0.9205  -0.9128  -0.9055  -0.9031  -0.8982
    -0.8870  -0.8773  -0.8611  -0.8554  -0.8462  -0.8459  -0.8411  -0.8331
    -0.8222  -0.8166  -0.8096  -0.7939  -0.7913  -0.7788  -0.7567  -0.7501
    -0.7230  -0.7217  -0.7186  -0.7143  -0.7115  -0.7107  -0.6996  -0.6950
    -0.6789  -0.6710  -0.6699  -0.6671  -0.6635  -0.6621  -0.6554  -0.6510
    -0.6459  -0.6376  -0.6368  -0.5885  -0.5794  -0.5709  -0.5702  -0.5494
    -0.5128  -0.5066  -0.5018  -0.4707  -0.4528  -0.4527  -0.4388  -0.4382
    -0.4333  -0.4192  -0.4170  -0.4091  -0.4033  -0.3890  -0.3877  -0.3820
    -0.3816  -0.3680  -0.3651  -0.3494  -0.3452  -0.3300  -0.3223  -0.3194
    -0.3131  -0.3032  -0.3000  -0.2936  -0.2478  -0.2434  -0.2274  -0.2269
    -0.2193  -0.1905  -0.1894  -0.1745  -0.1640  -0.1613  -0.1528  -0.1474
    -0.1465  -0.1445  -0.1330  -0.1276  -0.1214  -0.1102  -0.1084  -0.1067
    -0.1045  -0.0979  -0.0932  -0.0594  -0.0575  -0.0554  -0.0537  -0.0328
    -0.0293  -0.0268  -0.0239  -0.0219  -0.0094  -0.0046   0.0103   0.0129
     0.0173   0.0236   0.0330   0.0440   0.0503   0.0568   0.0589   0.0688
     0.0826   0.1074   0.1179   0.1232   0.1275   0.1308   0.1402   0.1465
     0.1487   0.1546   0.1575   0.1603   0.1623   0.1658   0.1990   0.2131
     0.2203   0.2354   0.2355   0.2413   0.2415   0.2424   0.2471   0.2489
     0.2509   0.2513   0.2589   0.2656   0.2656   0.2904   0.2966   0.3159
     0.3178   0.3220   0.3284   0.3289   0.3324   0.3325   0.3377   0.3437
     0.3476   0.3492   0.3523   0.3584   0.3591   0.3601   0.3648   0.3660
     0.3693   0.3776   0.3802   0.3810   0.3866   0.3880   0.3930   0.3971
     0.3986   0.4023   0.4040   0.4069   0.4107   0.4108   0.4177   0.4183
     0.4308   0.4326   0.4520   0.4541   0.4700   0.4857   0.5046   0.5059
     0.5185   0.5267   0.5401   0.5430   0.5698   0.5734   0.5759   0.5797
     0.5840   0.5850   0.5903   0.5950   0.5982   0.6054   0.6066   0.6090
     0.6100   0.6162   0.6197   0.6202   0.6250   0.6304   0.6315   0.6372
     0.6405   0.6415   0.6433   0.6520   0.6552   0.6594   0.6618   0.6670
     0.6723   0.6919   0.6932   0.7054   0.7072   0.7260   0.7336   0.7338
     0.7475   0.7484   0.7524   0.7604   0.7652   0.7711   0.7731   0.7754
     0.7782   0.7815   0.7835   0.7840   0.7887   0.7933   0.7971   0.8019
     0.8027   0.8136   0.8191   0.8207   0.8235   0.8359   0.8369   0.8474
     0.8519   0.8591   0.8611   0.8662   0.8685   0.8725   0.8785   0.8864
     0.8878   0.8907   0.8907   0.8952   0.9069   0.9113   0.9144   0.9184
     0.9195   0.9230   0.9259   0.9324   0.9348   0.9449   0.9530   0.9546
     0.9607   0.9660   0.9705   0.9777   0.9783   0.9844   0.9911   0.9970
     1.0220   1.0257   1.0260   1.0330   1.0362   1.0472   1.0559   1.0865
     1.0885   1.0948   1.0965   1.0997   1.1025   1.1027   1.1066   1.1082
     1.1100   1.1152   1.1269   1.1319   1.1329   1.1352   1.1383   1.1433
     1.1460   1.1484   1.1615   1.1637   1.1680   1.1710   1.1769   1.1795
     1.1996   1.2047   1.2063   1.2110   1.2120   1.2267   1.2281   1.2415
     1.2695   1.2742   1.2789   1.2791   1.2816   1.2839   1.3084   1.3129
     1.3139   1.3159   1.3233   1.3247   1.3308   1.3321   1.3435   1.3531
     1.3548   1.3644   1.3685   1.3700   1.3769   1.3780   1.3782   1.3804
     1.3849   1.3863   1.3882   1.3883   1.3906   1.3938   1.3958   1.3983
     1.4085   1.4153   1.4234   1.4389   1.4400   1.4431   1.4468   1.4481
     1.4543   1.4573   1.4692   1.4712   1.4783   1.4802   1.4835   1.4863
     1.4962   1.4979   1.5046   1.5063   1.5076   1.5085   1.5097   1.5143
     1.5212   1.5246   1.5297   1.5319   1.5493   1.5528   1.5596   1.5607
     1.5644   1.5725   1.5733   1.5744   1.5788   1.5790   1.5800   1.5810
     1.5849   1.5854   1.5874   1.5886   1.5902   1.5904   1.5959   1.6014
     1.6023   1.6029   1.6097   1.6115   1.6127   1.6149   1.6189   1.6224
     1.6235   1.6270   1.6278   1.6391   1.6418   1.6592   1.6702   1.6716
     1.6743   1.6803   1.6810   1.6846   1.6853   1.6866   1.6893   1.6923
     1.6996   1.6998   1.7083   1.7109   1.7125   1.7172   1.7186   1.7246
     1.7250   1.7303   1.7331   1.7411   1.7424   1.7512   1.7594   1.7666
     1.7708   1.7726   1.7760   1.7785   1.7794   1.7811   1.7815   1.8078
     1.8116   1.8277   1.8337   1.8408   1.8588   1.8634   1.8684   1.8739
     1.8847   1.8971   1.9294   2.3044   2.3218   2.3410   2.3507   2.4865
     2.4977   2.5307   2.5326   2.5365   2.5615   2.5625   2.5727   2.8172
     2.8922   2.9494   2.9627   2.9913   3.0173   3.0703   3.0765   3.2675
     3.2902   3.3889   3.4462   3.4704   3.5149   3.5492   3.7678   3.7927
     4.0495   4.0619   4.0653   4.0860   4.1505   4.2480   4.2619   4.3280
     4.3308   4.3683   4.4441   4.5114   4.5243   4.5373   4.5958   4.8655
     4.8967   5.0361   5.0426   5.0842   5.0862   5.0985   5.1105   5.1576
     5.1626   5.2594   5.2703   5.2720   5.2774   5.3059   5.3145   5.3605
     5.3705   5.3896   5.4028   5.4363   5.5172   5.5525   5.5791   5.7453
     5.8402   5.8578   5.9231   5.9693   6.0287   6.1334   6.1592   6.2324
     6.2549   6.2635   6.2802   6.3237   6.3537   6.3914   6.4757   6.4764
     6.5067   6.6874   6.7075   6.7723   7.0500   7.0989   7.3447   7.3612
     7.3657   7.3876   7.4266   7.5048   7.5187   7.8282   7.8418   7.8512
     7.8522   7.8576   7.9094   7.9366   7.9461   8.0481   8.0555   8.0711
     8.0981   8.1558   8.1652   8.1941   8.2278   8.2664   8.3436   8.4060
     8.4299   8.4572   8.4899   8.5500   8.5535   8.5610   8.5788   8.6248
     8.6292   8.6664   8.6666   8.9857   9.0645   9.1066   9.1115   9.1170
     9.1571   9.1611   9.1665   9.2618   9.2772   9.2902   9.3597   9.3867
     9.3932   9.4146   9.4679   9.5066   9.5514   9.6207   9.7441   9.7739
     9.8142   9.8230   9.8816   9.8904   9.9025

          k =-0.5000-0.2165 0.0000 (256328 PWs)   bands (ev):

   -15.5185 -15.4934 -15.4890 -15.2570 -14.7911 -14.7524 -14.7312 -14.2644
   -13.3535 -13.3205 -13.2268 -12.8482 -11.6882 -11.6861 -11.5762 -11.5409
   -11.3208 -11.2680 -11.1808 -11.1367 -11.0875 -11.0266 -10.9335  -9.9446
    -9.3800  -9.3362  -9.0573  -8.8320  -8.4512  -8.4394  -8.2406  -7.9099
    -7.6572  -7.5069  -7.4278  -6.4612  -5.6668  -5.6210  -5.4706  -5.1488
    -4.9701  -4.9519  -4.9420  -4.9243  -4.9059  -4.9040  -4.8133  -4.7123
    -4.6968  -4.5198  -4.4532  -4.3011  -4.2614  -4.0948  -4.0481  -4.0262
    -3.9439  -3.9368  -3.9347  -3.9087  -3.8916  -3.8170  -3.6536  -3.6495
    -3.6056  -3.6031  -3.5862  -3.4846  -3.4354  -3.3993  -3.3489  -3.3405
    -3.3135  -3.2660  -3.2501  -3.2074  -3.0892  -2.8581  -2.8292  -2.7761
    -2.7109  -2.6978  -2.6201  -2.3280  -2.3242  -2.3131  -2.3116  -2.2668
    -2.2643  -2.2599  -2.2152  -2.1449  -2.1043  -2.1008  -1.9741  -1.9050
    -1.8932  -1.8394  -1.7962  -1.7948  -1.7814  -1.7434  -1.7364  -1.7153
    -1.6893  -1.6332  -1.5740  -1.5460  -1.5408  -1.5277  -1.5133  -1.4646
    -1.4386  -1.3697  -1.3638  -1.2604  -1.2409  -1.2402  -1.2329  -1.2272
    -1.2258  -1.2185  -1.2171  -1.2010  -1.1896  -1.1874  -1.1735  -1.1648
    -1.1617  -1.1613  -1.1600  -1.1309  -1.1305  -1.1194  -1.1166  -1.1156
    -1.1069  -1.1068  -1.0957  -1.0938  -1.0907  -1.0836  -1.0802  -1.0627
    -1.0461  -1.0433  -1.0314  -0.9931  -0.9812  -0.9568  -0.9509  -0.9424
    -0.9294  -0.9278  -0.9220  -0.9188  -0.9150  -0.9028  -0.9014  -0.8888
    -0.8624  -0.8607  -0.8575  -0.8566  -0.8536  -0.8506  -0.8487  -0.8307
    -0.8255  -0.8112  -0.8064  -0.8002  -0.7979  -0.7928  -0.7902  -0.7838
    -0.7808  -0.7762  -0.7751  -0.7706  -0.7698  -0.7665  -0.7630  -0.7325
[...]
     atom   14 type  1   force =    -0.00005015    0.00012496    0.00041452
     atom   15 type  1   force =     0.00000000    0.00093004    0.00000707
     atom   16 type  1   force =     0.00005015    0.00012496    0.00041452
     atom   17 type  1   force =     0.00000000   -0.00028776    0.00028506
     atom   18 type  1   force =     0.00003243    0.00022272    0.00006025
     atom   19 type  1   force =     0.00000000    0.00027385    0.00010920
     atom   20 type  1   force =    -0.00003243    0.00022272    0.00006025
     atom   21 type  1   force =     0.00000000    0.00030751   -0.00048247
     atom   22 type  1   force =    -0.00010297    0.00014335   -0.00014375
     atom   23 type  1   force =     0.00000000   -0.00007399   -0.00058504
     atom   24 type  1   force =     0.00010297    0.00014335   -0.00014375
     atom   25 type  1   force =     0.00000000    0.00017109    0.00016821
     atom   26 type  1   force =    -0.00007834    0.00024858   -0.00005536
     atom   27 type  1   force =     0.00000000    0.00011526    0.00029149
     atom   28 type  1   force =     0.00007834    0.00024858   -0.00005536
     atom   29 type  1   force =     0.00000000    0.00035829   -0.00031947
     atom   30 type  1   force =     0.00018423    0.00051221   -0.00016514
     atom   31 type  1   force =     0.00000000    0.00029734   -0.00090509
     atom   32 type  1   force =    -0.00018423    0.00051221   -0.00016514
     atom   33 type  1   force =     0.00000000    0.00057952    0.00041992
     atom   34 type  1   force =    -0.00002311    0.00017622   -0.00044920
     atom   35 type  1   force =     0.00000000    0.00038105    0.00051160
     atom   36 type  1   force =     0.00002311    0.00017622   -0.00044920
     atom   37 type  1   force =     0.00000000    0.00041279    0.00020127
     atom   38 type  1   force =    -0.00003730    0.00062532    0.00012620
     atom   39 type  1   force =     0.00000000    0.00043037    0.00015538
     atom   40 type  1   force =     0.00003730    0.00062532    0.00012620
     atom   41 type  1   force =     0.00000000   -0.00036621   -0.00020266
     atom   42 type  1   force =     0.00008429   -0.00066255   -0.00079321
     atom   43 type  1   force =     0.00000000   -0.00036877   -0.00022380
     atom   44 type  1   force =    -0.00008429   -0.00066255   -0.00079321
     atom   45 type  1   force =     0.00000000    0.00001363   -0.00030592
     atom   46 type  1   force =     0.00024586    0.00084799   -0.00022146
     atom   47 type  1   force =     0.00000000    0.00025475    0.00019456
     atom   48 type  1   force =    -0.00024586    0.00084799   -0.00022146
     atom   49 type  1   force =     0.00000000    0.00048791    0.00001129
     atom   50 type  1   force =    -0.00004375    0.00020146   -0.00012283
     atom   51 type  1   force =     0.00000000    0.00017710    0.00067994
     atom   52 type  1   force =     0.00004375    0.00020146   -0.00012283
     atom   53 type  1   force =     0.00000000    0.00026636   -0.00052644
     atom   54 type  1   force =     0.00002004    0.00028739    0.00023660
     atom   55 type  1   force =     0.00000000    0.00010969   -0.00032488
     atom   56 type  1   force =    -0.00002004    0.00028739    0.00023660
     atom   57 type  1   force =     0.00000000    0.00070226    0.00036552
     atom   58 type  1   force =    -0.00025888    0.00019848    0.00032800
     atom   59 type  1   force =     0.00000000    0.00003602    0.00007743
     atom   60 type  1   force =     0.00025888    0.00019848    0.00032800
     atom   61 type  1   force =     0.00000000   -0.00027310   -0.00015222
     atom   62 type  1   force =     0.00013150   -0.00009167    0.00019078
     atom   63 type  1   force =     0.00000000   -0.00038422    0.00005844
     atom   64 type  1   force =    -0.00013150   -0.00009167    0.00019078
     atom   65 type  1   force =     0.00000000    0.00046629    0.00052564
     atom   66 type  1   force =     0.00007841   -0.00054321   -0.00105605
     atom   67 type  1   force =     0.00000000   -0.00080650    0.00125028
     atom   68 type  1   force =    -0.00007841   -0.00054321   -0.00105605
     atom   69 type  1   force =     0.00000000    0.00018281    0.00029223
     atom   70 type  1   force =    -0.00030621    0.00008968    0.00077424
     atom   71 type  1   force =     0.00000000    0.00048048   -0.00013225
     atom   72 type  1   force =     0.00030621    0.00008968    0.00077424
     atom   73 type  1   force =     0.00000000    0.00017065   -0.00027103
     atom   74 type  1   force =     0.00001842   -0.00020048    0.00046138
     atom   75 type  1   force =     0.00000000   -0.00009221    0.00015360
     atom   76 type  1   force =    -0.00001842   -0.00020048    0.00046138
     atom   77 type  1   force =     0.00000000    0.00020602   -0.00003251
     atom   78 type  1   force =     0.00004584    0.00026895    0.00030678
     atom   79 type  1   force =     0.00000000   -0.00048173   -0.00009038
     atom   80 type  1   force =    -0.00004584    0.00026895    0.00030678
     atom   81 type  1   force =     0.00000000    0.00056241   -0.00032362
     atom   82 type  1   force =     0.00060056    0.00009136    0.00030420
     atom   83 type  1   force =     0.00000000   -0.00032893   -0.00020763
     atom   84 type  1   force =    -0.00060056    0.00009136    0.00030420
     atom   85 type  1   force =     0.00000000   -0.00150283   -0.00019814
     atom   86 type  1   force =    -0.00076465   -0.00083289   -0.00077537
     atom   87 type  1   force =     0.00000000    0.00050906   -0.00100738
     atom   88 type  1   force =     0.00076465   -0.00083289   -0.00077537
     atom   89 type  1   force =     0.00000000    0.00105546    0.00025832
     atom   90 type  1   force =     0.00125213   -0.00021615    0.00000462
     atom   91 type  1   force =     0.00000000    0.00301061   -0.00198135
     atom   92 type  1   force =    -0.00125213   -0.00021615    0.00000462
     atom   93 type  1   force =     0.00000000   -0.00010739    0.00018538
     atom   94 type  1   force =     0.00018434    0.00032209   -0.00012933
     atom   95 type  1   force =     0.00000000    0.00013160   -0.00047695
     atom   96 type  1   force =    -0.00018434    0.00032209   -0.00012933
     atom   97 type  1   force =     0.00000000    0.00072100    0.00016842
     atom   98 type  1   force =    -0.00016509    0.00035901   -0.00003414
     atom   99 type  1   force =     0.00000000   -0.00044162    0.00002461
     atom  100 type  1   force =     0.00016509    0.00035901   -0.00003414
     atom  101 type  2   force =     0.00000000    0.00143003   -0.00062998
     atom  102 type  2   force =     0.00000000    0.00177338    0.00148298
     atom  103 type  2   force =     0.00044425    0.00052038   -0.00091118
     atom  104 type  2   force =     0.00004705   -0.00125278   -0.00054736
     atom  105 type  2   force =    -0.00045882    0.00038385    0.00077318
     atom  106 type  2   force =     0.00031225    0.00022236    0.00001858
     atom  107 type  2   force =     0.00000000   -0.00008443    0.00109679
     atom  108 type  2   force =     0.00000000   -0.00040229    0.00019587
     atom  109 type  2   force =     0.00045882    0.00038385    0.00077318
     atom  110 type  2   force =    -0.00031225    0.00022236    0.00001858
     atom  111 type  2   force =    -0.00044425    0.00052038   -0.00091118
     atom  112 type  2   force =    -0.00004705   -0.00125278   -0.00054736
     atom  113 type  2   force =     0.00000000   -0.00190342   -0.00020396
     atom  114 type  2   force =     0.00000000   -0.00035602    0.00018040
     atom  115 type  2   force =    -0.00074038   -0.00142951   -0.00030433
     atom  116 type  2   force =    -0.00017153   -0.00020765    0.00172897
     atom  117 type  2   force =    -0.00035183   -0.00230710    0.00026051
     atom  118 type  2   force =    -0.00078574   -0.00164854    0.00238670
     atom  119 type  2   force =     0.00000000   -0.00169214   -0.00164363
     atom  120 type  2   force =     0.00035183   -0.00230710    0.00026051
     atom  121 type  2   force =     0.00078574   -0.00164854    0.00238670
     atom  122 type  2   force =     0.00074038   -0.00142951   -0.00030433
     atom  123 type  2   force =     0.00017153   -0.00020765    0.00172897
     atom  124 type  2   force =     0.00000000    0.00105010    0.00014788
     atom  125 type  2   force =     0.00000000   -0.00114885    0.00040041
     atom  126 type  2   force =     0.00014030    0.00055430   -0.00112802
     atom  127 type  2   force =    -0.00013664    0.00001604   -0.00093460
     atom  128 type  2   force =     0.00015912    0.00093710    0.00078784
     atom  129 type  2   force =     0.00055285   -0.00039919   -0.00200236
     atom  130 type  2   force =     0.00000000    0.00086572    0.00063359
     atom  131 type  2   force =     0.00000000    0.00080332   -0.00081153
     atom  132 type  2   force =    -0.00015912    0.00093710    0.00078784
     atom  133 type  2   force =    -0.00055285   -0.00039919   -0.00200236
     atom  134 type  2   force =    -0.00014030    0.00055430   -0.00112802
     atom  135 type  2   force =     0.00013664    0.00001604   -0.00093460
     atom  136 type  2   force =     0.00000000   -0.00221478    0.00112939
     atom  137 type  2   force =     0.00000000   -0.00105280    0.00057961
     atom  138 type  2   force =     0.00062332   -0.00124054    0.00116522
     atom  139 type  2   force =    -0.00086118    0.00097045    0.00029105
     atom  140 type  2   force =    -0.00048067   -0.00111213   -0.00047018
     atom  141 type  2   force =     0.00043614   -0.00028969   -0.00108839
     atom  142 type  2   force =     0.00000000   -0.00082365    0.00137122
     atom  143 type  2   force =     0.00000000    0.00009298    0.00023295
     atom  144 type  2   force =     0.00048067   -0.00111213   -0.00047018
     atom  145 type  2   force =    -0.00043614   -0.00028969   -0.00108839
     atom  146 type  2   force =    -0.00062332   -0.00124054    0.00116522
     atom  147 type  2   force =     0.00086118    0.00097045    0.00029105

     Total force =     0.013026     Total SCF correction =     0.000445

     number of scf cycles    =  18
     number of bfgs steps    =  17

     energy   old            =  -12687.1471698946 Ry
     energy   new            =  -12687.1474347815 Ry

     CASE: energy  _new < energy  _old

     new trust radius        =       0.0222486495 bohr
     new conv_thr            =       0.0000000100 Ry


ATOMIC_POSITIONS (angstrom)
Cu       0.000000000   0.074296311   7.419232030
Cu       1.843611224   1.759585268   7.418396530
Cu       3.689036991   0.079533119   7.421177310
Cu       5.534462759   1.759585268   7.418396530
Cu       0.000000000   3.444566218   7.411684718
Cu       1.844505807   5.141281306   7.406832397
Cu       3.689036991   3.442624821   7.410501234
Cu       5.533568176   5.141281306   7.406832397
Cu       0.000000000   6.847123234   7.406515567
Cu       1.843749597   8.552564105   7.399991789
Cu       3.689036991   6.846150159   7.405531640
Cu       5.534324386   8.552564105   7.399991789
Cu       0.000000000  10.265949533   7.394575643
Cu       1.844450088  11.987380385   7.395999366
Cu       3.689036991  10.265229043   7.397235634
Cu       5.533623895  11.987380385   7.395999366
Cu       0.000000000  13.711756586   7.401510481
Cu       1.847200329  15.419240184   7.413484970
Cu       3.689036991  13.703635093   7.405631538
Cu       5.530873654  15.419240184   7.413484970
Cu       0.000000000   1.766409212   9.270680558
Cu       1.845273791   0.081438647   9.265864618
Cu       3.689036991   1.769963417   9.275204531
Cu       5.532800192   0.081438647   9.265864618
Cu       0.000000000   5.144287522   9.244825333
Cu       1.844964248   3.452537997   9.259795237
Cu       3.689036991   5.145583421   9.240868933
Cu       5.533109735   3.452537997   9.259795237
Cu       0.000000000   8.562995761   9.224380596
Cu       1.843226612   6.848263172   9.232637093
Cu       3.689036991   8.561819498   9.225187941
Cu       5.534847371   6.848263172   9.232637093
Cu       0.000000000  11.984661365   9.212052603
Cu       1.845625727  10.272659715   9.221450319
Cu       3.689036991  11.982439445   9.222424831
Cu       5.532448256  10.272659715   9.221450319
Cu       0.000000000  15.415742561   9.241401468
Cu       1.845106481  13.700433123   9.223566095
Cu       3.689036991  15.415914698   9.238226885
Cu       5.532967502  13.700433123   9.223566095
Cu       0.000000000   0.077085337  11.109543875
Cu       1.846660118   1.783346844  11.137395451
Cu       3.689036991   0.070911870  11.107152901
Cu       5.531413865   1.783346844  11.137395451
Cu       0.000000000   3.461138986  11.111806549
Cu       1.845571697   5.157576582  11.092126888
Cu       3.689036991   3.474207810  11.120296999
Cu       5.532502286   5.157576582  11.092126888
Cu       0.000000000   6.866156285  11.061326795
Cu       1.845916237   8.569412101  11.056819628
Cu       3.689036991   6.863816145  11.058708029
Cu       5.532157746   8.569412101  11.056819628
Cu       0.000000000  10.282479245  11.051925662
Cu       1.847755346  11.992393145  11.047201540
Cu       3.689036991  10.264334839  11.069654254
Cu       5.530318637  11.992393145  11.047201540
Cu       0.000000000  13.700354570  11.050622912
Cu       1.843917965  15.409312709  11.076346894
Cu       3.689036991  13.714078352  11.055245912
Cu       5.534156018  15.409312709  11.076346894
Cu       0.000000000   1.778617512  12.962956808
Cu       1.839561296   0.050969440  12.947729356
Cu       3.689036991   1.760430781  12.959700627
Cu       5.538512687   0.050969440  12.947729356
Cu       0.000000000   5.173718126  12.903319703
Cu       1.868500297   3.506567175  12.995119447
Cu       3.689036991   5.224942418  12.956353102
Cu       5.509573686   3.506567175  12.995119447
Cu       0.000000000   8.587469226  12.890224300
Cu       1.856724959   6.886283608  12.900573070
Cu       3.689036991   8.519445783  12.948621018
Cu       5.521349024   6.886283608  12.900573070
Cu       0.000000000  12.012169307  12.871140036
Cu       1.850292859  10.290615306  12.871261015
Cu       3.689036991  12.021249752  12.861469125
Cu       5.527781124  10.290615306  12.871261015
Cu       0.000000000  15.388946737  12.921325771
Cu       1.843712968  13.708459504  12.894653724
Cu       3.689036991  15.404112329  12.937360920
Cu       5.534361015  13.708459504  12.894653724
Cu       0.000000000   0.002346593  14.775833335
Cu       1.783363205   1.743278062  14.760895824
Cu       3.689036991   0.069234254  14.783605869
Cu       5.594710778   1.743278062  14.760895824
Cu       0.000000000   3.557576383  14.727138856
Cu       1.971596853   5.269761308  14.771723529
Cu       3.689036991   3.379917313  14.807055857
Cu       5.406477130   5.269761308  14.771723529
Cu       0.000000000   6.851711454  14.629859626
Cu       1.834970858   8.624719604  14.695609509
Cu       3.689036991   6.992211128  15.541583097
Cu       5.543103125   8.624719604  14.695609509
Cu       0.000000000  10.339697774  14.664423243
Cu       1.836897769  12.011732561  14.693155390
Cu       3.689036991  10.348117165  14.624091786
Cu       5.541176214  12.011732561  14.693155390
Cu       0.000000000  13.693437774  14.742838114
Cu       1.861211800  15.373909192  14.768074631
Cu       3.689036991  13.678580045  14.740723951
Cu       5.516862183  15.373909192  14.768074631
C        0.000000000   0.580553324  17.799102539
C        0.000000000   2.003747016  17.766085422
C        1.231251486  -0.131842887  17.795424666
C        1.229537776   2.713737797  17.682794808
C        2.459362424   0.580018607  17.743805004
C        2.459078212   1.999440097  17.649013754
C        3.689036991  -0.134420643  17.742139068
C        3.689036991   2.705800256  17.507532129
C        4.918711558   0.580018607  17.743805004
C        4.918995770   1.999440097  17.649013754
C        6.146822497  -0.131842887  17.795424666
C        6.148536207   2.713737797  17.682794808
C        0.000000000   4.840906170  17.490460176
C        0.000000000   6.256519736  17.328424349
C        1.228163723   4.126090434  17.526108319
C        1.218738477   6.952349175  17.069734718
C        2.430428638   4.804716864  17.137954500
C        2.325200223   6.143614405  16.669663143
C        3.689036991   4.095889881  17.182694015
C        4.947645344   4.804716864  17.137954500
C        5.052873759   6.143614405  16.669663143
C        6.149910260   4.126090434  17.526108319
C        6.159335506   6.952349175  17.069734718
C        0.000000000   9.094196164  17.274397571
C        0.000000000  10.505263522  17.476270958
C        1.231061941   8.391592951  17.091805231
C        1.228945811  11.218832168  17.590710885
C        2.464918211   9.133207057  17.128206932
C        2.457489859  10.518327822  17.496962168
C        3.689036991   8.537398109  16.757696431
C        3.689036991  11.220617687  17.599035176
C        4.913155771   9.133207057  17.128206932
C        4.920584123  10.518327822  17.496962168
C        6.147012042   8.391592951  17.091805231
C        6.149128172  11.218832168  17.590710885
C        0.000000000  13.352310135  17.726594281
C        0.000000000  14.774223940  17.777304967
C        1.229426683  12.638042247  17.706595251
C        1.230849049  15.484497733  17.788665143
C        2.459774596  13.347310901  17.758147042
C        2.460883936  14.769968731  17.786532802
C        3.689036991  12.636638849  17.731483670
C        3.689036991  15.482171936  17.786465763
C        4.918299386  13.347310901  17.758147042
C        4.917190046  14.769968731  17.786532802
C        6.148647300  12.638042247  17.706595251
C        6.147224934  15.484497733  17.788665143



     Writing output data file gc.save
     Check: negative starting charge=   -0.001862
     NEW-OLD atomic charge density approx. for the potential
     Check: negative starting charge=   -0.001863

     negative rho (up, down):  1.934E-03 0.000E+00

     total cpu time spent up to now is    57339.7 secs

     Self-consistent Calculation

     iteration #  1     ecut=    80.00 Ry     beta=0.70
     Davidson diagonalization with overlap
     ethr =  1.00E-06,  avg # of iterations =  4.2

     negative rho (up, down):  1.978E-03 0.000E+00

     total cpu time spent up to now is    57854.8 secs

     total energy              =  -12687.14746130 Ry
     Harris-Foulkes estimate   =  -12687.14818322 Ry
     estimated scf accuracy    <       0.00715130 Ry

     iteration #  2     ecut=    80.00 Ry     beta=0.70
     Davidson diagonalization with overlap
     ethr =  5.55E-07,  avg # of iterations =  1.5

     negative rho (up, down):  2.005E-03 0.000E+00

     total cpu time spent up to now is    58032.4 secs

     total energy              =  -12687.14750409 Ry
     Harris-Foulkes estimate   =  -12687.14784988 Ry
     estimated scf accuracy    <       0.00111381 Ry

     iteration #  3     ecut=    80.00 Ry     beta=0.70
     Davidson diagonalization with overlap
     ethr =  8.65E-08,  avg # of iterations =  2.7

     negative rho (up, down):  2.036E-03 0.000E+00

     total cpu time spent up to now is    58256.8 secs

     total energy              =  -12687.14759275 Ry
     Harris-Foulkes estimate   =  -12687.14777082 Ry
     estimated scf accuracy    <       0.00185177 Ry

     iteration #  4     ecut=    80.00 Ry     beta=0.70
     Davidson diagonalization with overlap
     ethr =  8.65E-08,  avg # of iterations =  2.0

     negative rho (up, down):  2.029E-03 0.000E+00

     total cpu time spent up to now is    58442.9 secs

     total energy              =  -12687.14767264 Ry
     Harris-Foulkes estimate   =  -12687.14767432 Ry
     estimated scf accuracy    <       0.00001017 Ry

     iteration #  5     ecut=    80.00 Ry     beta=0.70
     Davidson diagonalization with overlap
