mpirun: INFO: switching to OpenMPI runtime version 1.10.2

     Program PWSCF v.5.4.0 starts on  7Sep2017 at 20:17: 5 

     This program is part of the open-source Quantum ESPRESSO suite
     for quantum simulation of materials; please cite
         "P. Giannozzi et al., J. Phys.:Condens. Matter 21 395502 (2009);
          URL http://www.quantum-espresso.org", 
     in publications or presentations arising from this work. More details at
     http://www.quantum-espresso.org/quote

     Parallel version (MPI & OpenMP), running on      56 processor cores
     Number of MPI processes:                56
     Threads/MPI process:                     1
     R & G space division:  proc/nbgrp/npool/nimage =      56
     Waiting for input...
     Reading input from standard input
Warning: card &IONS ignored
Warning: card / ignored

     Current dimensions of program PWSCF are:
     Max number of different atomic species (ntypx) = 10
     Max number of k-points (npk) =  40000
     Max angular momentum in pseudopotentials (lmaxx) =  3

     -------------------------------------
     Parameters for Dispersion Correction:
     -------------------------------------
       atom      VdW radius       C_6     

        Cu         2.952        374.666
        C_h        2.744         60.710
        C          2.744         60.710

     Subspace diagonalization in iterative solution of the eigenvalue problem:
     one sub-group per band group will be used
     scalapack distributed-memory algorithm (size of sub-group:  5*  5 procs)

 
     Parallelization info
     --------------------
     sticks:   dense  smooth     PW     G-vecs:    dense   smooth      PW
     Min         204     204     54                36612    36612    4962
     Max         205     205     55                36617    36617    4968
     Sum       11433   11433   3039              2050409  2050409  278033
 


     bravais-lattice index     =            0
     lattice parameter (alat)  =      13.9425  a.u.
     unit-cell volume          =   21209.0878 (a.u.)^3
     number of atoms/cell      =          148
     number of atomic types    =            3
     number of electrons       =      1292.00
     number of Kohn-Sham states=          775
     kinetic-energy cutoff     =      80.0000  Ry
     charge density cutoff     =     320.0000  Ry
     convergence threshold     =      1.0E-08
     mixing beta               =       0.7000
     number of iterations used =            8  local-TF  mixing
     Exchange-correlation      =  SLA  PW   PBX  PBC ( 1  4  3  4 0 0)

     celldm(1)=  13.942539  celldm(2)=   0.000000  celldm(3)=   0.000000
     celldm(4)=   0.000000  celldm(5)=   0.000000  celldm(6)=   0.000000

     crystal axes: (cart. coord. in units of alat)
               a(1) = (   1.000000   0.000000   0.000000 )  
               a(2) = (   0.000000   2.309401   0.000000 )  
               a(3) = (   0.000000   0.000000   3.388418 )  

     reciprocal axes: (cart. coord. in units 2 pi/alat)
               b(1) = (  1.000000  0.000000  0.000000 )  
               b(2) = (  0.000000  0.433013  0.000000 )  
               b(3) = (  0.000000  0.000000  0.295123 )  


     PseudoPot. # 1 for Cu read from file:
     /home/549/hxw549/Short/pseudopotentials/Cu.pbe-n-van_ak.UPF
     MD5 check sum: 601f7c30f7467666bec936e0661ce3e1
     Pseudo is Ultrasoft + core correction, Zval = 11.0
     Generated by new atomic code, or converted to UPF format
     Using radial grid of  867 points,  6 beta functions with: 
                l(1) =   0
                l(2) =   0
                l(3) =   1
                l(4) =   1
                l(5) =   2
                l(6) =   2
     Q(r) pseudized with  8 coefficients,  rinner =    1.400   1.400   1.400
                                                       1.400   1.400

     PseudoPot. # 2 for C  read from file:
     /home/549/hxw549/Short/pseudopotentials/C.star1s-pbe-mt_gipaw.UPF
     MD5 check sum: ef0cb3dee31bd9e4ba2a832a2c716264
     Pseudo is Norm-conserving, Zval =  5.0
     Generated by new atomic code, or converted to UPF format
     Using radial grid of 1073 points,  1 beta functions with: 
                l(1) =   0

     PseudoPot. # 3 for C  read from file:
     /home/549/hxw549/Short/pseudopotentials/C.pbe-mt_gipaw.UPF
     MD5 check sum: 5ac2f21f2c440b14befe521540822c15
     Pseudo is Norm-conserving, Zval =  4.0
     Generated by new atomic code, or converted to UPF format
     Using radial grid of 1073 points,  1 beta functions with: 
                l(1) =   0

     atomic species   valence    mass     pseudopotential
        Cu            11.00    63.54600     Cu( 1.00)
        C_h            5.00    12.01070     C ( 1.00)
        C              4.00    12.01070     C ( 1.00)

     No symmetry found



   Cartesian axes

     site n.     atom                  positions (alat units)
         1           Cu  tau(   1) = (   0.0000000   0.0000567   0.9971194  )
         2           Cu  tau(   2) = (   0.2499927   0.2309760   0.9972946  )
         3           Cu  tau(   3) = (   0.5000000   0.0000313   0.9971490  )
         4           Cu  tau(   4) = (   0.7500073   0.2309760   0.9972946  )
         5           Cu  tau(   5) = (   0.0000000   0.4618437   0.9973425  )
         6           Cu  tau(   6) = (   0.2499840   0.6927701   0.9971914  )
         7           Cu  tau(   7) = (   0.5000000   0.4618722   0.9973119  )
         8           Cu  tau(   8) = (   0.7500160   0.6927701   0.9971914  )
         9           Cu  tau(   9) = (   0.0000000   0.9237521   0.9970621  )
        10           Cu  tau(  10) = (   0.2500157   1.1547420   0.9971373  )
        11           Cu  tau(  11) = (   0.5000000   0.9237453   0.9970727  )
        12           Cu  tau(  12) = (   0.7499843   1.1547420   0.9971373  )
        13           Cu  tau(  13) = (   0.0000000   1.3856555   0.9972830  )
        14           Cu  tau(  14) = (   0.2500029   1.6165618   0.9973242  )
        15           Cu  tau(  15) = (   0.5000000   1.3857014   0.9973005  )
        16           Cu  tau(  16) = (   0.7499971   1.6165618   0.9973242  )
        17           Cu  tau(  17) = (   0.0000000   1.8474941   0.9971969  )
        18           Cu  tau(  18) = (   0.2500043   2.0784518   0.9970745  )
        19           Cu  tau(  19) = (   0.5000000   1.8474499   0.9971773  )
        20           Cu  tau(  20) = (   0.7499957   2.0784518   0.9970745  )
        21           Cu  tau(  21) = (   0.0000000   0.2308065   1.2457643  )
        22           Cu  tau(  22) = (   0.2499892  -0.0001010   1.2455764  )
        23           Cu  tau(  23) = (   0.5000000   0.2308938   1.2456746  )
        24           Cu  tau(  24) = (   0.7500108  -0.0001010   1.2455764  )
        25           Cu  tau(  25) = (   0.0000000   0.6929786   1.2456406  )
        26           Cu  tau(  26) = (   0.2499874   0.4619293   1.2457459  )
        27           Cu  tau(  27) = (   0.5000000   0.6929012   1.2456074  )
        28           Cu  tau(  28) = (   0.7500126   0.4619293   1.2457459  )
        29           Cu  tau(  29) = (   0.0000000   1.1546142   1.2455676  )
        30           Cu  tau(  30) = (   0.2499981   0.9237849   1.2455149  )
        31           Cu  tau(  31) = (   0.5000000   1.1545763   1.2455800  )
        32           Cu  tau(  32) = (   0.7500019   0.9237849   1.2455149  )
        33           Cu  tau(  33) = (   0.0000000   1.6166029   1.2456910  )
        34           Cu  tau(  34) = (   0.2500161   1.3855492   1.2457134  )
        35           Cu  tau(  35) = (   0.5000000   1.6166555   1.2458019  )
        36           Cu  tau(  36) = (   0.7499839   1.3855492   1.2457134  )
        37           Cu  tau(  37) = (   0.0000000   2.0784993   1.2455162  )
        38           Cu  tau(  38) = (   0.2500161   1.8476387   1.2456210  )
        39           Cu  tau(  39) = (   0.5000000   2.0784755   1.2455152  )
        40           Cu  tau(  40) = (   0.7499839   1.8476387   1.2456210  )
        41           Cu  tau(  41) = (   0.0000000  -0.0003182   1.4954305  )
        42           Cu  tau(  42) = (   0.2500224   0.2307186   1.4951678  )
        43           Cu  tau(  43) = (   0.5000000  -0.0002059   1.4952775  )
        44           Cu  tau(  44) = (   0.7499776   0.2307186   1.4951678  )
        45           Cu  tau(  45) = (   0.0000000   0.4620254   1.4950571  )
        46           Cu  tau(  46) = (   0.2500339   0.6931225   1.4952807  )
        47           Cu  tau(  47) = (   0.5000000   0.4619896   1.4952144  )
        48           Cu  tau(  48) = (   0.7499661   0.6931225   1.4952807  )
        49           Cu  tau(  49) = (   0.0000000   0.9238798   1.4954544  )
        50           Cu  tau(  50) = (   0.2499708   1.1544329   1.4953374  )
        51           Cu  tau(  51) = (   0.5000000   0.9237633   1.4954072  )
        52           Cu  tau(  52) = (   0.7500292   1.1544329   1.4953374  )
        53           Cu  tau(  53) = (   0.0000000   1.3854453   1.4952066  )
        54           Cu  tau(  54) = (   0.2499861   1.6167017   1.4951298  )
        55           Cu  tau(  55) = (   0.5000000   1.3853760   1.4951346  )
        56           Cu  tau(  56) = (   0.7500139   1.6167017   1.4951298  )
        57           Cu  tau(  57) = (   0.0000000   1.8477718   1.4952308  )
        58           Cu  tau(  58) = (   0.2499930   2.0785254   1.4954090  )
        59           Cu  tau(  59) = (   0.5000000   1.8478762   1.4953503  )
        60           Cu  tau(  60) = (   0.7500070   2.0785254   1.4954090  )
        61           Cu  tau(  61) = (   0.0000000   0.2310733   1.7440777  )
        62           Cu  tau(  62) = (   0.2501089  -0.0001294   1.7450479  )
        63           Cu  tau(  63) = (   0.5000000   0.2306045   1.7445985  )
        64           Cu  tau(  64) = (   0.7498911  -0.0001294   1.7450479  )
        65           Cu  tau(  65) = (   0.0000000   0.6927994   1.7446059  )
        66           Cu  tau(  66) = (   0.2502918   0.4619532   1.7441197  )
        67           Cu  tau(  67) = (   0.5000000   0.6931011   1.7451318  )
        68           Cu  tau(  68) = (   0.7497082   0.4619532   1.7441197  )
        69           Cu  tau(  69) = (   0.0000000   1.1545789   1.7453503  )
        70           Cu  tau(  70) = (   0.2500220   0.9237908   1.7453835  )
        71           Cu  tau(  71) = (   0.5000000   1.1545999   1.7449118  )
        72           Cu  tau(  72) = (   0.7499780   0.9237908   1.7453835  )
        73           Cu  tau(  73) = (   0.0000000   1.6167791   1.7444075  )
        74           Cu  tau(  74) = (   0.2497438   1.3855115   1.7442733  )
        75           Cu  tau(  75) = (   0.5000000   1.6164906   1.7439233  )
        76           Cu  tau(  76) = (   0.7502562   1.3855115   1.7442733  )
        77           Cu  tau(  77) = (   0.0000000   2.0782721   1.7455014  )
        78           Cu  tau(  78) = (   0.2498426   1.8476765   1.7447807  )
        79           Cu  tau(  79) = (   0.5000000   2.0787016   1.7454002  )
        80           Cu  tau(  80) = (   0.7501574   1.8476765   1.7447807  )
        81           Cu  tau(  81) = (   0.0000000   0.0010732   1.9906710  )
        82           Cu  tau(  82) = (   0.2503054   0.2314650   1.9904877  )
        83           Cu  tau(  83) = (   0.5000000   0.0001335   1.9924670  )
        84           Cu  tau(  84) = (   0.7496946   0.2314650   1.9904877  )
        85           Cu  tau(  85) = (   0.0000000   0.4618379   1.9901778  )
        86           Cu  tau(  86) = (   0.2508441   0.6921348   1.9910282  )
        87           Cu  tau(  87) = (   0.5000000   0.4613052   1.9913358  )
        88           Cu  tau(  88) = (   0.7491559   0.6921348   1.9910282  )
        89           Cu  tau(  89) = (   0.0000000   0.9224699   1.9915918  )
        90           Cu  tau(  90) = (   0.2491275   1.1552920   1.9912642  )
        91           Cu  tau(  91) = (   0.5000000   0.9247757   1.9920574  )
        92           Cu  tau(  92) = (   0.7508725   1.1552920   1.9912642  )
        93           Cu  tau(  93) = (   0.0000000   1.3865904   1.9916296  )
        94           Cu  tau(  94) = (   0.2499532   1.6162906   1.9903050  )
        95           Cu  tau(  95) = (   0.5000000   1.3858063   1.9901800  )
        96           Cu  tau(  96) = (   0.7500468   1.6162906   1.9903050  )
        97           Cu  tau(  97) = (   0.0000000   1.8468318   1.9923212  )
        98           Cu  tau(  98) = (   0.2497561   2.0783183   1.9915134  )
        99           Cu  tau(  99) = (   0.5000000   1.8467805   1.9903847  )
       100           Cu  tau( 100) = (   0.7502439   2.0783183   1.9915134  )
       101           C   tau( 101) = (   0.0333258   0.0962962   2.3888871  )
       102           C   tau( 102) = (   0.0333258   0.2886925   2.3900713  )
       103           C   tau( 103) = (   0.1999587   0.0000435   2.3878440  )
       104           C   tau( 104) = (   0.1998164   0.3848966   2.3886743  )
       105           C   tau( 105) = (   0.3664493   0.0962174   2.3860158  )
       106           C   tau( 106) = (   0.3664534   0.2886629   2.3856823  )
       107           C   tau( 107) = (   0.5333262  -0.0000818   2.3845687  )
       108           C   tau( 108) = (   0.5333262   0.3849277   2.3842391  )
       109           C   tau( 109) = (   0.7002017   0.0962174   2.3860158  )
       110           C   tau( 110) = (   0.7001976   0.2886629   2.3856823  )
       111           C   tau( 111) = (   0.8666937   0.0000435   2.3878440  )
       112           C   tau( 112) = (   0.8668360   0.3848966   2.3886743  )
       113           C   tau( 113) = (   0.0333258   0.6735163   2.3892509  )
       114           C   tau( 114) = (   0.0333258   0.8659398   2.3870960  )
       115           C   tau( 115) = (   0.1998015   0.5773226   2.3882842  )
       116           C   tau( 116) = (   0.2000685   0.9622141   2.3870264  )
       117           C   tau( 117) = (   0.3665347   0.6735984   2.3858047  )
       118           C   tau( 118) = (   0.3665293   0.8660537   2.3866148  )
       119           C   tau( 119) = (   0.5333262   0.5773685   2.3848465  )
       120           C_h tau( 120) = (   0.5333262   0.9623380   2.3860825  )
       121           C   tau( 121) = (   0.7001163   0.6735984   2.3858047  )
       122           C   tau( 122) = (   0.7001231   0.8660537   2.3866148  )
       123           C   tau( 123) = (   0.8668495   0.5773226   2.3882842  )
       124           C   tau( 124) = (   0.8665825   0.9622141   2.3870264  )
       125           C   tau( 125) = (   0.0333258   1.2508867   2.3852683  )
       126           C   tau( 126) = (   0.0333258   1.4433300   2.3840871  )
       127           C   tau( 127) = (   0.2000617   1.1546708   2.3859697  )
       128           C   tau( 128) = (   0.2002203   1.5396104   2.3857176  )
       129           C   tau( 129) = (   0.3668356   1.2509657   2.3878953  )
       130           C   tau( 130) = (   0.3668125   1.4433958   2.3886602  )
       131           C   tau( 131) = (   0.5333262   1.1547731   2.3885512  )
       132           C   tau( 132) = (   0.5333262   1.5396099   2.3901428  )
       133           C   tau( 133) = (   0.6998168   1.2509657   2.3878953  )
       134           C   tau( 134) = (   0.6998398   1.4433958   2.3886602  )
       135           C   tau( 135) = (   0.8665893   1.1546708   2.3859697  )
       136           C   tau( 136) = (   0.8664321   1.5396104   2.3857176  )
       137           C   tau( 137) = (   0.0333258   1.8283510   2.3842019  )
       138           C   tau( 138) = (   0.0333258   2.0207949   2.3863399  )
       139           C   tau( 139) = (   0.2002216   1.7320513   2.3858703  )
       140           C   tau( 140) = (   0.1999438   2.1169980   2.3865340  )
       141           C   tau( 141) = (   0.3667407   1.8282368   2.3882160  )
       142           C   tau( 142) = (   0.3667610   2.0206763   2.3869561  )
       143           C   tau( 143) = (   0.5333262   1.7319961   2.3895398  )
       144           C   tau( 144) = (   0.5333262   2.1168754   2.3870198  )
       145           C   tau( 145) = (   0.6999103   1.8282368   2.3882160  )
       146           C   tau( 146) = (   0.6998900   2.0206763   2.3869561  )
       147           C   tau( 147) = (   0.8664294   1.7320513   2.3858703  )
       148           C   tau( 148) = (   0.8667072   2.1169980   2.3865340  )

     number of k points=     6  gaussian smearing, width (Ry)=  0.1000
                       cart. coord. in units 2pi/alat
        k(    1) = (   0.0000000   0.0000000   0.0000000), wk =   0.2500000
        k(    2) = (   0.0000000  -0.2165064   0.0000000), wk =   0.2500000
        k(    3) = (   0.2500000   0.0000000   0.0000000), wk =   0.5000000
        k(    4) = (   0.2500000  -0.2165064   0.0000000), wk =   0.5000000
        k(    5) = (  -0.5000000   0.0000000   0.0000000), wk =   0.2500000
        k(    6) = (  -0.5000000  -0.2165064   0.0000000), wk =   0.2500000

     Dense  grid:  2050409 G-vectors     FFT dimensions: (  80, 192, 270)

     Largest allocated arrays     est. size (Mb)     dimensions
        Kohn-Sham Wavefunctions        54.44 Mb     (    4604,  775)
        NL pseudopotentials           129.82 Mb     (    4604, 1848)
        Each V/rho on FFT grid          1.17 Mb     (   76800)
        Each G-vector array             0.28 Mb     (   36616)
        G-vector shells                 0.14 Mb     (   17932)
     Largest temporary arrays     est. size (Mb)     dimensions
        Auxiliary wavefunctions       217.78 Mb     (    4604, 3100)
        Each subspace H/S matrix        5.87 Mb     (     620,  620)
        Each <psi_i|beta_j> matrix     21.85 Mb     (    1848,  775)
        Arrays for rho mixing           9.38 Mb     (   76800,    8)

     Initial potential from superposition of free atoms
     Check: negative starting charge=   -0.001843

     starting charge 1266.81751, renormalised to 1292.00000

     negative rho (up, down):  1.879E-03 0.000E+00
     Starting wfc are 1284 randomized atomic wfcs

     total cpu time spent up to now is      145.2 secs

     Self-consistent Calculation

     iteration #  1     ecut=    80.00 Ry     beta=0.70
     Davidson diagonalization with overlap
     c_bands:  4 eigenvalues not converged
     c_bands:  1 eigenvalues not converged
     ethr =  1.00E-04,  avg # of iterations = 36.5

     negative rho (up, down):  2.723E+01 0.000E+00

     total cpu time spent up to now is     2125.5 secs

     total energy              =   -9474.61757781 Ry
     Harris-Foulkes estimate   =  -17310.57572051 Ry
     estimated scf accuracy    <  180104.54063386 Ry

     iteration #  2     ecut=    80.00 Ry     beta=0.70
     Davidson diagonalization with overlap
     ethr =  1.00E-02,  avg # of iterations = 12.2

     negative rho (up, down):  3.147E+01 0.000E+00

     total cpu time spent up to now is     3037.7 secs

     total energy              =  -12202.10116873 Ry
     Harris-Foulkes estimate   =  -13664.92184370 Ry
     estimated scf accuracy    <   24006.33720919 Ry

     iteration #  3     ecut=    80.00 Ry     beta=0.70
     Davidson diagonalization with overlap
     ethr =  1.00E-02,  avg # of iterations =  7.3

     negative rho (up, down):  3.200E+01 0.000E+00

     total cpu time spent up to now is     3572.4 secs

     total energy              =  -12463.96754091 Ry
     Harris-Foulkes estimate   =  -13406.28064886 Ry
     estimated scf accuracy    <    5787.53635254 Ry

     iteration #  4     ecut=    80.00 Ry     beta=0.70
     Davidson diagonalization with overlap
     ethr =  1.00E-02,  avg # of iterations =  5.8

     negative rho (up, down):  2.376E+01 0.000E+00

     total cpu time spent up to now is     4063.6 secs

     total energy              =  -12847.33884184 Ry
     Harris-Foulkes estimate   =  -13083.44885233 Ry
     estimated scf accuracy    <    1751.54525000 Ry

     iteration #  5     ecut=    80.00 Ry     beta=0.70
     Davidson diagonalization with overlap
     ethr =  1.00E-02,  avg # of iterations =  3.5

     negative rho (up, down):  1.865E+01 0.000E+00

     total cpu time spent up to now is     4334.2 secs

     total energy              =  -12845.24948717 Ry
     Harris-Foulkes estimate   =  -12960.43391189 Ry
     estimated scf accuracy    <    1300.38972457 Ry

     iteration #  6     ecut=    80.00 Ry     beta=0.70
     Davidson diagonalization with overlap
     ethr =  1.00E-02,  avg # of iterations =  3.0

     negative rho (up, down):  1.294E+01 0.000E+00

     total cpu time spent up to now is     4543.2 secs

     total energy              =  -12834.42599702 Ry
     Harris-Foulkes estimate   =  -12908.57109229 Ry
     estimated scf accuracy    <     570.88326299 Ry

     iteration #  7     ecut=    80.00 Ry     beta=0.70
     Davidson diagonalization with overlap
     ethr =  1.00E-02,  avg # of iterations =  2.0

     negative rho (up, down):  9.175E+00 0.000E+00

     total cpu time spent up to now is     4725.2 secs

     total energy              =  -12807.49239004 Ry
     Harris-Foulkes estimate   =  -12852.05751330 Ry
     estimated scf accuracy    <     442.18529955 Ry

     iteration #  8     ecut=    80.00 Ry     beta=0.70
     Davidson diagonalization with overlap
     ethr =  1.00E-02,  avg # of iterations =  2.0

     negative rho (up, down):  7.203E+00 0.000E+00

     total cpu time spent up to now is     4904.4 secs

     total energy              =  -12787.32674882 Ry
     Harris-Foulkes estimate   =  -12823.24042287 Ry
     estimated scf accuracy    <     513.06893976 Ry

     iteration #  9     ecut=    80.00 Ry     beta=0.70
     Davidson diagonalization with overlap
     ethr =  1.00E-02,  avg # of iterations =  2.0

     negative rho (up, down):  5.447E+00 0.000E+00

     total cpu time spent up to now is     5081.0 secs

     total energy              =  -12779.97383754 Ry
     Harris-Foulkes estimate   =  -12799.60663079 Ry
     estimated scf accuracy    <     187.03235599 Ry

     iteration # 10     ecut=    80.00 Ry     beta=0.70
     Davidson diagonalization with overlap
     ethr =  1.00E-02,  avg # of iterations =  1.3

     negative rho (up, down):  1.198E+00 0.000E+00

     total cpu time spent up to now is     5250.4 secs

     total energy              =  -12736.33812288 Ry
     Harris-Foulkes estimate   =  -12781.61122016 Ry
     estimated scf accuracy    <     148.97574021 Ry

     iteration # 11     ecut=    80.00 Ry     beta=0.70
     Davidson diagonalization with overlap
     ethr =  1.00E-02,  avg # of iterations =  3.0

     negative rho (up, down):  9.137E-01 0.000E+00

     total cpu time spent up to now is     5441.2 secs

     total energy              =  -12728.41313934 Ry
     Harris-Foulkes estimate   =  -12747.67540972 Ry
     estimated scf accuracy    <     456.82164097 Ry

     iteration # 12     ecut=    80.00 Ry     beta=0.70
     Davidson diagonalization with overlap
     ethr =  1.00E-02,  avg # of iterations =  1.2

     negative rho (up, down):  5.573E-01 0.000E+00

     total cpu time spent up to now is     5609.3 secs

     total energy              =  -12725.63099195 Ry
     Harris-Foulkes estimate   =  -12741.84310317 Ry
     estimated scf accuracy    <     362.65431090 Ry

     iteration # 13     ecut=    80.00 Ry     beta=0.70
     Davidson diagonalization with overlap
     ethr =  1.00E-02,  avg # of iterations =  1.5

     negative rho (up, down):  2.993E+00 0.000E+00

     total cpu time spent up to now is     5780.9 secs

     total energy              =  -12715.60339012 Ry
     Harris-Foulkes estimate   =  -12735.20989011 Ry
     estimated scf accuracy    <     134.45508581 Ry

     iteration # 14     ecut=    80.00 Ry     beta=0.70
     Davidson diagonalization with overlap
     ethr =  1.00E-02,  avg # of iterations =  2.2

     negative rho (up, down):  5.151E+00 0.000E+00

     total cpu time spent up to now is     5961.7 secs

     total energy              =  -12718.55240249 Ry
     Harris-Foulkes estimate   =  -12725.07970482 Ry
     estimated scf accuracy    <      55.57146225 Ry

     iteration # 15     ecut=    80.00 Ry     beta=0.70
     Davidson diagonalization with overlap
     ethr =  4.30E-03,  avg # of iterations =  2.0

     negative rho (up, down):  5.389E+00 0.000E+00

     total cpu time spent up to now is     6139.4 secs

     total energy              =  -12716.57926694 Ry
     Harris-Foulkes estimate   =  -12720.80185672 Ry
     estimated scf accuracy    <      35.93139666 Ry

     iteration # 16     ecut=    80.00 Ry     beta=0.70
     Davidson diagonalization with overlap
     ethr =  2.78E-03,  avg # of iterations =  1.3

     negative rho (up, down):  4.886E+00 0.000E+00

     total cpu time spent up to now is     6308.3 secs

     total energy              =  -12714.61261317 Ry
     Harris-Foulkes estimate   =  -12717.74087420 Ry
     estimated scf accuracy    <      22.99196236 Ry

     iteration # 17     ecut=    80.00 Ry     beta=0.70
     Davidson diagonalization with overlap
     ethr =  1.78E-03,  avg # of iterations =  4.0

     negative rho (up, down):  4.952E+00 0.000E+00

     total cpu time spent up to now is     6509.0 secs

     total energy              =  -12714.27956392 Ry
     Harris-Foulkes estimate   =  -12715.58378203 Ry
     estimated scf accuracy    <      14.07407942 Ry

     iteration # 18     ecut=    80.00 Ry     beta=0.70
     Davidson diagonalization with overlap
     ethr =  1.09E-03,  avg # of iterations =  6.0

     negative rho (up, down):  4.469E+00 0.000E+00

     total cpu time spent up to now is     6732.6 secs

     total energy              =  -12713.16180515 Ry
     Harris-Foulkes estimate   =  -12714.65270056 Ry
     estimated scf accuracy    <      10.15888871 Ry

     iteration # 19     ecut=    80.00 Ry     beta=0.70
     Davidson diagonalization with overlap
     ethr =  7.86E-04,  avg # of iterations =  6.5

     negative rho (up, down):  3.891E+00 0.000E+00

     total cpu time spent up to now is     6962.5 secs

     total energy              =  -12712.45239045 Ry
     Harris-Foulkes estimate   =  -12713.39713791 Ry
     estimated scf accuracy    <       7.78127753 Ry

     iteration # 20     ecut=    80.00 Ry     beta=0.70
     Davidson diagonalization with overlap
     ethr =  6.02E-04,  avg # of iterations =  3.7

     negative rho (up, down):  2.750E+00 0.000E+00

     total cpu time spent up to now is     7158.5 secs

     total energy              =  -12711.49918799 Ry
     Harris-Foulkes estimate   =  -12712.59520194 Ry
     estimated scf accuracy    <       9.26647010 Ry

     iteration # 21     ecut=    80.00 Ry     beta=0.70
     Davidson diagonalization with overlap
     ethr =  6.02E-04,  avg # of iterations =  1.0

     negative rho (up, down):  2.100E+00 0.000E+00

     total cpu time spent up to now is     7325.2 secs

     total energy              =  -12711.00161333 Ry
     Harris-Foulkes estimate   =  -12711.75910530 Ry
     estimated scf accuracy    <       7.92935314 Ry

     iteration # 22     ecut=    80.00 Ry     beta=0.70
     Davidson diagonalization with overlap
     ethr =  6.02E-04,  avg # of iterations =  1.5

     negative rho (up, down):  5.833E-01 0.000E+00

     total cpu time spent up to now is     7496.4 secs

     total energy              =  -12709.03796443 Ry
     Harris-Foulkes estimate   =  -12711.37260962 Ry
     estimated scf accuracy    <       6.01279632 Ry

     iteration # 23     ecut=    80.00 Ry     beta=0.70
     Davidson diagonalization with overlap
     ethr =  4.65E-04,  avg # of iterations =  4.2

     negative rho (up, down):  4.648E-01 0.000E+00

     total cpu time spent up to now is     7699.8 secs

     total energy              =  -12707.92624627 Ry
     Harris-Foulkes estimate   =  -12709.13913642 Ry
     estimated scf accuracy    <       3.50225741 Ry

     iteration # 24     ecut=    80.00 Ry     beta=0.70
     Davidson diagonalization with overlap
     ethr =  2.71E-04,  avg # of iterations =  9.3

     negative rho (up, down):  3.983E-01 0.000E+00

     total cpu time spent up to now is     7971.8 secs

     total energy              =  -12707.59294719 Ry
     Harris-Foulkes estimate   =  -12708.25851448 Ry
     estimated scf accuracy    <      11.30699259 Ry

     iteration # 25     ecut=    80.00 Ry     beta=0.70
     Davidson diagonalization with overlap
     ethr =  2.71E-04,  avg # of iterations =  5.0

     negative rho (up, down):  4.049E-01 0.000E+00

     total cpu time spent up to now is     8182.9 secs

     total energy              =  -12707.59690199 Ry
     Harris-Foulkes estimate   =  -12707.94355184 Ry
     estimated scf accuracy    <       1.90801516 Ry

     iteration # 26     ecut=    80.00 Ry     beta=0.70
     Davidson diagonalization with overlap
     ethr =  1.48E-04,  avg # of iterations =  5.2

     negative rho (up, down):  5.316E-01 0.000E+00

     total cpu time spent up to now is     8394.6 secs

     total energy              =  -12707.45114647 Ry
     Harris-Foulkes estimate   =  -12707.67020839 Ry
     estimated scf accuracy    <       1.75766277 Ry

     iteration # 27     ecut=    80.00 Ry     beta=0.70
     Davidson diagonalization with overlap
     ethr =  1.36E-04,  avg # of iterations =  3.7

     negative rho (up, down):  3.662E-01 0.000E+00

     total cpu time spent up to now is     8590.2 secs

     total energy              =  -12707.30041051 Ry
     Harris-Foulkes estimate   =  -12707.48389338 Ry
     estimated scf accuracy    <       1.30078213 Ry

     iteration # 28     ecut=    80.00 Ry     beta=0.70
     Davidson diagonalization with overlap
     ethr =  1.01E-04,  avg # of iterations =  7.2

     negative rho (up, down):  1.507E-01 0.000E+00

     total cpu time spent up to now is     8829.7 secs

     total energy              =  -12707.19444739 Ry
     Harris-Foulkes estimate   =  -12707.33428437 Ry
     estimated scf accuracy    <       0.95622203 Ry

     iteration # 29     ecut=    80.00 Ry     beta=0.70
     Davidson diagonalization with overlap
     ethr =  7.40E-05,  avg # of iterations =  6.2

     negative rho (up, down):  7.871E-02 0.000E+00

     total cpu time spent up to now is     9061.0 secs

     total energy              =  -12707.14416281 Ry
     Harris-Foulkes estimate   =  -12707.23537678 Ry
     estimated scf accuracy    <       0.48768666 Ry

     iteration # 30     ecut=    80.00 Ry     beta=0.70
     Davidson diagonalization with overlap
     c_bands:  1 eigenvalues not converged
     ethr =  3.77E-05,  avg # of iterations = 12.2

     negative rho (up, down):  1.991E-01 0.000E+00

     total cpu time spent up to now is     9370.3 secs

     total energy              =  -12707.14259830 Ry
     Harris-Foulkes estimate   =  -12707.17979718 Ry
     estimated scf accuracy    <       0.27688819 Ry

     iteration # 31     ecut=    80.00 Ry     beta=0.70
     Davidson diagonalization with overlap
     ethr =  2.14E-05,  avg # of iterations =  8.8

     negative rho (up, down):  2.200E-01 0.000E+00

     total cpu time spent up to now is     9635.4 secs

     total energy              =  -12707.13470184 Ry
     Harris-Foulkes estimate   =  -12707.15876128 Ry
     estimated scf accuracy    <       0.12288791 Ry

     iteration # 32     ecut=    80.00 Ry     beta=0.70
     Davidson diagonalization with overlap
     ethr =  9.51E-06,  avg # of iterations =  7.7

     negative rho (up, down):  1.311E-01 0.000E+00

     total cpu time spent up to now is     9890.4 secs

     total energy              =  -12707.13973422 Ry
     Harris-Foulkes estimate   =  -12707.14342423 Ry
     estimated scf accuracy    <       0.03407170 Ry

     iteration # 33     ecut=    80.00 Ry     beta=0.70
     Davidson diagonalization with overlap
     ethr =  2.64E-06,  avg # of iterations =  9.5

     negative rho (up, down):  9.523E-02 0.000E+00

     total cpu time spent up to now is    10180.5 secs

     total energy              =  -12707.14212568 Ry
     Harris-Foulkes estimate   =  -12707.14448442 Ry
     estimated scf accuracy    <       0.01719231 Ry

     iteration # 34     ecut=    80.00 Ry     beta=0.70
     Davidson diagonalization with overlap
     c_bands:  1 eigenvalues not converged
     c_bands:  1 eigenvalues not converged
     c_bands:  1 eigenvalues not converged
     ethr =  1.33E-06,  avg # of iterations = 14.3

     negative rho (up, down):  5.613E-02 0.000E+00

     total cpu time spent up to now is    10521.2 secs

     total energy              =  -12707.14337193 Ry
     Harris-Foulkes estimate   =  -12707.14348843 Ry
     estimated scf accuracy    <       0.00192465 Ry

     iteration # 35     ecut=    80.00 Ry     beta=0.70
     Davidson diagonalization with overlap
     c_bands:  1 eigenvalues not converged
     ethr =  1.49E-07,  avg # of iterations = 12.0

     negative rho (up, down):  3.760E-02 0.000E+00

     total cpu time spent up to now is    10829.0 secs

     total energy              =  -12707.14351806 Ry
     Harris-Foulkes estimate   =  -12707.14351900 Ry
     estimated scf accuracy    <       0.00064582 Ry

     iteration # 36     ecut=    80.00 Ry     beta=0.70
     Davidson diagonalization with overlap
     ethr =  5.00E-08,  avg # of iterations =  7.8

     negative rho (up, down):  2.037E-02 0.000E+00

     total cpu time spent up to now is    11091.1 secs

     total energy              =  -12707.14335205 Ry
     Harris-Foulkes estimate   =  -12707.14358848 Ry
     estimated scf accuracy    <       0.00032075 Ry

     iteration # 37     ecut=    80.00 Ry     beta=0.70
     Davidson diagonalization with overlap
     c_bands:  2 eigenvalues not converged
     ethr =  2.48E-08,  avg # of iterations =  9.2

     negative rho (up, down):  9.034E-03 0.000E+00

     total cpu time spent up to now is    11375.2 secs

     total energy              =  -12707.14315720 Ry
     Harris-Foulkes estimate   =  -12707.14337478 Ry
     estimated scf accuracy    <       0.00009325 Ry

     iteration # 38     ecut=    80.00 Ry     beta=0.70
     Davidson diagonalization with overlap
     c_bands:  1 eigenvalues not converged
     c_bands:  1 eigenvalues not converged
     ethr =  7.22E-09,  avg # of iterations = 11.7

     negative rho (up, down):  4.561E-03 0.000E+00

     total cpu time spent up to now is    11682.4 secs

     total energy              =  -12707.14307805 Ry
     Harris-Foulkes estimate   =  -12707.14316566 Ry
     estimated scf accuracy    <       0.00005051 Ry

     iteration # 39     ecut=    80.00 Ry     beta=0.70
     Davidson diagonalization with overlap
     c_bands:  1 eigenvalues not converged
     ethr =  3.91E-09,  avg # of iterations =  9.2

     negative rho (up, down):  3.940E-03 0.000E+00

     total cpu time spent up to now is    11955.9 secs

     total energy              =  -12707.14307492 Ry
     Harris-Foulkes estimate   =  -12707.14308174 Ry
     estimated scf accuracy    <       0.00002100 Ry

     iteration # 40     ecut=    80.00 Ry     beta=0.70
     Davidson diagonalization with overlap
     c_bands:  1 eigenvalues not converged
     ethr =  1.63E-09,  avg # of iterations =  6.3

     negative rho (up, down):  2.860E-03 0.000E+00

     total cpu time spent up to now is    12188.9 secs

     total energy              =  -12707.14306547 Ry
     Harris-Foulkes estimate   =  -12707.14307606 Ry
     estimated scf accuracy    <       0.00000213 Ry

     iteration # 41     ecut=    80.00 Ry     beta=0.70
     Davidson diagonalization with overlap
     ethr =  1.65E-10,  avg # of iterations =  3.3

     negative rho (up, down):  2.329E-03 0.000E+00

     total cpu time spent up to now is    12428.4 secs

     total energy              =  -12707.14306349 Ry
     Harris-Foulkes estimate   =  -12707.14306585 Ry
     estimated scf accuracy    <       0.00000131 Ry

     iteration # 42     ecut=    80.00 Ry     beta=0.70
     Davidson diagonalization with overlap
     ethr =  1.01E-10,  avg # of iterations =  2.8

     negative rho (up, down):  2.228E-03 0.000E+00

     total cpu time spent up to now is    12623.9 secs

     total energy              =  -12707.14306339 Ry
     Harris-Foulkes estimate   =  -12707.14306360 Ry
     estimated scf accuracy    <       0.00000015 Ry

     iteration # 43     ecut=    80.00 Ry     beta=0.70
     Davidson diagonalization with overlap
     ethr =  1.18E-11,  avg # of iterations =  3.0

     negative rho (up, down):  2.151E-03 0.000E+00

     total cpu time spent up to now is    12857.1 secs

     total energy              =  -12707.14306344 Ry
     Harris-Foulkes estimate   =  -12707.14306342 Ry
     estimated scf accuracy    <       0.00000006 Ry

     iteration # 44     ecut=    80.00 Ry     beta=0.70
     Davidson diagonalization with overlap
     ethr =  4.75E-12,  avg # of iterations =  3.0

     negative rho (up, down):  2.125E-03 0.000E+00

     total cpu time spent up to now is    13059.9 secs

     total energy              =  -12707.14306345 Ry
     Harris-Foulkes estimate   =  -12707.14306345 Ry
     estimated scf accuracy    <       0.00000001 Ry

     iteration # 45     ecut=    80.00 Ry     beta=0.70
     Davidson diagonalization with overlap
     ethr =  1.05E-12,  avg # of iterations =  3.0

     negative rho (up, down):  2.115E-03 0.000E+00

     total cpu time spent up to now is    13251.4 secs

     End of self-consistent calculation

          k = 0.0000 0.0000 0.0000 (256287 PWs)   bands (ev):

   -17.2872 -16.2342 -16.0876 -15.4316 -15.0438 -14.7912 -14.6916 -14.2523
   -14.1991 -14.1387 -14.1247 -13.4679 -13.3236 -13.1546 -13.1223 -13.0877
   -13.0791 -11.6693 -11.5332 -11.4878 -11.3888 -11.2058 -10.3535  -9.7703
    -9.7609  -9.6270  -9.5235  -8.9877  -8.7998  -8.6759  -8.6003  -8.0482
    -7.9028  -7.7623  -7.6418  -7.5796  -7.5750  -7.5355  -7.5223  -6.3593
    -6.3507  -6.1269  -6.0214  -6.0187  -5.9504  -5.8895  -5.8594  -5.8441
    -5.4986  -5.4850  -5.3067  -4.8934  -4.8393  -4.8002  -4.6363  -4.6215
    -4.5832  -4.4251  -4.2579  -4.1471  -3.9894  -3.9878  -3.9701  -3.9474
    -3.6180  -3.5509  -3.5312  -3.5261  -3.4209  -3.4179  -3.4075  -3.4000
    -3.2768  -3.1867  -3.1220  -3.0616  -3.0156  -3.0078  -3.0073  -3.0063
    -2.9915  -2.8586  -2.8349  -2.7994  -2.7813  -2.7434  -2.7409  -2.7395
    -2.7180  -2.7138  -2.5337  -2.4329  -2.3776  -2.3763  -2.3389  -2.3361
    -2.1946  -2.1920  -2.1812  -2.1773  -2.1521  -2.1519  -2.1518  -2.1516
    -2.1127  -2.0783  -2.0775  -2.0355  -2.0212  -2.0210  -2.0209  -2.0206
    -1.9609  -1.8417  -1.7770  -1.7447  -1.7387  -1.7378  -1.7376  -1.7027
    -1.6929  -1.6717  -1.6584  -1.6567  -1.6120  -1.6018  -1.5898  -1.5709
    -1.5646  -1.5631  -1.5607  -1.5509  -1.5396  -1.5351  -1.5347  -1.5155
    -1.5140  -1.4586  -1.4415  -1.4301  -1.4156  -1.3839  -1.3797  -1.3770
    -1.3715  -1.3529  -1.2989  -1.2906  -1.2635  -1.2621  -1.2507  -1.2116
    -1.2113  -1.1918  -1.1897  -1.1744  -1.1669  -1.1640  -1.1264  -1.1204
    -1.1089  -1.1074  -1.0494  -1.0468  -1.0355  -1.0293  -1.0270  -1.0247
    -1.0246  -1.0220  -1.0206  -1.0157  -1.0155  -0.9982  -0.9952  -0.9812
    -0.9517  -0.9406  -0.9379  -0.9347  -0.9233  -0.9190  -0.9179  -0.9172
    -0.8947  -0.8606  -0.8576  -0.8574  -0.8563  -0.8556  -0.8545  -0.8538
    -0.8526  -0.8525  -0.8505  -0.8482  -0.8481  -0.8479  -0.8457  -0.8426
    -0.8415  -0.8331  -0.8297  -0.8292  -0.8220  -0.7856  -0.6897  -0.6896
    -0.6857  -0.6832  -0.6826  -0.6603  -0.6585  -0.6415  -0.6413  -0.6200
    -0.6196  -0.6058  -0.6043  -0.6028  -0.6024  -0.5877  -0.5643  -0.5638
    -0.5618  -0.5612  -0.5539  -0.5529  -0.5422  -0.5419  -0.4921  -0.4920
    -0.4382  -0.4378  -0.4276  -0.4259  -0.4258  -0.4244  -0.4106  -0.4104
    -0.4048  -0.4047  -0.4045  -0.4041  -0.3998  -0.3997  -0.3860  -0.3850
    -0.3850  -0.3773  -0.3750  -0.3747  -0.3510  -0.3504  -0.2993  -0.2984
    -0.2966  -0.2910  -0.2909  -0.2644  -0.2644  -0.2644  -0.2643  -0.2493
    -0.2474  -0.2467  -0.2424  -0.2423  -0.2245  -0.2210  -0.2196  -0.2193
    -0.2149  -0.2145  -0.2144  -0.2141  -0.2117  -0.2087  -0.1925  -0.1901
    -0.1893  -0.1881  -0.1874  -0.1683  -0.1210  -0.1203  -0.1182  -0.1180
    -0.1154  -0.0733  -0.0722  -0.0697  -0.0683  -0.0681  -0.0623  -0.0620
    -0.0619  -0.0616  -0.0616  -0.0536  -0.0472  -0.0344  -0.0114  -0.0085
    -0.0081  -0.0077   0.0011   0.0194   0.0209   0.0212   0.0218   0.0265
     0.0303   0.0454   0.0462   0.0477   0.0481   0.0486   0.0493   0.0619
     0.0637   0.0639   0.0640   0.0694   0.0759   0.0773   0.0776   0.0987
     0.1023   0.1182   0.1352   0.1358   0.1574   0.1643   0.1649   0.1892
     0.1936   0.2333   0.2378   0.2382   0.2387   0.2398   0.2433   0.2498
     0.2696   0.2732   0.2737   0.2738   0.2746   0.2839   0.2844   0.2939
     0.3264   0.3408   0.3408   0.3484   0.3493   0.3503   0.3503   0.3775
     0.3833   0.3834   0.3841   0.3843   0.4093   0.4146   0.4149   0.4228
     0.4230   0.4361   0.4369   0.4392   0.4405   0.4772   0.4792   0.4928
     0.4944   0.4967   0.4969   0.4973   0.5095   0.5218   0.5271   0.5305
     0.5332   0.5347   0.5355   0.5356   0.5374   0.5397   0.5467   0.5471
     0.5474   0.5539   0.5543   0.5558   0.5637   0.5642   0.5812   0.5957
     0.6058   0.6058   0.6162   0.6165   0.6488   0.6495   0.6500   0.6507
     0.6527   0.6528   0.6534   0.6540   0.6641   0.6652   0.6740   0.6785
     0.6792   0.6794   0.6804   0.6874   0.6877   0.6975   0.6979   0.7146
     0.7202   0.7206   0.7209   0.7292   0.7309   0.7326   0.7427   0.7444
     0.7463   0.7486   0.7486   0.7539   0.7556   0.7570   0.7593   0.7612
     0.7687   0.7742   0.8058   0.8061   0.8161   0.8175   0.8232   0.8244
     0.8246   0.8252   0.8557   0.8562   0.8697   0.8709   0.8762   0.8763
     0.8907   0.8911   0.9002   0.9003   0.9009   0.9022   0.9091   0.9221
     0.9369   0.9379   0.9394   0.9419   0.9425   0.9437   0.9609   0.9636
     0.9777   0.9849   0.9859   0.9898   0.9969   0.9971   1.0075   1.0106
     1.0112   1.0129   1.0133   1.0141   1.0165   1.0237   1.0267   1.0287
     1.0288   1.0291   1.0307   1.0438   1.0440   1.0623   1.0629   1.0644
     1.0650   1.0691   1.0737   1.1034   1.1053   1.1061   1.1069   1.1083
     1.1097   1.1119   1.1123   1.1187   1.1196   1.1197   1.1199   1.1199
     1.1215   1.1357   1.1360   1.1614   1.1663   1.1835   1.1840   1.1978
     1.2017   1.2023   1.2039   1.2045   1.2053   1.2068   1.2137   1.2211
     1.2297   1.2355   1.2382   1.2398   1.2402   1.2410   1.2449   1.2461
     1.2467   1.2550   1.2738   1.2746   1.2757   1.2761   1.2772   1.2777
     1.2783   1.2785   1.2943   1.2949   1.2961   1.3024   1.3103   1.3106
     1.3116   1.3118   1.3121   1.3216   1.3238   1.3246   1.3362   1.3445
     1.3516   1.3537   1.3551   1.3560   1.3570   1.3571   1.3594   1.3716
     1.3840   1.3867   1.3882   1.3931   1.4028   1.4161   1.4163   1.4225
     1.4227   1.4228   1.4282   1.4304   1.4317   1.4342   1.4345   1.4346
     1.4349   1.4369   1.4384   1.4458   1.4464   1.4502   1.4673   1.4675
     1.4683   1.4684   1.4719   1.4795   1.4807   1.4938   1.5047   1.5095
     1.5109   1.5207   1.5568   1.5575   1.5603   1.5613   1.5790   1.5798
     1.5800   1.5879   1.5908   1.6060   1.6293   1.6321   1.6325   1.6330
     1.6336   1.6432   1.6439   1.6442   1.9000   1.9559   2.1058   2.1081
     2.1482   2.1549   2.2005   2.2052   2.2064   2.2070   2.2190   2.2235
     2.2252   2.2260   2.3989   2.4016   2.4597   2.4652   2.4667   2.4670
     2.4780   2.4808   2.6648   2.7182   2.7245   2.7247   2.7464   2.9700
     2.9866   3.0148   3.1687   3.5204   3.5227   3.8159   3.8178   3.8438
     3.8505   3.8541   3.8549   3.8915   3.9673   3.9805   3.9860   4.0063
     4.0073   4.0087   4.0095   4.0115   4.0139   4.2287   4.2489   4.2496
     4.2507   4.3559   4.3976   4.7012   4.7633   4.8386   4.8779   4.9084
     5.3045   5.3928   5.3985   5.4062   5.7059   5.7091   5.7205   5.7244
     5.9281   5.9298   6.1862   6.3455   6.3499   6.4093   6.4144   6.4694
     6.4707   6.4761   6.4823   6.5804   6.6015   6.6073   6.7168   6.7732
     6.7799   6.7940   6.8122   6.8185   7.0154   7.0468   7.0507   7.0594
     7.0695   7.0922   7.3572   7.3578   7.5097   7.5494   7.5508   7.6962
     7.6963   7.7068   7.7098   8.0043   8.0395   8.0839   8.1330   8.1945
     8.2329   8.3003   8.3060   8.3070   8.3305   8.3357   8.3462   8.4083
     8.4147   8.4262   8.4908   8.5581   8.5628   8.5685   8.6620   8.6648
     8.6683   8.6689   8.8143   8.8168   8.8284   8.8335   8.8385   8.8403
     9.1078   9.1096   9.1103   9.1161   9.1198   9.1401   9.1743   9.3210
     9.3442   9.3455   9.4238   9.4800   9.4906   9.5774   9.5785   9.6614
     9.6711   9.8045   9.8309  10.0435  10.0438  10.1185  10.1459

          k = 0.0000-0.2165 0.0000 (256176 PWs)   bands (ev):

   -17.2867 -16.3021 -15.8963 -15.6600 -15.0750 -14.6799 -14.3572 -14.3395
   -14.2660 -14.2317 -13.8272 -13.7712 -13.7198 -13.6946 -12.6073 -12.4370
   -12.3809 -12.3148 -12.1483 -12.0792 -10.6514 -10.5548 -10.5223 -10.3926
    -9.4593  -9.4390  -9.3026  -9.1163  -8.9910  -8.9560  -8.4044  -8.2867
    -8.2150  -8.1597  -7.4813  -7.3431  -7.0137  -6.9723  -6.9079  -6.8944
    -6.8529  -6.8384  -6.1904  -6.0825  -5.8913  -5.8826  -5.5184  -5.3875
    -5.2994  -5.2152  -5.1372  -4.9646  -4.9133  -4.8417  -4.8381  -4.7424
    -4.6863  -4.6308  -4.6101  -4.4705  -4.1581  -4.0481  -3.8264  -3.6974
    -3.6647  -3.5904  -3.3163  -3.3053  -3.3020  -3.3012  -3.2460  -3.2263
    -3.1427  -3.0926  -3.0678  -3.0495  -3.0399  -3.0312  -3.0068  -2.8964
    -2.8693  -2.8668  -2.8293  -2.7887  -2.7752  -2.7110  -2.6966  -2.6015
    -2.5878  -2.5877  -2.5786  -2.5783  -2.5779  -2.5770  -2.4779  -2.3684
    -2.3366  -2.3330  -2.2516  -2.2508  -2.2477  -2.2455  -2.1495  -2.1454
    -2.1447  -2.1443  -2.0852  -2.0411  -1.9867  -1.9866  -1.9612  -1.9611
    -1.8767  -1.8645  -1.8571  -1.8079  -1.7888  -1.7851  -1.7687  -1.7677
    -1.7497  -1.7495  -1.7407  -1.7407  -1.7227  -1.7224  -1.6455  -1.6453
    -1.6230  -1.5863  -1.5717  -1.5689  -1.5602  -1.4679  -1.4671  -1.4627
    -1.4622  -1.3793  -1.3767  -1.3708  -1.3705  -1.3686  -1.3168  -1.3166
    -1.2800  -1.2789  -1.2749  -1.2748  -1.2723  -1.2722  -1.2532  -1.2491
    -1.2290  -1.2288  -1.2239  -1.2229  -1.2133  -1.2119  -1.1689  -1.1542
    -1.1504  -1.1484  -1.1337  -1.1325  -1.0889  -1.0887  -1.0506  -1.0506
    -1.0475  -1.0473  -1.0044  -1.0030  -0.9840  -0.9836  -0.9829  -0.9822
    -0.9781  -0.9779  -0.9273  -0.9267  -0.9194  -0.9188  -0.9109  -0.9107
    -0.9010  -0.8987  -0.8972  -0.8968  -0.8315  -0.8281  -0.8281  -0.8197
    -0.8185  -0.8183  -0.8177  -0.8142  -0.7957  -0.7956  -0.7819  -0.7810
    -0.7546  -0.7545  -0.7517  -0.7505  -0.6548  -0.6547  -0.6542  -0.6541
    -0.6335  -0.6332  -0.6243  -0.6103  -0.6072  -0.6058  -0.6048  -0.6014
    -0.6014  -0.5755  -0.5751  -0.5639  -0.5421  -0.5414  -0.5403  -0.5392
    -0.5380  -0.5366  -0.5347  -0.5332  -0.5039  -0.5039  -0.4882  -0.4839
    -0.4838  -0.4723  -0.4483  -0.4481  -0.4475  -0.4468  -0.4454  -0.4364
    -0.4355  -0.4354  -0.4351  -0.4160  -0.4111  -0.3575  -0.3574  -0.3570
    -0.3569  -0.3273  -0.3254  -0.3036  -0.3035  -0.3018  -0.2971  -0.2963
    -0.2954  -0.2938  -0.2732  -0.2695  -0.2693  -0.2687  -0.2679  -0.2612
    -0.2518  -0.2478  -0.2471  -0.2469  -0.2458  -0.2434  -0.2432  -0.2388
    -0.2337  -0.2329  -0.2067  -0.2066  -0.2047  -0.2045  -0.1855  -0.1444
    -0.1423  -0.1408  -0.1406  -0.1338  -0.1316  -0.1310  -0.1284  -0.1275
    -0.1238  -0.1178  -0.1050  -0.1029  -0.0885  -0.0882  -0.0864  -0.0861
    -0.0774  -0.0773  -0.0751  -0.0740  -0.0737  -0.0732  -0.0455  -0.0176
    -0.0170  -0.0135  -0.0134   0.0012   0.0032   0.0053   0.0058   0.0111
     0.0112   0.0133   0.0281   0.0294   0.0298   0.0308   0.0414   0.0451
     0.0584   0.0594   0.0755   0.0758   0.0759   0.0763   0.0943   0.0953
     0.1109   0.1109   0.1217   0.1220   0.1342   0.1351   0.1354   0.1359
     0.1794   0.1806   0.1833   0.1844   0.1957   0.1965   0.2016   0.2020
     0.2288   0.2290   0.2608   0.2627   0.2648   0.2673   0.3001   0.3002
     0.3261   0.3348   0.3855   0.3860   0.3864   0.3871   0.3920   0.4123
     0.4131   0.4135   0.4138   0.4251   0.4453   0.4482   0.4534   0.4544
     0.4547   0.4550   0.4550   0.4561   0.4618   0.4663   0.4766   0.4772
     0.4787   0.4789   0.4808   0.4816   0.4832   0.4844   0.5161   0.5162
     0.5275   0.5277   0.5279   0.5283   0.5360   0.5360   0.5378   0.5558
     0.5569   0.5575   0.5576   0.5580   0.5582   0.5586   0.5588   0.5589
     0.5815   0.5817   0.5831   0.5836   0.5837   0.5845   0.5852   0.5853
     0.6015   0.6016   0.6446   0.6449   0.6566   0.6570   0.6655   0.6679
     0.6688   0.6694   0.6752   0.6753   0.6761   0.6768   0.6820   0.6822
     0.6832   0.6833   0.7232   0.7242   0.7244   0.7248   0.7384   0.7414
     0.7415   0.7424   0.7429   0.7440   0.7548   0.7585   0.7746   0.7758
     0.7787   0.7810   0.7824   0.7825   0.8338   0.8347   0.8850   0.8858
     0.8916   0.8930   0.8938   0.8945   0.9029   0.9041   0.9106   0.9106
     0.9170   0.9173   0.9226   0.9249   0.9258   0.9266   0.9374   0.9382
     0.9400   0.9413   0.9420   0.9423   0.9493   0.9554   0.9638   0.9665
     0.9665   0.9679   0.9688   0.9706   0.9708   0.9741   0.9776   0.9777
     0.9892   0.9892   0.9910   0.9914   0.9927   0.9933   1.0109   1.0113
     1.0206   1.0238   1.0265   1.0271   1.0293   1.0296   1.0386   1.0386
     1.0394   1.0395   1.0403   1.0405   1.0859   1.0888   1.1072   1.1143
     1.1272   1.1273   1.1422   1.1433   1.1521   1.1532   1.1539   1.1548
     1.1699   1.1702   1.1846   1.1861   1.1921   1.1928   1.1952   1.1961
     1.1971   1.1983   1.1986   1.1996   1.2004   1.2012   1.2028   1.2029
     1.2102   1.2102   1.2206   1.2237   1.2300   1.2304   1.2307   1.2314
     1.2398   1.2407   1.2666   1.2695   1.2696   1.2699   1.2764   1.2767
     1.2789   1.2796   1.2935   1.2950   1.2969   1.2971   1.3098   1.3105
     1.3124   1.3132   1.3146   1.3153   1.3319   1.3324   1.3327   1.3335
     1.3506   1.3516   1.3517   1.3544   1.3708   1.3724   1.3787   1.3790
     1.3796   1.3798   1.3949   1.3949   1.3951   1.3953   1.4119   1.4124
     1.4261   1.4263   1.4264   1.4285   1.4464   1.4469   1.4488   1.4490
     1.4501   1.4502   1.4507   1.4513   1.4789   1.4789   1.4869   1.4876
     1.4942   1.4964   1.4976   1.5045   1.5184   1.5195   1.5195   1.5197
     1.5286   1.5287   1.5409   1.5409   1.5825   1.5852   1.5877   1.5881
     1.6739   1.6888   1.6936   1.7124   1.7165   1.7289   1.7314   1.7332
     1.7834   1.7864   1.7921   1.7934   1.8013   1.8124   1.8133   1.8137
     1.8532   1.8533   1.8982   2.0545   2.0668   2.0940   2.4126   2.4148
     2.4188   2.4192   2.4956   2.4980   2.5600   2.5634   2.5637   2.5643
     2.5807   2.5811   2.7091   2.7106   2.7565   2.7604   2.7792   2.7802
     2.9232   2.9241   3.1696   3.1697   3.1780   3.1865   3.3944   3.4150
     3.5849   3.6699   3.6848   3.9028   3.9282   3.9515   4.0798   4.1031
     4.1068   4.1082   4.3230   4.3253   4.3267   4.3274   4.4975   4.4984
     4.6625   4.6897   4.7655   4.7706   4.9149   5.0729   5.0989   5.1024
     5.3235   5.3580   5.3583   5.3589   5.3609   5.4305   5.5286   5.6595
     5.6781   5.7105   5.7523   5.8151   6.3803   6.3890   6.4205   6.4267
     6.4391   6.4431   6.5485   6.5571   6.6638   6.6680   6.8065   6.8089
     6.9731   7.0183   7.0386   7.0445   7.0738   7.0803   7.1160   7.1200
     7.1304   7.1343   7.2284   7.3388   7.3503   7.3654   7.3806   7.4277
     7.5323   7.6044   7.6979   7.7137   7.7307   7.7548   8.1433   8.1437
     8.3396   8.3564   8.3611   8.4240   8.4279   8.4288   8.4332   8.4478
     8.4493   8.4826   8.6414   8.6504   8.7120   8.7132   8.7189   8.7199
     8.7579   8.7624   8.8548   8.9165   8.9433   9.0157   9.0224   9.0579
     9.1417   9.1550   9.2364   9.2376   9.2816   9.3154   9.3856   9.3859
     9.3866   9.3867   9.4586   9.4609   9.4808   9.4870   9.4892   9.4906
     9.6620   9.6648   9.7868   9.7875   9.7971   9.8893   9.8896

          k = 0.2500 0.0000 0.0000 (256240 PWs)   bands (ev):

   -17.2361 -16.1278 -15.9647 -15.6637 -15.1443 -15.0050 -14.9455 -14.8938
   -14.1130 -13.9543 -13.7724 -13.2471 -13.1734 -13.0914 -13.0442 -12.3507
   -12.2317 -12.1478 -12.0817 -11.2397 -11.1399 -10.7885 -10.6726 -10.3597
   -10.2269  -9.9551  -9.9051  -9.5081  -9.2551  -9.1593  -8.6806  -7.9940
    -7.7978  -7.7311  -7.5652  -7.5421  -7.4471  -7.0939  -6.9777  -6.3016
    -6.2214  -6.0441  -5.9683  -5.9148  -5.8421  -5.4541  -5.3316  -5.3119
    -5.3025  -5.1764  -4.9234  -4.7491  -4.6346  -4.5431  -4.4682  -4.4638
    -4.4618  -4.4271  -4.3718  -4.2283  -4.1398  -4.0013  -4.0001  -3.9977
    -3.9095  -3.8454  -3.8405  -3.8115  -3.7954  -3.6260  -3.6010  -3.5742
    -3.5247  -3.4857  -3.4067  -3.4039  -3.2791  -3.2350  -3.2129  -3.1975
    -3.1422  -3.0364  -2.9566  -2.8958  -2.8005  -2.7988  -2.7910  -2.7528
    -2.6552  -2.6256  -2.6233  -2.5066  -2.4014  -2.3944  -2.3482  -2.3376
    -2.1355  -2.0992  -2.0969  -2.0826  -2.0798  -2.0589  -2.0038  -1.9904
    -1.9808  -1.8977  -1.8956  -1.8415  -1.8032  -1.8017  -1.8007  -1.7940
    -1.7934  -1.7849  -1.7737  -1.7462  -1.7356  -1.7241  -1.7191  -1.7168
    -1.7128  -1.6539  -1.6471  -1.6036  -1.5904  -1.5830  -1.5811  -1.5786
    -1.5783  -1.5779  -1.5484  -1.5273  -1.5144  -1.5040  -1.5021  -1.4910
    -1.4889  -1.3727  -1.3365  -1.3289  -1.3130  -1.2792  -1.2697  -1.2572
    -1.2440  -1.2431  -1.2380  -1.2364  -1.2301  -1.2205  -1.2078  -1.1984
    -1.1918  -1.1852  -1.1837  -1.1781  -1.1590  -1.1400  -1.1358  -1.1339
    -1.1335  -1.1325  -1.1171  -1.1115  -1.1111  -1.0915  -1.0770  -1.0666
    -1.0512  -1.0497  -1.0469  -1.0468  -1.0405  -1.0210  -1.0132  -1.0126
    -1.0035  -1.0016  -0.9966  -0.9912  -0.9819  -0.9815  -0.9813  -0.9800
    -0.9762  -0.9757  -0.9647  -0.9545  -0.9530  -0.9464  -0.9457  -0.9388
    -0.9218  -0.9020  -0.9008  -0.8960  -0.8529  -0.8523  -0.8164  -0.8163
    -0.7972  -0.7957  -0.7864  -0.7709  -0.7708  -0.7576  -0.7546  -0.7525
    -0.7501  -0.7428  -0.7416  -0.7225  -0.6062  -0.6030  -0.5997  -0.5971
    -0.5685  -0.5671  -0.5668  -0.5507  -0.5500  -0.5497  -0.5481  -0.5389
    -0.5307  -0.5270  -0.5269  -0.5203  -0.5178  -0.5055  -0.4975  -0.4878
    -0.4850  -0.4849  -0.4819  -0.4812  -0.4608  -0.4608  -0.4576  -0.4014
    -0.3997  -0.3996  -0.3968  -0.3914  -0.3903  -0.3895  -0.3805  -0.3760
    -0.3567  -0.3565  -0.3442  -0.3334  -0.3332  -0.3309  -0.3285  -0.3077
    -0.2950  -0.2949  -0.2921  -0.2912  -0.2817  -0.2804  -0.2710  -0.2700
    -0.2661  -0.2593  -0.2495  -0.2386  -0.2301  -0.2204  -0.2018  -0.1991
    -0.1988  -0.1964  -0.1903  -0.1822  -0.1803  -0.1801  -0.1778  -0.1643
    -0.1521  -0.1521  -0.1398  -0.1387  -0.1373  -0.1275  -0.1126  -0.1110
    -0.1107  -0.0666  -0.0638  -0.0634  -0.0576  -0.0550  -0.0464  -0.0374
    -0.0193  -0.0174  -0.0126  -0.0119  -0.0112  -0.0068  -0.0059   0.0011
     0.0039   0.0047   0.0058   0.0074   0.0081   0.0127   0.0285   0.0330
     0.0335   0.0353   0.0398   0.0432   0.0586   0.0589   0.0705   0.0750
     0.0771   0.0929   0.1141   0.1144   0.1165   0.1166   0.1185   0.1346
     0.1389   0.1413   0.1416   0.1421   0.1425   0.1738   0.1770   0.1832
     0.1924   0.2532   0.2538   0.2548   0.2677   0.2715   0.2727   0.2749
     0.2769   0.2780   0.2822   0.2831   0.2841   0.2851   0.2876   0.2887
     0.2952   0.3050   0.3068   0.3070   0.3087   0.3208   0.3211   0.3263
     0.3286   0.3335   0.3357   0.3571   0.3588   0.3617   0.3687   0.3901
     0.3967   0.4051   0.4139   0.4246   0.4250   0.4428   0.4432   0.4439
     0.4472   0.4553   0.4603   0.4771   0.4800   0.4804   0.4852   0.4855
     0.4907   0.4915   0.4959   0.4960   0.5169   0.5223   0.5237   0.5354
     0.5392   0.5443   0.5445   0.5511   0.5514   0.5517   0.5546   0.5551
     0.5741   0.5795   0.5797   0.5912   0.5925   0.5935   0.5937   0.5965
     0.6098   0.6103   0.6131   0.6177   0.6178   0.6368   0.6375   0.6515
     0.6568   0.6608   0.6638   0.6639   0.6691   0.6713   0.6731   0.6907
     0.7009   0.7049   0.7239   0.7286   0.7405   0.7407   0.7448   0.7452
     0.7500   0.7654   0.7708   0.7738   0.7773   0.7786   0.7820   0.7864
     0.7902   0.7973   0.8027   0.8040   0.8150   0.8241   0.8245   0.8249
     0.8475   0.8522   0.8557   0.8563   0.8568   0.8791   0.8806   0.8912
     0.8928   0.8931   0.8940   0.8959   0.9014   0.9037   0.9053   0.9062
     0.9284   0.9379   0.9461   0.9502   0.9523   0.9545   0.9547   0.9682
     0.9693   0.9895   0.9909   0.9915   0.9928   0.9996   1.0006   1.0017
     1.0158   1.0167   1.0182   1.0188   1.0215   1.0222   1.0232   1.0251
     1.0273   1.0307   1.0327   1.0331   1.0401   1.0434   1.0572   1.0581
     1.0603   1.0639   1.0658   1.0689   1.0690   1.0759   1.0765   1.0900
     1.0905   1.1038   1.1072   1.1076   1.1085   1.1115   1.1218   1.1300
     1.1354   1.1361   1.1385   1.1434   1.1496   1.1514   1.1569   1.1574
     1.1586   1.1725   1.1816   1.1846   1.1895   1.1916   1.1918   1.2270
     1.2281   1.2345   1.2396   1.2429   1.2449   1.2523   1.2527   1.2532
     1.2539   1.2619   1.2669   1.2696   1.2754   1.2766   1.2788   1.2793
     1.2954   1.2963   1.3005   1.3006   1.3059   1.3099   1.3116   1.3134
     1.3146   1.3160   1.3165   1.3221   1.3235   1.3242   1.3324   1.3375
     1.3442   1.3486   1.3510   1.3517   1.3555   1.3557   1.3599   1.3642
     1.3724   1.3797   1.3802   1.3812   1.4032   1.4035   1.4118   1.4165
     1.4187   1.4225   1.4226   1.4251   1.4266   1.4268   1.4335   1.4337
     1.4345   1.4400   1.4406   1.4436   1.4603   1.4627   1.4631   1.4648
     1.4655   1.4693   1.4698   1.4826   1.4830   1.4909   1.4941   1.4968
     1.5057   1.5063   1.5082   1.5128   1.5142   1.5161   1.5457   1.5525
     1.5552   1.5691   1.5815   1.6233   1.6248   1.6277   1.6372   1.6548
     1.6609   1.7435   1.7524   1.7617   1.7624   1.7818   1.7936   1.7988
     1.8367   1.9581   2.0305   2.0631   2.0682   2.0807   2.0852   2.0865
     2.1890   2.2468   2.2535   2.5611   2.5614   2.5630   2.5657   2.9751
     2.9752   3.0086   3.1930   3.1932   3.2177   3.2178   3.2658   3.2796
     3.4558   3.4672   3.5659   3.5794   3.5946   3.6277   3.6483   3.6985
     3.7047   3.7160   3.7204   3.7941   3.8687   3.8707   3.9669   3.9690
     4.0488   4.1787   4.1845   4.1894   4.2784   4.3372   4.4105   4.5511
     4.7524   4.8186   4.8256   5.0956   5.1619   5.2173   5.2182   5.2280
     5.2587   5.3549   5.4615   5.4653   5.5052   5.5445   5.5822   5.5856
     5.6594   5.6758   5.6831   5.7294   5.7329   5.8018   5.8212   5.8270
     6.0084   6.0100   6.0302   6.0425   6.4022   6.6012   6.6924   6.6956
     6.6997   6.7483   6.7601   6.7866   6.8660   6.9252   7.0141   7.0350
     7.0493   7.0515   7.0673   7.2250   7.2429   7.2936   7.3037   7.4974
     7.5067   7.5169   7.5587   7.5677   7.6781   7.7590   7.7642   7.7928
     7.9868   8.0018   8.0253   8.0618   8.1019   8.1865   8.2049   8.2147
     8.2474   8.2637   8.3121   8.3124   8.3870   8.3979   8.4378   8.4720
     8.6439   8.6448   8.9450   8.9546   8.9842   8.9879   9.0071   9.1431
     9.1686   9.1889   9.2110   9.2216   9.2297   9.2530   9.2680   9.3374
     9.4002   9.4070   9.4422   9.4427   9.4825   9.5111   9.6412   9.6786
     9.7175   9.7193   9.8233   9.8310   9.8354   9.8461   9.9439

          k = 0.2500-0.2165 0.0000 (256316 PWs)   bands (ev):

   -17.2358 -16.1782 -15.8752 -15.5401 -15.4587 -15.1905 -14.7127 -14.5644
   -14.2564 -14.1160 -13.7230 -13.2684 -13.2533 -13.1599 -12.7667 -12.6629
   -12.1506 -12.0266 -11.5120 -11.4317 -11.2850 -11.1259 -10.9626 -10.6226
    -9.8685  -9.7867  -9.3923  -9.3578  -9.1041  -9.0505  -8.6775  -8.6246
    -8.4733  -8.4246  -7.3053  -7.0295  -6.8325  -6.6728  -6.5982  -6.5020
    -6.4504  -6.3181  -6.0841  -6.0316  -5.7143  -5.7044  -5.4293  -5.2559
    -5.1802  -5.0699  -4.9356  -4.8020  -4.6786  -4.6748  -4.5449  -4.5434
    -4.4773  -4.3493  -4.3459  -4.3164  -4.1862  -4.1615  -4.1492  -4.0552
    -3.9015  -3.7734  -3.7617  -3.7377  -3.5857  -3.5619  -3.5012  -3.4595
    -3.4583  -3.4554  -3.3627  -3.2916  -3.2546  -3.1956  -3.1423  -3.1030
    -3.0301  -2.9460  -2.9403  -2.9245  -2.9111  -2.9095  -2.8647  -2.8168
    -2.6934  -2.6556  -2.6075  -2.5056  -2.3348  -2.3138  -2.3116  -2.2687
    -2.1868  -2.1809  -2.1688  -2.1687  -2.1035  -2.0699  -2.0100  -2.0094
    -1.9777  -1.9763  -1.9721  -1.9691  -1.8935  -1.8301  -1.8223  -1.8131
    -1.8130  -1.7802  -1.7608  -1.7526  -1.7351  -1.7240  -1.7206  -1.7098
    -1.7096  -1.6932  -1.6790  -1.6777  -1.6766  -1.6763  -1.6674  -1.6672
    -1.5823  -1.5822  -1.5568  -1.4690  -1.4667  -1.3773  -1.3689  -1.3669
    -1.3614  -1.3302  -1.3299  -1.2777  -1.2775  -1.2694  -1.2628  -1.2628
    -1.2497  -1.2490  -1.2414  -1.2401  -1.2252  -1.2245  -1.2131  -1.2130
    -1.2113  -1.2039  -1.2008  -1.1989  -1.1873  -1.1873  -1.1707  -1.1339
    -1.1310  -1.1269  -1.1258  -1.1216  -1.1157  -1.1143  -1.1115  -1.0935
    -1.0833  -1.0817  -1.0399  -1.0397  -1.0357  -1.0299  -1.0266  -1.0239
    -0.9965  -0.9964  -0.9737  -0.9726  -0.9622  -0.9617  -0.9612  -0.9563
    -0.9558  -0.9519  -0.9499  -0.9339  -0.9243  -0.9241  -0.9114  -0.9052
    -0.8814  -0.8682  -0.8681  -0.8627  -0.8622  -0.8256  -0.7783  -0.7782
    -0.7740  -0.7739  -0.7703  -0.7695  -0.7231  -0.7215  -0.7166  -0.7126
    -0.7122  -0.7063  -0.7061  -0.6944  -0.6940  -0.6784  -0.6531  -0.6523
    -0.6159  -0.6145  -0.5840  -0.5681  -0.5666  -0.5665  -0.5639  -0.5612
    -0.5339  -0.5334  -0.5212  -0.5205  -0.5022  -0.5007  -0.4925  -0.4892
    -0.4888  -0.4753  -0.4608  -0.4577  -0.4518  -0.4496  -0.4430  -0.4428
    -0.4125  -0.4082  -0.4081  -0.3966  -0.3936  -0.3877  -0.3817  -0.3807
    -0.3681  -0.3677  -0.3635  -0.3632  -0.3573  -0.3559  -0.3520  -0.3519
    -0.3341  -0.3339  -0.3178  -0.3176  -0.2951  -0.2891  -0.2764  -0.2742
    -0.2623  -0.2569  -0.2402  -0.2401  -0.2355  -0.2311  -0.2182  -0.2176
    -0.2133  -0.2130  -0.1936  -0.1808  -0.1600  -0.1543  -0.1532  -0.1181
    -0.1180  -0.1091  -0.1091  -0.1055  -0.1038  -0.0876  -0.0875  -0.0847
    -0.0703  -0.0700  -0.0606  -0.0566  -0.0492  -0.0478  -0.0431  -0.0426
    -0.0413  -0.0400  -0.0167  -0.0137  -0.0131  -0.0057  -0.0042  -0.0032
    -0.0025  -0.0013  -0.0009   0.0010   0.0058   0.0074   0.0229   0.0313
     0.0314   0.0315   0.0316   0.0651   0.0654   0.0734   0.0735   0.0763
     0.0770   0.0982   0.0991   0.1045   0.1217   0.1303   0.1314   0.1319
     0.1405   0.1410   0.1516   0.1518   0.1548   0.1555   0.1687   0.1688
     0.1749   0.1763   0.2045   0.2049   0.2674   0.2689   0.2811   0.2814
     0.2828   0.2831   0.2862   0.2867   0.2876   0.2889   0.2918   0.2935
     0.3147   0.3168   0.3169   0.3193   0.3205   0.3270   0.3291   0.3311
     0.3342   0.3342   0.3657   0.3668   0.3785   0.3809   0.3829   0.3945
     0.3987   0.4022   0.4124   0.4434   0.4437   0.4491   0.4509   0.4544
     0.4572   0.4573   0.4688   0.4689   0.4751   0.4787   0.4798   0.4808
     0.4814   0.4817   0.5051   0.5121   0.5149   0.5177   0.5233   0.5342
     0.5345   0.5508   0.5666   0.5670   0.5673   0.5690   0.5991   0.6008
     0.6027   0.6046   0.6071   0.6083   0.6121   0.6142   0.6244   0.6262
     0.6272   0.6285   0.6331   0.6361   0.6479   0.6482   0.6581   0.6599
     0.6678   0.6679   0.6708   0.6709   0.6782   0.6795   0.6813   0.6862
     0.6888   0.6890   0.7019   0.7053   0.7095   0.7106   0.7156   0.7164
     0.7183   0.7186   0.7207   0.7209   0.7551   0.7557   0.7667   0.7676
     0.7850   0.7884   0.8027   0.8069   0.8229   0.8232   0.8245   0.8246
     0.8299   0.8310   0.8449   0.8533   0.8537   0.8540   0.8541   0.8552
     0.8555   0.8650   0.8696   0.8750   0.8829   0.8834   0.8922   0.8949
     0.8998   0.9046   0.9280   0.9283   0.9299   0.9415   0.9505   0.9513
     0.9569   0.9596   0.9642   0.9644   0.9708   0.9709   0.9745   0.9905
     1.0001   1.0030   1.0109   1.0166   1.0178   1.0248   1.0296   1.0378
     1.0457   1.0595   1.0619   1.0650   1.0789   1.0802   1.0864   1.0865
     1.0892   1.0893   1.0906   1.0907   1.0950   1.0951   1.1046   1.1051
     1.1124   1.1154   1.1160   1.1179   1.1354   1.1367   1.1631   1.1652
     1.1662   1.1694   1.1704   1.1728   1.1741   1.1750   1.1795   1.1839
     1.1876   1.1900   1.1904   1.1913   1.1959   1.1982   1.2008   1.2020
     1.2075   1.2093   1.2172   1.2203   1.2229   1.2232   1.2242   1.2244
     1.2359   1.2368   1.2446   1.2448   1.2668   1.2691   1.2770   1.2777
     1.2791   1.2921   1.2927   1.2959   1.3044   1.3096   1.3100   1.3123
     1.3187   1.3216   1.3303   1.3307   1.3345   1.3361   1.3427   1.3452
     1.3474   1.3475   1.3568   1.3595   1.3602   1.3702   1.3777   1.3808
     1.3809   1.3811   1.3859   1.3869   1.3908   1.3917   1.3942   1.4047
     1.4048   1.4089   1.4095   1.4179   1.4198   1.4221   1.4260   1.4331
     1.4366   1.4370   1.4372   1.4424   1.4438   1.4438   1.4444   1.4475
     1.4531   1.4532   1.4779   1.4780   1.4854   1.4859   1.4949   1.5005
     1.5095   1.5192   1.5251   1.5264   1.5275   1.5493   1.5497   1.5564
     1.5567   1.5810   1.5827   1.5901   1.6130   1.6456   1.6614   1.6627
     1.7108   1.7486   1.7581   1.7618   1.7698   1.7799   1.7853   1.7858
     1.7862   1.8101   1.8349   1.8429   2.1242   2.1248   2.1561   2.1568
     2.2816   2.2862   2.5820   2.5828   2.7786   2.7828   2.7862   2.7872
     2.7976   2.7994   2.8283   2.8314   2.9807   2.9817   3.0690   3.0790
     3.5247   3.5352   3.5986   3.6040   3.6521   3.6746   3.7627   3.8350
     3.8407   3.8437   3.8616   3.9891   3.9960   4.0563   4.0777   4.1591
     4.1622   4.3239   4.3713   4.3728   4.4312   4.5439   4.5443   4.6126
     4.6600   4.6797   4.7081   4.7228   4.9177   4.9252   4.9954   5.0190
     5.0210   5.1275   5.2580   5.2786   5.3973   5.4320   5.4388   5.4503
     5.4529   5.4729   5.7480   5.7560   5.8143   5.8785   5.8887   5.9486
     5.9538   5.9720   6.5773   6.5852   6.6076   6.6148   6.7220   6.7455
     6.7971   6.8512   6.8709   7.0234   7.0315   7.0459   7.0757   7.0891
     7.0969   7.1106   7.1863   7.2109   7.2146   7.3206   7.3241   7.3286
     7.3312   7.3985   7.4362   7.4379   7.6601   7.6628   7.7571   7.7840
     7.7894   7.8647   7.9725   7.9826   8.1791   8.1904   8.2303   8.2472
     8.2675   8.3897   8.5795   8.5831   8.5953   8.6049   8.6364   8.6376
     8.7041   8.7051   8.8013   8.8153   8.9005   8.9095   8.9378   8.9435
     9.0634   9.1073   9.1319   9.1417   9.1755   9.1804   9.1929   9.2036
     9.2158   9.2632   9.2681   9.3015   9.3418   9.3524   9.4283   9.4421
     9.4457   9.4788   9.6268   9.6279   9.9560   9.9601   9.9687

          k =-0.5000 0.0000 0.0000 (256496 PWs)   bands (ev):

   -17.1754 -16.0098 -15.7418 -15.6293 -15.6091 -15.5597 -14.8138 -14.6180
   -14.5142 -14.4814 -13.2105 -12.9074 -12.7663 -12.7010 -12.4573 -12.4338
   -11.9121 -11.8911 -11.8078 -11.7995 -11.2434 -11.2063 -10.9823 -10.7502
   -10.3357 -10.3039 -10.0806  -9.7613  -9.1486  -9.1481  -8.9776  -8.9447
    -7.8198  -7.6368  -7.5883  -7.4114  -7.3670  -7.3462  -6.3101  -6.2283
    -5.8463  -5.3234  -5.3219  -5.3091  -5.1455  -5.0096  -4.9673  -4.8649
    -4.8087  -4.8038  -4.8032  -4.8023  -4.7776  -4.7626  -4.7384  -4.6920
    -4.6661  -4.5438  -4.5430  -4.4721  -4.3789  -4.3780  -4.2929  -4.0546
    -4.0163  -3.9974  -3.9668  -3.9650  -3.6906  -3.6764  -3.6032  -3.5744
    -3.5729  -3.5559  -3.4285  -3.4210  -3.4199  -3.4191  -3.4185  -3.4127
    -3.3758  -3.3638  -2.9448  -2.9395  -2.8964  -2.8539  -2.8118  -2.7876
    -2.7669  -2.7598  -2.6223  -2.6092  -2.5681  -2.4791  -2.4509  -2.4397
    -2.3070  -2.3037  -2.3029  -2.3024  -1.8797  -1.8792  -1.8788  -1.8787
    -1.8768  -1.8766  -1.8654  -1.8135  -1.7797  -1.7597  -1.7567  -1.7554
    -1.6887  -1.6517  -1.6508  -1.6505  -1.6504  -1.6026  -1.6025  -1.6018
    -1.6011  -1.5128  -1.5064  -1.4885  -1.4885  -1.4869  -1.4769  -1.4529
    -1.4341  -1.4260  -1.4253  -1.4253  -1.4070  -1.4066  -1.3576  -1.3575
    -1.3571  -1.3545  -1.3536  -1.3427  -1.3421  -1.3411  -1.3408  -1.3381
    -1.2948  -1.2924  -1.2923  -1.2911  -1.2719  -1.2685  -1.2677  -1.2676
    -1.2331  -1.2048  -1.2048  -1.1833  -1.1826  -1.1822  -1.1817  -1.1588
    -1.1558  -1.1545  -1.1529  -1.1513  -1.1509  -1.1504  -1.1089  -1.1081
    -1.1070  -1.1070  -1.0861  -1.0860  -1.0721  -1.0560  -1.0559  -1.0527
    -1.0097  -1.0096  -1.0089  -0.9814  -0.9811  -0.9798  -0.9796  -0.9551
    -0.9536  -0.9528  -0.9518  -0.9475  -0.9464  -0.9439  -0.9322  -0.9317
    -0.9293  -0.9293  -0.9034  -0.9026  -0.8868  -0.8409  -0.8407  -0.8387
    -0.8381  -0.7948  -0.7948  -0.7170  -0.7121  -0.7116  -0.7115  -0.7078
    -0.6896  -0.6808  -0.6733  -0.6731  -0.6722  -0.6722  -0.6684  -0.6617
    -0.6417  -0.6333  -0.6299  -0.6294  -0.6250  -0.6178  -0.6149  -0.6025
    -0.6006  -0.5994  -0.5736  -0.5290  -0.5186  -0.5120  -0.4823  -0.4728
    -0.4665  -0.4660  -0.4566  -0.4565  -0.4326  -0.4165  -0.4136  -0.4100
    -0.4063  -0.4062  -0.4045  -0.4044  -0.3945  -0.3816  -0.3684  -0.3684
    -0.3679  -0.3678  -0.3297  -0.3294  -0.3287  -0.3286  -0.3198  -0.2959
    -0.2958  -0.2958  -0.2952  -0.2842  -0.2842  -0.2513  -0.2512  -0.2509
    -0.2498  -0.2498  -0.2463  -0.2405  -0.2275  -0.2137  -0.2044  -0.2005
    -0.1683  -0.1367  -0.1352  -0.1351  -0.1342  -0.1290  -0.1290  -0.1280
    -0.1278  -0.0885  -0.0883  -0.0868  -0.0859  -0.0679  -0.0523  -0.0520
    -0.0260  -0.0259  -0.0239  -0.0236  -0.0222  -0.0220  -0.0215  -0.0213
    -0.0201  -0.0200  -0.0195  -0.0192   0.0556   0.0571   0.0610   0.0623
     0.0665   0.0671   0.0718   0.0721   0.0725   0.0725   0.0774   0.0774
     0.0795   0.0797   0.0831   0.0833   0.0873   0.0888   0.1020   0.1020
     0.1114   0.1161   0.1165   0.1165   0.1167   0.1167   0.1171   0.1273
     0.1276   0.1279   0.1279   0.1404   0.1407   0.1435   0.1527   0.1527
     0.1534   0.1537   0.1715   0.1829   0.1837   0.1957   0.2516   0.2660
     0.2859   0.2860   0.2877   0.2877   0.3189   0.3193   0.3201   0.3204
     0.3344   0.3345   0.3398   0.3398   0.3442   0.3448   0.3453   0.3457
     0.3495   0.3504   0.3514   0.3518   0.3520   0.3522   0.3666   0.3666
     0.3717   0.3748   0.3811   0.3817   0.3893   0.3898   0.3950   0.3953
     0.4014   0.4019   0.4358   0.4385   0.4900   0.4917   0.4918   0.4923
     0.5004   0.5007   0.5216   0.5235   0.5254   0.5265   0.5279   0.5288
     0.5296   0.5298   0.5321   0.5328   0.5346   0.5350   0.5371   0.5373
     0.5437   0.5448   0.5453   0.5455   0.5628   0.5656   0.5832   0.5833
     0.5927   0.5983   0.6054   0.6099   0.6162   0.6178   0.6213   0.6216
     0.6301   0.6304   0.6310   0.6311   0.6333   0.6337   0.6466   0.6471
     0.6515   0.6517   0.6670   0.6675   0.6686   0.6688   0.7054   0.7058
     0.7064   0.7065   0.7071   0.7072   0.7246   0.7254   0.7528   0.7558
     0.7649   0.7665   0.7674   0.7674   0.7675   0.7678   0.7853   0.8077
     0.8344   0.8348   0.8384   0.8391   0.8397   0.8402   0.8440   0.8449
     0.8510   0.8521   0.8526   0.8528   0.8632   0.8650   0.8847   0.8847
     0.8864   0.8865   0.8877   0.8934   0.9053   0.9055   0.9060   0.9063
     0.9074   0.9076   0.9438   0.9453   0.9455   0.9457   0.9714   0.9909
     1.0118   1.0121   1.0121   1.0127   1.0376   1.0455   1.0461   1.0464
     1.0477   1.0491   1.0649   1.0653   1.0756   1.0764   1.0789   1.0844
     1.0876   1.0890   1.1096   1.1104   1.1152   1.1157   1.1158   1.1164
     1.1232   1.1238   1.1249   1.1253   1.1347   1.1347   1.1357   1.1362
     1.1374   1.1375   1.1381   1.1383   1.1725   1.1741   1.1755   1.1755
     1.1912   1.1986   1.2050   1.2064   1.2099   1.2111   1.2115   1.2120
     1.2290   1.2301   1.2341   1.2402   1.2405   1.2409   1.2430   1.2507
     1.2512   1.2514   1.2516   1.2557   1.2599   1.2651   1.2690   1.2748
     1.2982   1.2984   1.3109   1.3138   1.3139   1.3141   1.3144   1.3145
     1.3145   1.3146   1.3247   1.3269   1.3278   1.3280   1.3286   1.3287
     1.3307   1.3308   1.3359   1.3365   1.3410   1.3412   1.3418   1.3419
     1.3490   1.3491   1.3638   1.3640   1.3792   1.3823   1.3830   1.3832
     1.3911   1.3912   1.3926   1.3926   1.4058   1.4092   1.4129   1.4130
     1.4279   1.4285   1.4310   1.4350   1.4381   1.4474   1.4475   1.4477
     1.4484   1.4657   1.4670   1.4685   1.4693   1.4706   1.4783   1.4784
     1.4788   1.4788   1.4836   1.4880   1.4982   1.4982   1.5117   1.5124
     1.5124   1.5128   1.5128   1.5248   1.5257   1.5259   1.5759   1.5761
     1.5925   1.6059   1.6059   1.6102   1.6104   1.6216   2.0243   2.0275
     2.0287   2.0293   2.2303   2.2326   2.2472   2.2507   2.2828   2.2835
     2.2902   2.2905   2.6043   2.6126   2.6163   2.6175   2.8246   2.8279
     2.8328   2.8334   3.1827   3.1828   3.1851   3.1855   3.4613   3.4677
     3.7386   3.7507   3.7531   3.7543   3.8419   3.9171   3.9206   3.9221
     3.9607   4.0659   4.0679   4.0709   4.0761   4.1762   4.1832   4.3875
     4.4012   4.4810   4.7286   4.7401   4.7483   4.7519   4.8080   4.8231
     4.8235   4.8530   4.9294   5.0189   5.0195   5.0345   5.0382   5.0444
     5.0468   5.0504   5.0706   5.0714   5.0955   5.1069   5.1521   5.1623
     5.4824   5.5121   5.5338   5.5376   5.6387   5.6611   5.7571   5.8273
     5.9870   5.9899   5.9935   6.0000   6.0253   6.0338   6.0371   6.0439
     6.1891   6.3880   6.4283   6.4303   6.4330   6.4395   6.4510   6.4733
     7.0860   7.0911   7.0982   7.1067   7.1221   7.1237   7.5732   7.5821
     7.5920   7.5991   7.5993   7.5995   7.6139   7.6261   7.8102   7.8152
     7.8741   7.8809   7.8853   7.8872   8.0320   8.0501   8.0528   8.0559
     8.1126   8.1244   8.1267   8.1326   8.1577   8.1963   8.6442   8.6902
     8.6924   8.7069   8.8252   8.8269   8.8301   8.8318   8.9727   8.9872
     8.9949   9.0630   9.0669   9.0679   9.0749   9.2585   9.2608   9.3737
     9.4213   9.4441   9.4925   9.4956   9.4956   9.4963   9.5084   9.5140
     9.5175   9.5191   9.5291   9.5321   9.8243   9.8315  10.0238

          k =-0.5000-0.2165 0.0000 (256328 PWs)   bands (ev):

   -17.1753 -15.9781 -15.8200 -15.7952 -15.3895 -15.2197 -15.1504 -15.1145
   -14.0586 -13.8409 -13.7092 -13.6732 -12.6843 -12.4581 -12.0019 -11.9968
   -11.9222 -11.7748 -11.6704 -11.5897 -11.5409 -11.5357 -11.4232 -11.4052
   -10.0451 -10.0388  -9.7698  -9.7235  -9.2275  -8.9139  -8.7978  -8.7593
    -8.2696  -8.2317  -8.0221  -7.9997  -6.5369  -6.3470  -6.1228  -5.9493
    -5.8390  -5.6269  -5.3887  -5.3141  -5.3059  -5.2213  -5.2141  -5.1818
    -5.1798  -5.1796  -5.0184  -5.0046  -4.9611  -4.5122  -4.3887  -4.3509
    -4.3260  -4.3205  -4.2639  -4.2148  -4.2020  -4.1984  -4.1979  -4.1975
    -4.0819  -4.0767  -3.9156  -3.8770  -3.8652  -3.8583  -3.7551  -3.7461
    -3.7042  -3.6899  -3.6035  -3.5924  -3.5838  -3.4873  -3.4663  -3.4567
    -3.1736  -3.0871  -3.0723  -3.0620  -2.6373  -2.5820  -2.5813  -2.5793
    -2.5790  -2.5786  -2.5450  -2.5289  -2.5237  -2.5233  -2.4095  -2.3530
    -2.1666  -2.1534  -2.1093  -2.1005  -2.0966  -2.0960  -2.0531  -2.0497
    -2.0206  -2.0188  -2.0178  -2.0103  -1.9392  -1.8032  -1.8031  -1.8019
    -1.8019  -1.7712  -1.7390  -1.7283  -1.5678  -1.5242  -1.5092  -1.5021
    -1.4935  -1.4935  -1.4935  -1.4934  -1.4596  -1.4564  -1.4541  -1.4538
    -1.4338  -1.4336  -1.4334  -1.4333  -1.3843  -1.3842  -1.3840  -1.3838
    -1.3824  -1.3823  -1.3817  -1.3816  -1.3587  -1.3587  -1.3585  -1.3585
    -1.3096  -1.3085  -1.3075  -1.3074  -1.3034  -1.2386  -1.2334  -1.2332
    -1.2324  -1.1911  -1.1910  -1.1909  -1.1909  -1.1748  -1.1713  -1.1709
    -1.1708  -1.1282  -1.1220  -1.1219  -1.1217  -1.1176  -1.1158  -1.1157
    -1.1157  -1.1104  -1.0965  -1.0927  -1.0904  -1.0870  -1.0574  -1.0573
    -1.0569  -1.0568  -1.0410  -1.0403  -1.0402  -1.0401  -1.0378  -1.0373
    -1.0372  -1.0368  -1.0367  -1.0149  -0.8828  -0.8825  -0.8820  -0.8819
    -0.8534  -0.8529  -0.8527  -0.8527  -0.8022  -0.7710  -0.7702  -0.7700
    -0.7696  -0.7691  -0.7684  -0.7667  -0.7630  -0.7620  -0.7617  -0.7614
    -0.7034  -0.7004  -0.7003  -0.7000  -0.6935  -0.6892  -0.6884  -0.6879
    -0.6726  -0.6679  -0.6672  -0.6671  -0.6420  -0.5832  -0.5712  -0.5709
    -0.5684  -0.5672  -0.5668  -0.5664  -0.5143  -0.4985  -0.4982  -0.4980
    -0.4961  -0.4495  -0.4489  -0.4486  -0.4455  -0.4283  -0.4282  -0.4276
    -0.4275  -0.4103  -0.4001  -0.3999  -0.3894  -0.3893  -0.3884  -0.3884
    -0.3771  -0.3520  -0.3494  -0.3476  -0.3406  -0.2738  -0.2738  -0.2731
    -0.2731  -0.2577  -0.2577  -0.2571  -0.2571  -0.2417  -0.2404  -0.2401
    -0.2397  -0.1597  -0.1592  -0.1585  -0.1577  -0.1535  -0.1534  -0.1532
    -0.1529  -0.1519  -0.1496  -0.1495  -0.1469  -0.1127  -0.1127  -0.1126
    -0.1126  -0.1008  -0.1001  -0.0995  -0.0993  -0.0962  -0.0960  -0.0958
    -0.0957  -0.0672  -0.0271  -0.0266  -0.0258  -0.0257  -0.0003  -0.0001
     0.0018   0.0024   0.0488   0.0493   0.0544   0.0550   0.0602   0.0652
     0.0794   0.0797   0.0801   0.0804   0.0855   0.0867   0.0882   0.0887
     0.0892   0.0898   0.0936   0.0939   0.1000   0.1003   0.1008   0.1009
     0.1062   0.1062   0.1064   0.1064   0.1174   0.1226   0.1230   0.1230
     0.1335   0.1509   0.1509   0.1510   0.1510   0.1602   0.1613   0.1613
     0.1631   0.2095   0.2104   0.2111   0.2112   0.2349   0.2435   0.2437
     0.2448   0.2549   0.2879   0.3073   0.3143   0.3174   0.3263   0.3271
     0.3281   0.3289   0.3355   0.3408   0.3440   0.3451   0.3455   0.3466
     0.3547   0.3609   0.3610   0.3616   0.3616   0.3651   0.3683   0.3687
     0.3695   0.3701   0.3710   0.3719   0.3777   0.3873   0.3989   0.4009
     0.4457   0.4477   0.4495   0.4514   0.4569   0.4571   0.4578   0.4584
     0.4689   0.4691   0.4692   0.4695   0.5060   0.5069   0.5081   0.5085
     0.5098   0.5100   0.5103   0.5105   0.5454   0.5538   0.5539   0.5542
     0.5542   0.5594   0.5646   0.5671   0.5678   0.5681   0.5683   0.5702
     0.5759   0.5761   0.5763   0.5764   0.5895   0.5898   0.5917   0.5920
     0.6010   0.6058   0.6067   0.6079   0.6671   0.6762   0.6763   0.6787
     0.6790   0.6826   0.6829   0.6830   0.6832   0.6841   0.6890   0.6912
     0.6928   0.6986   0.7070   0.7101   0.7282   0.7282   0.7290   0.7291
     0.7298   0.7306   0.7317   0.7318   0.7719   0.7787   0.7828   0.7834
     0.8021   0.8075   0.8113   0.8115   0.8130   0.8144   0.8298   0.8311
     0.8474   0.8475   0.8482   0.8482   0.8688   0.8704   0.8727   0.8731
     0.9251   0.9252   0.9258   0.9258   0.9576   0.9580   0.9593   0.9595
     1.0028   1.0108   1.0122   1.0124   1.0157   1.0206   1.0261   1.0263
     1.0356   1.0377   1.0379   1.0385   1.0431   1.0440   1.0441   1.0442
     1.0444   1.0462   1.0467   1.0482   1.0484   1.0502   1.0673   1.0739
     1.0740   1.0758   1.0768   1.0776   1.0781   1.0792   1.0803   1.0806
     1.0901   1.0943   1.0958   1.0968   1.1181   1.1194   1.1218   1.1219
     1.1252   1.1275   1.1320   1.1326   1.1404   1.1413   1.1415   1.1423
     1.1887   1.1899   1.1919   1.1938   1.1939   1.1955   1.1955   1.1977
     1.2200   1.2208   1.2209   1.2212   1.2291   1.2351   1.2359   1.2392
     1.2402   1.2435   1.2558   1.2561   1.2699   1.2700   1.2704   1.2704
     1.2786   1.2787   1.2795   1.2802   1.2851   1.2854   1.2861   1.2862
     1.3441   1.3521   1.3521   1.3527   1.3528   1.3536   1.3537   1.3543
     1.3543   1.3583   1.3614   1.3628   1.3660   1.3701   1.3711   1.3721
     1.3740   1.3776   1.3809   1.3810   1.3838   1.3853   1.3859   1.3870
     1.3927   1.3933   1.3937   1.3939   1.3975   1.4019   1.4040   1.4046
     1.4141   1.4146   1.4147   1.4152   1.4473   1.4477   1.4477   1.4479
     1.4601   1.4615   1.4630   1.4632   1.4734   1.4762   1.4787   1.4787
     1.4961   1.4992   1.5003   1.5005   1.5348   1.5476   1.5511   1.5526
     1.5722   1.5723   1.5729   1.5729   1.6012   1.6020   1.6029   1.6034
     1.6067   1.6080   1.6084   1.6093   1.6143   1.6150   1.6154   1.6157
     1.8317   1.8331   1.8332   1.8343   2.3286   2.3362   2.3421   2.3428
     2.5538   2.5560   2.5588   2.5589   2.7862   2.7911   2.7926   2.7934
     3.0793   3.0865   3.0876   3.0888   3.4495   3.4517   3.4518   3.4522
     3.6272   3.6372   3.6407   3.6409   3.9090   3.9267   3.9276   3.9278
     4.0040   4.2239   4.2245   4.2262   4.2317   4.3105   4.3224   4.3358
     4.3373   4.5080   4.5518   4.5544   4.5573   4.5643   4.5919   4.5957
     4.6272   4.7928   4.8622   4.8846   4.9028   5.0057   5.0417   5.0669
     5.1666   5.1673   5.1720   5.1724   5.2282   5.2480   5.2860   5.3003
     5.3330   5.3362   5.3461   5.3498   5.4996   5.5962   5.7288   5.7324
     5.7450   5.7463   5.7482   5.7496   5.8380   5.8637   5.8887   5.8892
     6.7815   6.7829   6.7833   6.7838   7.0957   7.1138   7.1161   7.1221
     7.1418   7.1508   7.1519   7.1530   7.2469   7.2684   7.2703   7.2734
     7.3591   7.3653   7.3663   7.3664   7.5143   7.6045   7.6070   7.6107
     7.6684   7.9022   7.9426   7.9565   7.9647   7.9815   7.9998   8.0043
     8.2204   8.2360   8.2388   8.2425   8.2456   8.2840   8.3599   8.3652
     8.8881   8.8886   8.8903   8.8912   8.9206   8.9230   8.9234   8.9248
     8.9623   8.9634   8.9646   8.9655   9.1066   9.1110   9.1188   9.1193
     9.3028   9.3248   9.3387   9.3450   9.5147   9.5241   9.5357   9.5468
     9.5623   9.5674   9.5721   9.5727   9.9261   9.9378   9.9668

     the Fermi energy is     3.3207 ev

!    total energy              =  -12707.14306350 Ry
     Harris-Foulkes estimate   =  -12707.14306346 Ry
     estimated scf accuracy    <          5.5E-09 Ry

     The total energy is the sum of the following terms:

     one-electron contribution = -109279.36754610 Ry
     hartree contribution      =   56001.07883484 Ry
     xc contribution           =   -4447.77483351 Ry
     ewald contribution        =   45025.26281563 Ry
     Dispersion Correction     =      -2.98705633 Ry
     smearing contrib. (-TS)   =      -3.35527802 Ry

     convergence has been achieved in  45 iterations

     Writing output data file gc.save
 
     init_run     :    118.72s CPU    144.44s WALL (       1 calls)
     electrons    :  12242.29s CPU  13106.49s WALL (       1 calls)

     Called by init_run:
     wfcinit      :    116.53s CPU    141.74s WALL (       1 calls)
     potinit      :      0.35s CPU      0.37s WALL (       1 calls)

     Called by electrons:
     c_bands      :  11240.69s CPU  12003.96s WALL (      45 calls)
     sum_band     :    822.44s CPU    894.15s WALL (      45 calls)
     v_of_rho     :      2.80s CPU      3.53s WALL (      46 calls)
     newd         :      7.49s CPU     13.38s WALL (      46 calls)
     mix_rho      :    168.69s CPU    191.32s WALL (      45 calls)

     Called by c_bands:
     init_us_2    :     36.02s CPU     37.43s WALL (     546 calls)
     cegterg      :  11081.56s CPU  11833.87s WALL (     276 calls)

     Called by sum_band:
     sum_band:bec :      4.83s CPU      5.35s WALL (     270 calls)
     addusdens    :      7.87s CPU     13.29s WALL (      45 calls)

     Called by *egterg:
     h_psi        :   4077.23s CPU   4420.33s WALL (    1926 calls)
     s_psi        :   1020.33s CPU   1031.67s WALL (    1926 calls)
     g_psi        :     10.22s CPU     10.25s WALL (    1644 calls)
     cdiaghg      :   3163.47s CPU   3303.38s WALL (    1914 calls)

     Called by h_psi:
     add_vuspsi   :   1024.42s CPU   1038.22s WALL (    1926 calls)

     General routines
     calbec       :   1414.53s CPU   1425.57s WALL (    2196 calls)
     fft          :      3.21s CPU      3.90s WALL (     597 calls)
     ffts         :     98.99s CPU    112.17s WALL (   26348 calls)
     fftw         :   2294.47s CPU   2578.65s WALL ( 1304492 calls)
     davcio       :      0.17s CPU      4.55s WALL (       6 calls)
 
     Parallel routines
     fft_scatter  :   1471.11s CPU   1627.14s WALL ( 1331437 calls)
 
     PWSCF        :     3h26m CPU        3h40m WALL

 
   This run was terminated on:  23:58: 3   7Sep2017            

=------------------------------------------------------------------------------=
   JOB DONE.
=------------------------------------------------------------------------------=
